INSANE! Membrane UpperLeaflet>M3.DPPC:M3.DPPS=75.0:25.0 LowerLeaflet>M3.DPPC:M3.DPPS=75.0:25.0
56796
    1DPPC   NC3    1  18.689   5.752  20.198 -0.2110  0.0539  0.0350
    1DPPC   PO4    2  18.314   5.923  20.207  0.1242 -0.0091  0.3466
    1DPPC   GL1    3  18.217   5.601  19.866  0.0252 -0.4215 -0.2218
    1DPPC   GL2    4  18.012   5.805  19.858  0.1991  0.2550 -0.0864
    1DPPC   C1A    5  18.190   5.528  19.505  0.0874 -0.1274  0.0928
    1DPPC   C2A    6  18.251   5.709  19.141  0.0800  0.2645 -0.3696
    1DPPC   C3A    7  18.261   5.715  18.631 -0.2732  0.2701  0.2887
    1DPPC   C4A    8  18.150   5.749  18.196  0.1696  0.0341  0.0741
    1DPPC   C1B    9  17.863   5.818  19.525  0.2158 -0.2866 -0.1165
    1DPPC   C2B   10  17.746   6.026  19.175  0.1235 -0.1441  0.1905
    1DPPC   C3B   11  17.760   6.025  18.718 -0.1522 -0.0188 -0.1699
    1DPPC   C4B   12  17.777   6.068  18.190  0.0960  0.2325  0.2719
    2DPPC   NC3   13  21.328   4.131  20.277 -0.2287 -0.0584 -0.0614
    2DPPC   PO4   14  21.087   4.420  20.251  0.0354  0.2174  0.0242
    2DPPC   GL1   15  20.989   4.325  19.864  0.4850  0.1250  0.0657
    2DPPC   GL2   16  21.194   4.137  19.787 -0.2639  0.1179  0.1205
    2DPPC   C1A   17  20.685   4.222  19.655 -0.3476  0.0401 -0.3081
    2DPPC   C2A   18  20.587   4.335  19.253 -0.2101  0.1600 -0.1980
    2DPPC   C3A   19  20.537   4.361  18.800  0.2026 -0.0146 -0.1238
    2DPPC   C4A   20  20.526   4.316  18.325  0.0805 -0.1485  0.0790
    2DPPC   C1B   21  21.072   4.138  19.391 -0.0549 -0.2613  0.2462
    2DPPC   C2B   22  21.005   4.147  18.967  0.0635 -0.1640  0.0392
    2DPPC   C3B   23  21.003   4.157  18.491  0.0620  0.1405  0.1747
    2DPPC   C4B   24  21.027   4.235  18.002 -0.2294  0.0462 -0.3971
    3DPPC   NC3   25  20.104   3.619  20.435  0.0386 -0.0930 -0.0277
    3DPPC   PO4   26  20.210   3.434  20.086 -0.1628  0.1354 -0.1932
    3DPPC   GL1   27  20.302   3.570  19.746  0.1685 -0.0857 -0.1278
    3DPPC   GL2   28  20.433   3.752  19.866 -0.2557  0.2135  0.0784
    3DPPC   C1A   29  20.230   3.521  19.401  0.0122  0.1475  0.2153
    3DPPC   C2A   30  20.143   3.551  19.027 -0.3034 -0.2912 -0.1783
    3DPPC   C3A   31  20.198   3.548  18.542 -0.0416 -0.2483 -0.0217
    3DPPC   C4A   32  20.227   3.610  18.050 -0.0781 -0.0810 -0.0363
    3DPPC   C1B   33  20.597   3.823  19.522  0.1431 -0.2309 -0.0565
    3DPPC   C2B   34  20.636   3.900  19.067  0.2442  0.0265  0.0665
    3DPPC   C3B   35  20.566   3.898  18.608  0.0267 -0.0533  0.0368
    3DPPC   C4B   36  20.631   3.889  18.124 -0.1399  0.0749  0.1000
    4DPPC   NC3   37  17.484   1.537  20.317  0.0712 -0.1338  0.2046
    4DPPC   PO4   38  17.082   1.540  20.357 -0.3023 -0.0733 -0.0116
    4DPPC   GL1   39  16.835   1.613  20.007  0.1442 -0.0113  0.1299
    4DPPC   GL2   40  16.853   1.912  20.022  0.0078 -0.0741 -0.2596
    4DPPC   C1A   41  16.944   1.560  19.653 -0.0292  0.4019  0.2494
    4DPPC   C2A   42  17.012   1.451  19.260 -0.0747  0.0823 -0.1258
    4DPPC   C3A   43  17.043   1.452  18.797  0.3021  0.0550  0.0404
    4DPPC   C4A   44  16.964   1.487  18.346 -0.0267  0.0337 -0.4887
    4DPPC   C1B   45  16.930   2.078  19.694 -0.2268  0.5200 -0.2259
    4DPPC   C2B   46  16.935   2.025  19.246  0.3924  0.4318 -0.0667
    4DPPC   C3B   47  16.856   1.989  18.818 -0.0528  0.1951  0.0936
    4DPPC   C4B   48  16.882   1.990  18.322 -0.0923  0.1119  0.1772
    5DPPC   NC3   49  17.953   3.068  20.420 -0.2261 -0.4121 -0.0502
    5DPPC   PO4   50  18.330   2.998  20.458 -0.0947  0.0508 -0.1445
    5DPPC   GL1   51  18.404   2.968  20.039  0.3093 -0.2660  0.1991
    5DPPC   GL2   52  18.114   2.967  19.978 -0.1520 -0.0370  0.0597
    5DPPC   C1A   53  18.519   3.044  19.725  0.1565  0.2605  0.1173
    5DPPC   C2A   54  18.527   3.204  19.319 -0.1753 -0.0946 -0.0488
    5DPPC   C3A   55  18.485   3.252  18.851  0.2260  0.1549  0.3526
    5DPPC   C4A   56  18.425   3.268  18.311 -0.0264  0.2245 -0.1485
    5DPPC   C1B   57  18.119   2.964  19.606 -0.1288  0.2367  0.4573
    5DPPC   C2B   58  18.141   2.903  19.170 -0.0247 -0.1666 -0.1881
    5DPPC   C3B   59  18.114   2.865  18.723  0.1850  0.0521  0.0724
    5DPPC   C4B   60  18.056   2.859  18.214  0.0012  0.0865 -0.0799
    6DPPC   NC3   61  18.686   3.312  20.161 -0.1110 -0.1734 -0.0418
    6DPPC   PO4   62  18.655   3.701  20.270 -0.3437  0.0030  0.0648
    6DPPC   GL1   63  18.656   3.886  19.871  0.1810  0.1210  0.1696
    6DPPC   GL2   64  18.489   3.653  19.797  0.2933 -0.0561 -0.5881
    6DPPC   C1A   65  18.746   4.014  19.548 -0.2833 -0.3282 -0.0503
    6DPPC   C2A   66  18.810   4.043  19.171  0.1705 -0.1535  0.2010
    6DPPC   C3A   67  18.778   4.070  18.695 -0.0699  0.2523  0.0967
    6DPPC   C4A   68  18.788   4.066  18.230  0.0303 -0.2982  0.2288
    6DPPC   C1B   69  18.316   3.699  19.483 -0.1746  0.3491 -0.1091
    6DPPC   C2B   70  18.404   3.677  19.099 -0.1749 -0.1264  0.0273
    6DPPC   C3B   71  18.400   3.698  18.616  0.1052  0.3159 -0.6283
    6DPPC   C4B   72  18.407   3.708  18.141  0.4539 -0.2540 -0.0240
    7DPPC   NC3   73  18.385   2.227  20.882  0.0157  0.0792  0.1704
    7DPPC   PO4   74  18.081   2.183  20.670 -0.0593 -0.0464  0.2731
    7DPPC   GL1   75  18.036   2.143  20.172 -0.3740 -0.0970 -0.0747
    7DPPC   GL2   76  17.822   1.918  20.136 -0.0058 -0.3088 -0.3546
    7DPPC   C1A   77  18.131   2.327  19.855  0.1407  0.1255 -0.1436
    7DPPC   C2A   78  18.118   2.459  19.451  0.0864 -0.1498  0.0235
    7DPPC   C3A   79  18.160   2.366  18.959  0.0075  0.2767  0.0557
    7DPPC   C4A   80  18.157   2.329  18.443  0.2613 -0.1113  0.0470
    7DPPC   C1B   81  17.587   1.811  19.894 -0.4007 -0.1557 -0.0019
    7DPPC   C2B   82  17.381   1.805  19.475  0.0563 -0.1622 -0.0844
    7DPPC   C3B   83  17.404   1.790  18.996 -0.2641 -0.1326  0.4318
    7DPPC   C4B   84  17.362   1.774  18.543 -0.0051 -0.2265 -0.3143
    8DPPC   NC3   85  21.308   5.947  20.212 -0.1491 -0.1665 -0.0108
    8DPPC   PO4   86  20.948   5.827  20.133  0.3893  0.2404  0.1294
    8DPPC   GL1   87  20.842   5.866  19.777 -0.0699 -0.0926  0.0989
    8DPPC   GL2   88  21.027   6.177  19.811 -0.0967 -0.0090 -0.4282
    8DPPC   C1A   89  20.848   5.622  19.492 -0.0261  0.2113  0.0011
    8DPPC   C2A   90  20.784   5.691  19.092  0.0121 -0.2403  0.2221
    8DPPC   C3A   91  20.817   5.648  18.645 -0.2462  0.0537  0.0918
    8DPPC   C4A   92  20.851   5.692  18.209 -0.2813  0.0235 -0.1254
    8DPPC   C1B   93  21.066   6.370  19.526 -0.2362 -0.1738  0.1367
    8DPPC   C2B   94  21.128   6.540  19.167 -0.1846 -0.1885  0.1972
    8DPPC   C3B   95  21.075   6.479  18.698 -0.1827  0.0868  0.1925
    8DPPC   C4B   96  21.092   6.454  18.202 -0.0873 -0.1461  0.5237
    9DPPC   NC3   97  18.518   4.175  20.234 -0.0018  0.3728  0.2789
    9DPPC   PO4   98  18.895   4.366  20.228  0.0505 -0.2790 -0.0010
    9DPPC   GL1   99  19.144   4.298  19.885 -0.1484  0.0431 -0.0464
    9DPPC   GL2  100  19.086   4.045  19.927  0.1971  0.1872  0.0649
    9DPPC   C1A  101  19.208   4.377  19.506  0.4171  0.0623  0.0131
    9DPPC   C2A  102  19.282   4.420  19.032  0.1925  0.1963  0.2283
    9DPPC   C3A  103  19.159   4.345  18.522 -0.1033  0.1770  0.1936
    9DPPC   C4A  104  19.138   4.413  18.021 -0.0239 -0.2395  0.3580
    9DPPC   C1B  105  19.228   3.703  19.710 -0.2376 -0.1788 -0.1175
    9DPPC   C2B  106  19.323   3.351  19.504 -0.0136 -0.0359  0.0363
    9DPPC   C3B  107  19.343   3.380  19.037  0.2436  0.1763 -0.0241
    9DPPC   C4B  108  19.346   3.383  18.581 -0.1490 -0.0487 -0.1608
   10DPPC   NC3  109  22.321   1.552  20.478  0.1700 -0.1551 -0.0788
   10DPPC   PO4  110  22.071   1.336  20.260 -0.0748  0.0817 -0.1695
   10DPPC   GL1  111  21.771   1.419  20.015 -0.0842 -0.4238  0.0982
   10DPPC   GL2  112  22.012   1.336  19.788  0.3559 -0.0257 -0.0216
   10DPPC   C1A  113  21.649   1.701  19.754 -0.0078  0.2167  0.0979
   10DPPC   C2A  114  21.455   1.717  19.385 -0.2366 -0.2108  0.1255
   10DPPC   C3A  115  21.339   1.676  18.932  0.0158 -0.0888 -0.3468
   10DPPC   C4A  116  21.270   1.643  18.420  0.0986 -0.1463  0.0089
   10DPPC   C1B  117  21.859   1.466  19.473 -0.0618 -0.6486  0.3906
   10DPPC   C2B  118  21.809   1.536  19.044 -0.3469  0.1453 -0.1257
   10DPPC   C3B  119  21.823   1.471  18.515  0.1330  0.0876 -0.3776
   10DPPC   C4B  120  21.814   1.474  18.023 -0.0467  0.1523 -0.1528
   11DPPC   NC3  121  20.163   1.020  20.039  0.3130 -0.0602 -0.0315
   11DPPC   PO4  122  20.170   1.437  19.946 -0.4459  0.3630  0.1123
   11DPPC   GL1  123  20.169   1.521  19.604  0.3328 -0.0120  0.1324
   11DPPC   GL2  124  20.059   1.806  19.637  0.0164  0.1942  0.1010
   11DPPC   C1A  125  20.385   1.433  19.371 -0.1144 -0.1776  0.6138
   11DPPC   C2A  126  20.441   1.543  18.966 -0.3527 -0.0739 -0.2953
   11DPPC   C3A  127  20.388   1.545  18.506  0.0283  0.0771 -0.0898
   11DPPC   C4A  128  20.394   1.461  18.000 -0.2013 -0.0127  0.0530
   11DPPC   C1B  129  20.053   1.780  19.253  0.1476  0.5156 -0.2623
   11DPPC   C2B  130  19.939   1.735  18.840  0.0482 -0.1649 -0.0114
   11DPPC   C3B  131  19.913   1.715  18.361 -0.0868 -0.1049  0.2579
   11DPPC   C4B  132  19.979   1.748  17.885  0.1187  0.1371 -0.0478
   12DPPC   NC3  133  20.813   0.001  20.512 -0.0090  0.2032  0.2435
   12DPPC   PO4  134  20.922  -0.175  20.215  0.0346  0.1337 -0.0344
   12DPPC   GL1  135  21.040   0.116  19.816 -0.0067 -0.3241  0.0956
   12DPPC   GL2  136  20.759   0.141  19.803 -0.0447 -0.0060  0.4196
   12DPPC   C1A  137  21.311   0.165  19.543 -0.1108  0.1814  0.1475
   12DPPC   C2A  138  21.545   0.211  19.203  0.0100  0.1987 -0.0900
   12DPPC   C3A  139  21.565   0.222  18.705  0.1425 -0.0982  0.1074
   12DPPC   C4A  140  21.543   0.183  18.224  0.2952  0.1166 -0.0706
   12DPPC   C1B  141  20.646  -0.186  19.641  0.1741  0.0958 -0.0122
   12DPPC   C2B  142  20.701  -0.472  19.311  0.1111 -0.0032  0.1745
   12DPPC   C3B  143  20.630  -0.447  18.863 -0.3769 -0.1299 -0.1042
   12DPPC   C4B  144  20.764  -0.468  18.393 -0.1493  0.1541 -0.2260
   13DPPC   NC3  145  21.094   3.454  20.388  0.0769  0.3655 -0.1402
   13DPPC   PO4  146  21.434   3.668  20.405 -0.1451  0.1181  0.1382
   13DPPC   GL1  147  21.641   3.681  20.073 -0.1371 -0.1078 -0.0931
   13DPPC   GL2  148  21.412   3.817  19.915 -0.3032  0.1074  0.0115
   13DPPC   C1A  149  21.901   3.689  19.827 -0.1009  0.1858  0.0636
   13DPPC   C2A  150  21.940   3.750  19.397 -0.1033 -0.0436 -0.2482
   13DPPC   C3A  151  21.972   3.800  18.866  0.1361  0.2759  0.2571
   13DPPC   C4A  152  21.928   3.785  18.330  0.0392 -0.0839  0.5287
   13DPPC   C1B  153  21.524   3.879  19.562  0.1289 -0.1524 -0.0762
   13DPPC   C2B  154  21.475   3.988  19.153  0.0225 -0.1618 -0.0505
   13DPPC   C3B  155  21.513   3.983  18.655 -0.0447  0.0390 -0.2261
   13DPPC   C4B  156  21.458   3.899  18.223  0.2210 -0.0045  0.0480
   14DPPC   NC3  157  23.115   1.627  20.384 -0.1394  0.2510  0.0332
   14DPPC   PO4  158  22.723   1.709  20.265 -0.0431 -0.0828  0.1428
   14DPPC   GL1  159  22.337   1.605  20.014 -0.1291  0.0409  0.0766
   14DPPC   GL2  160  22.432   1.367  19.975 -0.0589  0.0798 -0.0739
   14DPPC   C1A  161  22.132   1.736  19.690 -0.0881 -0.1375  0.1526
   14DPPC   C2A  162  22.159   1.838  19.313 -0.2634  0.0305 -0.1823
   14DPPC   C3A  163  22.134   1.823  18.821  0.1712  0.2343  0.0056
   14DPPC   C4A  164  22.165   1.855  18.355 -0.0871 -0.1170 -0.2256
   14DPPC   C1B  165  22.439   1.345  19.629  0.3835 -0.3888 -0.3291
   14DPPC   C2B  166  22.308   1.391  19.224  0.1211  0.2318  0.2045
   14DPPC   C3B  167  22.266   1.349  18.768 -0.1196 -0.0972  0.0496
   14DPPC   C4B  168  22.285   1.313  18.234  0.0815  0.2482  0.0079
   15DPPC   NC3  169  18.857   2.252  20.637  0.0683  0.2989 -0.0496
   15DPPC   PO4  170  18.627   2.561  20.505  0.0433  0.4384 -0.0418
   15DPPC   GL1  171  18.508   2.502  20.132  0.2056 -0.3006  0.2756
   15DPPC   GL2  172  18.779   2.364  20.068  0.3650 -0.2864 -0.1481
   15DPPC   C1A  173  18.456   2.591  19.797  0.0132 -0.0008 -0.1169
   15DPPC   C2A  174  18.573   2.699  19.394  0.0245  0.3508 -0.2069
   15DPPC   C3A  175  18.550   2.710  18.898  0.0740  0.0957 -0.1645
   15DPPC   C4A  176  18.534   2.761  18.399 -0.0784  0.0526  0.0447
   15DPPC   C1B  177  18.855   2.236  19.734 -0.2652  0.4012  0.2963
   15DPPC   C2B  178  19.085   2.148  19.368  0.0790  0.1321 -0.1335
   15DPPC   C3B  179  19.070   2.117  18.892  0.0525  0.1944  0.0708
   15DPPC   C4B  180  19.107   2.153  18.420 -0.3093 -0.3729  0.1480
   16DPPC   NC3  181  16.701   3.080  20.459 -0.0329  0.1954 -0.1575
   16DPPC   PO4  182  16.953   2.776  20.526  0.3926  0.3528  0.1219
   16DPPC   GL1  183  17.064   2.599  20.164 -0.5442  0.5383  0.0409
   16DPPC   GL2  184  16.953   2.341  20.282 -0.0262  0.0984 -0.0969
   16DPPC   C1A  185  16.890   2.694  19.876 -0.1499 -0.0491 -0.2441
   16DPPC   C2A  186  16.886   2.509  19.514  0.5366  0.0882 -0.1346
   16DPPC   C3A  187  16.864   2.482  19.073 -0.2325 -0.2002  0.1125
   16DPPC   C4A  188  16.854   2.467  18.536  0.0839 -0.3312 -0.3166
   16DPPC   C1B  189  16.649   2.345  20.066  0.0353  0.2118 -0.1060
   16DPPC   C2B  190  16.429   2.142  19.754 -0.0520 -0.1330  0.2195
   16DPPC   C3B  191  16.464   2.161  19.231 -0.0100  0.3223  0.1034
   16DPPC   C4B  192  16.437   2.233  18.767 -0.2067  0.1471  0.1224
   17DPPC   NC3  193  20.876   5.278  20.715 -0.2444  0.0059  0.4300
   17DPPC   PO4  194  20.723   5.438  20.435 -0.0608 -0.0526  0.2014
   17DPPC   GL1  195  20.724   5.311  20.076  0.1900 -0.1880 -0.0633
   17DPPC   GL2  196  20.509   5.528  20.027 -0.4490 -0.0726 -0.0789
   17DPPC   C1A  197  20.863   5.227  19.722  0.3852  0.3081 -0.3129
   17DPPC   C2A  198  20.973   5.197  19.307 -0.1208  0.1618 -0.3116
   17DPPC   C3A  199  20.950   5.098  18.837 -0.1558  0.1909  0.0969
   17DPPC   C4A  200  20.949   5.176  18.352 -0.1810  0.1344  0.0368
   17DPPC   C1B  201  20.457   5.709  19.710 -0.0511  0.0333 -0.0233
   17DPPC   C2B  202  20.276   5.882  19.385  0.0114  0.1831  0.2637
   17DPPC   C3B  203  20.284   5.819  18.925 -0.1041  0.1118 -0.1924
   17DPPC   C4B  204  20.376   5.917  18.485  0.2025 -0.0609  0.3405
   18DPPC   NC3  205  20.136   4.683  20.267 -0.0521  0.1362 -0.0510
   18DPPC   PO4  206  19.864   4.414  20.358 -0.2339  0.0561 -0.2638
   18DPPC   GL1  207  19.646   4.244  19.950 -0.2270 -0.3776  0.0905
   18DPPC   GL2  208  19.831   4.613  19.894 -0.1988 -0.2441  0.0970
   18DPPC   C1A  209  19.448   4.083  19.723  0.2303 -0.8462 -0.0756
   18DPPC   C2A  210  19.258   3.970  19.326 -0.1536  0.1250 -0.2658
   18DPPC   C3A  211  19.263   3.930  18.892  0.2183 -0.0836  0.0966
   18DPPC   C4A  212  19.223   3.844  18.394 -0.3112  0.0029  0.0479
   18DPPC   C1B  213  20.154   4.773  19.769  0.0682  0.3231  0.1418
   18DPPC   C2B  214  20.464   4.849  19.505 -0.1976 -0.0653 -0.2018
   18DPPC   C3B  215  20.436   4.860  19.054 -0.3347  0.0227 -0.0220
   18DPPC   C4B  216  20.537   4.849  18.617  0.2378  0.0112  0.2584
   19DPPC   NC3  217  22.473   0.977  20.281  0.0147 -0.1064  0.2300
   19DPPC   PO4  218  22.163   0.917  20.060  0.1535  0.0587  0.1818
   19DPPC   GL1  219  22.029   0.965  19.616 -0.1577 -0.0148 -0.3566
   19DPPC   GL2  220  22.081   0.697  19.586  0.0482 -0.0444  0.3199
   19DPPC   C1A  221  21.975   1.091  19.286 -0.0767  0.1543  0.0694
   19DPPC   C2A  222  21.864   1.032  18.892 -0.0322  0.2175  0.0486
   19DPPC   C3A  223  21.837   1.007  18.388 -0.4033 -0.0331  0.0032
   19DPPC   C4A  224  21.819   1.016  17.888 -0.1212  0.2517  0.4033
   19DPPC   C1B  225  21.982   0.645  19.228  0.0191  0.0331  0.1648
   19DPPC   C2B  226  21.937   0.540  18.840  0.2044 -0.1677  0.1084
   19DPPC   C3B  227  21.966   0.541  18.378 -0.1524  0.0410 -0.0137
   19DPPC   C4B  228  21.899   0.490  17.907 -0.0267 -0.0053  0.1459
   20DPPC   NC3  229  19.327   0.634  20.088  0.2242 -0.0186 -0.0426
   20DPPC   PO4  230  19.191   0.295  20.222  0.0535 -0.0243  0.0807
   20DPPC   GL1  231  19.058   0.060  19.881  0.2040  0.1114  0.1454
   20DPPC   GL2  232  19.236   0.229  19.747  0.0101  0.1151 -0.3475
   20DPPC   C1A  233  18.753   0.022  19.664 -0.0999  0.2788  0.1014
   20DPPC   C2A  234  18.556  -0.034  19.296 -0.1196 -0.1258 -0.0774
   20DPPC   C3A  235  18.526  -0.040  18.820  0.1121  0.1209 -0.4573
   20DPPC   C4A  236  18.530  -0.063  18.356  0.1881 -0.0549 -0.2142
   20DPPC   C1B  237  19.223   0.103  19.443 -0.3823  0.2652 -0.0790
   20DPPC   C2B  238  19.388   0.155  19.051 -0.2011  0.0612 -0.1940
   20DPPC   C3B  239  19.453   0.170  18.596  0.2395  0.1083  0.1188
   20DPPC   C4B  240  19.429   0.147  18.123  0.0900 -0.0827 -0.2379
   21DPPC   NC3  241  17.216   4.409  20.305  0.0789  0.1002  0.1543
   21DPPC   PO4  242  17.619   4.347  20.220  0.2087  0.0545 -0.1335
   21DPPC   GL1  243  17.725   4.255  19.812 -0.3659  0.0881 -0.0562
   21DPPC   GL2  244  17.569   4.023  19.810  0.1898 -0.1421  0.3031
   21DPPC   C1A  245  17.851   4.381  19.509  0.2555 -0.0590 -0.0243
   21DPPC   C2A  246  17.942   4.418  19.120  0.4694 -0.1723  0.0571
   21DPPC   C3A  247  17.924   4.411  18.644  0.2518  0.0907 -0.0206
   21DPPC   C4A  248  17.952   4.422  18.172  0.1666 -0.1114  0.2004
   21DPPC   C1B  249  17.593   4.042  19.479 -0.3173  0.1286  0.0544
   21DPPC   C2B  250  17.503   4.128  19.075 -0.2955  0.0980 -0.1333
   21DPPC   C3B  251  17.489   4.105  18.640  0.0994  0.1062 -0.0568
   21DPPC   C4B  252  17.494   4.141  18.146 -0.1079  0.1706 -0.3678
   22DPPC   NC3  253  22.166   4.435  20.336  0.2946 -0.0119  0.0135
   22DPPC   PO4  254  22.427   4.671  20.193 -0.1041 -0.0231  0.2395
   22DPPC   GL1  255  22.404   4.830  19.680  0.0714 -0.0871 -0.1512
   22DPPC   GL2  256  22.197   4.887  19.813 -0.2561  0.2781 -0.1671
   22DPPC   C1A  257  22.298   4.779  19.348  0.0561  0.3006  0.1620
   22DPPC   C2A  258  22.300   4.615  18.987  0.3574 -0.1871  0.0720
   22DPPC   C3A  259  22.375   4.555  18.511 -0.1190 -0.0465 -0.1999
   22DPPC   C4A  260  22.209   4.535  18.035  0.0943  0.0440  0.0341
   22DPPC   C1B  261  21.923   4.859  19.569 -0.2988  0.3145  0.0365
   22DPPC   C2B  262  21.844   4.795  19.191 -0.2789 -0.1666 -0.2062
   22DPPC   C3B  263  21.878   4.768  18.695  0.4734  0.1908  0.1708
   22DPPC   C4B  264  21.768   4.755  18.264  0.0204 -0.0048  0.0045
   23DPPC   NC3  265  17.328   2.408  20.575 -0.1234 -0.0172 -0.3592
   23DPPC   PO4  266  17.639   2.268  20.441 -0.0756  0.1890  0.1291
   23DPPC   GL1  267  17.716   2.281  19.964 -0.2156 -0.2500  0.2539
   23DPPC   GL2  268  17.497   2.338  20.022  0.7301  0.1281  0.1769
   23DPPC   C1A  269  17.734   2.157  19.617 -0.0439  0.1110  0.2917
   23DPPC   C2A  270  17.742   2.094  19.212  0.3057 -0.1087  0.1362
   23DPPC   C3A  271  17.769   2.035  18.750  0.1204  0.0611 -0.1303
   23DPPC   C4A  272  17.750   2.015  18.230  0.0120 -0.0286  0.0750
   23DPPC   C1B  273  17.365   2.374  19.671  0.2521  0.0275  0.1785
   23DPPC   C2B  274  17.292   2.367  19.321 -0.2367 -0.1899  0.1933
   23DPPC   C3B  275  17.305   2.305  18.843  0.0205  0.1365 -0.0247
   23DPPC   C4B  276  17.349   2.265  18.361  0.0358 -0.0853 -0.0434
   24DPPC   NC3  277  15.877   5.822  20.473  0.1443  0.1397  0.1533
   24DPPC   PO4  278  15.708   6.158  20.515 -0.2072 -0.2156 -0.1671
   24DPPC   GL1  279  15.518   6.078  20.144  0.1915 -0.0922  0.2599
   24DPPC   GL2  280  15.606   6.365  20.011  0.2724  0.0756  0.2817
   24DPPC   C1A  281  15.557   5.969  19.799 -0.3520 -0.3566  0.1753
   24DPPC   C2A  282  15.508   5.879  19.418 -0.5138  0.0270  0.1119
   24DPPC   C3A  283  15.496   5.918  18.936 -0.1529  0.3645  0.0727
   24DPPC   C4A  284  15.421   5.842  18.465 -0.1544 -0.1118 -0.3127
   24DPPC   C1B  285  15.572   6.379  19.660  0.2736  0.0315  0.0120
   24DPPC   C2B  286  15.425   6.372  19.306 -0.4486  0.0688 -0.1432
   24DPPC   C3B  287  15.375   6.407  18.875  0.0207  0.0547 -0.0286
   24DPPC   C4B  288  15.416   6.404  18.401  0.2579  0.0997  0.1442
   25DPPC   NC3  289  17.752   3.828  20.266 -0.0530  0.0315 -0.0639
   25DPPC   PO4  290  17.370   3.912  20.446  0.5277 -0.1056  0.1563
   25DPPC   GL1  291  17.214   3.795  20.055 -0.1868  0.0039  0.1940
   25DPPC   GL2  292  17.062   4.048  20.008 -0.1292  0.0678  0.1034
   25DPPC   C1A  293  17.294   3.701  19.706 -0.3991 -0.2491  0.0842
   25DPPC   C2A  294  17.199   3.818  19.366 -0.1717 -0.0028 -0.0161
   25DPPC   C3A  295  17.112   3.814  18.895 -0.1092 -0.1430 -0.1395
   25DPPC   C4A  296  17.086   3.760  18.452 -0.1349 -0.3115  0.2548
   25DPPC   C1B  297  17.155   4.174  19.625  0.1340 -0.1881 -0.0660
   25DPPC   C2B  298  17.085   4.294  19.229  0.1039 -0.1078  0.1867
   25DPPC   C3B  299  17.044   4.317  18.744 -0.1183  0.2054  0.3385
   25DPPC   C4B  300  16.996   4.276  18.241 -0.1111 -0.0310  0.1894
   26DPPC   NC3  301  21.865   3.352  20.360 -0.0781 -0.0876 -0.2110
   26DPPC   PO4  302  21.879   2.955  20.256  0.1431  0.1546  0.0842
   26DPPC   GL1  303  21.935   2.794  19.823  0.2720  0.1733 -0.1289
   26DPPC   GL2  304  21.801   2.512  19.855 -0.0437 -0.2427 -0.0932
   26DPPC   C1A  305  21.969   2.881  19.508 -0.2738 -0.0237  0.0377
   26DPPC   C2A  306  22.018   2.847  19.090 -0.3055 -0.1163  0.1505
   26DPPC   C3A  307  22.086   2.844  18.600  0.1674 -0.1862 -0.0632
   26DPPC   C4A  308  21.924   2.810  18.146 -0.0906  0.0322 -0.0658
   26DPPC   C1B  309  21.632   2.544  19.500 -0.1550 -0.2689 -0.0719
   26DPPC   C2B  310  21.622   2.547  19.084  0.2703  0.1728 -0.2471
   26DPPC   C3B  311  21.607   2.519  18.637  0.0222  0.2743 -0.1320
   26DPPC   C4B  312  21.563   2.500  18.118  0.0818 -0.1441  0.0256
   27DPPC   NC3  313  21.578   5.489  20.219 -0.1751  0.0186 -0.1031
   27DPPC   PO4  314  21.223   5.404  20.109  0.1314 -0.3056 -0.0469
   27DPPC   GL1  315  21.234   5.538  19.752 -0.2494 -0.3261 -0.4532
   27DPPC   GL2  316  21.272   5.792  19.736  0.0185 -0.0523  0.5064
   27DPPC   C1A  317  21.319   5.472  19.397 -0.1079 -0.0302  0.0201
   27DPPC   C2A  318  21.351   5.451  18.990  0.3493 -0.0196 -0.1881
   27DPPC   C3A  319  21.354   5.514  18.491 -0.0250 -0.1666  0.0343
   27DPPC   C4A  320  21.258   5.505  18.022 -0.1911  0.3601 -0.0230
   27DPPC   C1B  321  21.163   5.957  19.401  0.2233  0.0369 -0.0894
   27DPPC   C2B  322  21.165   6.051  18.984 -0.3458 -0.0221 -0.1184
   27DPPC   C3B  323  21.190   6.013  18.517  0.0695 -0.2339  0.1078
   27DPPC   C4B  324  21.183   6.005  18.032 -0.0663  0.0443  0.3127
   28DPPC   NC3  325  22.020   4.937  20.233 -0.3220  0.1048 -0.0450
   28DPPC   PO4  326  21.852   4.613  20.039 -0.0262  0.1977 -0.1835
   28DPPC   GL1  327  22.060   4.482  19.716 -0.3827 -0.2432  0.2692
   28DPPC   GL2  328  22.305   4.467  19.828 -0.1329  0.0946  0.2383
   28DPPC   C1A  329  21.940   4.420  19.380  0.0782  0.1859 -0.1638
   28DPPC   C2A  330  21.881   4.320  18.977  0.3057  0.0452 -0.0006
   28DPPC   C3A  331  21.861   4.293  18.492  0.2065  0.2385 -0.0392
   28DPPC   C4A  332  21.781   4.299  18.026  0.1297 -0.1738 -0.2920
   28DPPC   C1B  333  22.461   4.390  19.521 -0.2191  0.2747 -0.2067
   28DPPC   C2B  334  22.681   4.413  19.238  0.1305 -0.0132  0.0119
   28DPPC   C3B  335  22.768   4.426  18.792  0.1049 -0.1094 -0.0092
   28DPPC   C4B  336  22.764   4.388  18.296 -0.1422  0.0319  0.3449
   29DPPC   NC3  337  20.128   1.992  20.058 -0.1407 -0.1279 -0.2164
   29DPPC   PO4  338  19.777   2.125  20.101 -0.2232 -0.1322  0.0558
   29DPPC   GL1  339  19.702   2.395  19.801 -0.2001 -0.0726 -0.0379
   29DPPC   GL2  340  19.574   2.590  19.978  0.1130 -0.0096  0.0669
   29DPPC   C1A  341  19.555   2.365  19.451  0.0169  0.0441  0.1621
   29DPPC   C2A  342  19.522   2.452  19.090  0.3239 -0.0517  0.4010
   29DPPC   C3A  343  19.512   2.457  18.679  0.0544 -0.0185 -0.3107
   29DPPC   C4A  344  19.466   2.478  18.213 -0.3196 -0.0143  0.0060
   29DPPC   C1B  345  19.462   2.765  19.678 -0.0880 -0.0068 -0.3958
   29DPPC   C2B  346  19.390   2.842  19.305  0.0762 -0.2726  0.3351
   29DPPC   C3B  347  19.373   2.916  18.812  0.2578  0.1302 -0.1232
   29DPPC   C4B  348  19.336   2.935  18.317 -0.2225 -0.1907  0.1736
   30DPPC   NC3  349  15.612   1.363  20.261  0.1636 -0.0189 -0.0933
   30DPPC   PO4  350  15.927   1.573  20.369  0.0393 -0.0296  0.0411
   30DPPC   GL1  351  16.145   1.413  20.111 -0.2355 -0.3165  0.2892
   30DPPC   GL2  352  16.224   1.210  20.052 -0.1048  0.0728  0.3384
   30DPPC   C1A  353  16.153   1.486  19.724 -0.0271 -0.1300 -0.2203
   30DPPC   C2A  354  16.189   1.401  19.274 -0.3059  0.4088 -0.1269
   30DPPC   C3A  355  16.173   1.410  18.767 -0.3117  0.2141 -0.0375
   30DPPC   C4A  356  16.152   1.453  18.259 -0.1270 -0.0367 -0.2280
   30DPPC   C1B  357  16.247   1.034  19.738  0.1503 -0.1193  0.0499
   30DPPC   C2B  358  16.187   0.863  19.399 -0.1956 -0.0753 -0.2741
   30DPPC   C3B  359  16.211   0.926  18.912 -0.1399 -0.0847 -0.2093
   30DPPC   C4B  360  16.111   0.881  18.408  0.0231 -0.2688 -0.1515
   31DPPC   NC3  361  18.914   4.889  20.297 -0.0714 -0.1592 -0.1284
   31DPPC   PO4  362  18.942   5.210  20.093  0.1967  0.0704 -0.1600
   31DPPC   GL1  363  18.944   5.170  19.761  0.1704  0.2104 -0.1448
   31DPPC   GL2  364  19.002   4.977  19.610 -0.3862  0.2632 -0.1522
   31DPPC   C1A  365  19.085   5.342  19.436  0.2930  0.2395 -0.2325
   31DPPC   C2A  366  19.043   5.429  19.034 -0.2063 -0.1036  0.0677
   31DPPC   C3A  367  19.066   5.410  18.523 -0.0397 -0.0994  0.0028
   31DPPC   C4A  368  19.140   5.373  18.047 -0.0569  0.0562  0.2088
   31DPPC   C1B  369  19.046   4.991  19.210 -0.0332  0.0649 -0.1089
   31DPPC   C2B  370  19.087   4.931  18.830 -0.0009 -0.0001  0.1835
   31DPPC   C3B  371  19.104   4.884  18.344  0.2182  0.1032  0.1783
   31DPPC   C4B  372  19.103   4.839  17.817 -0.0298  0.0297 -0.0439
   32DPPC   NC3  373  19.824   6.274  20.091 -0.0580 -0.2307  0.1062
   32DPPC   PO4  374  19.629   5.953  20.111  0.0290 -0.0965 -0.2804
   32DPPC   GL1  375  19.404   5.987  19.778 -0.2374  0.1089  0.1152
   32DPPC   GL2  376  19.542   5.716  19.654  0.0183 -0.0990 -0.0491
   32DPPC   C1A  377  19.378   6.163  19.414 -0.0827 -0.2779  0.0548
   32DPPC   C2A  378  19.404   6.203  19.040  0.1558 -0.0792  0.0308
   32DPPC   C3A  379  19.426   6.216  18.595 -0.0686 -0.1941 -0.1263
   32DPPC   C4A  380  19.471   6.170  18.127 -0.1726 -0.0655 -0.0455
   32DPPC   C1B  381  19.458   5.694  19.339  0.1366  0.2810  0.1812
   32DPPC   C2B  382  19.447   5.729  18.920  0.0392 -0.0472  0.1243
   32DPPC   C3B  383  19.530   5.725  18.487 -0.3040 -0.0318 -0.1968
   32DPPC   C4B  384  19.521   5.668  17.978 -0.1196  0.0163  0.0374
   33DPPC   NC3  385  16.573   3.884  19.999  0.1237  0.0222 -0.1162
   33DPPC   PO4  386  16.553   3.609  20.286 -0.2258 -0.0748 -0.2394
   33DPPC   GL1  387  16.801   3.310  20.063 -0.1661  0.0128 -0.2161
   33DPPC   GL2  388  16.874   3.556  19.960  0.1889 -0.1036 -0.4270
   33DPPC   C1A  389  16.831   3.116  19.757 -0.1890  0.2344  0.2334
   33DPPC   C2A  390  16.809   3.003  19.382 -0.3091 -0.1158  0.3335
   33DPPC   C3A  391  16.805   2.983  18.914 -0.2000  0.0915  0.2279
   33DPPC   C4A  392  16.721   2.908  18.423  0.1326 -0.0169 -0.1279
   33DPPC   C1B  393  16.850   3.609  19.579  0.2794 -0.3391  0.0006
   33DPPC   C2B  394  16.759   3.504  19.225  0.2458  0.0191 -0.0479
   33DPPC   C3B  395  16.670   3.460  18.741 -0.1358  0.0314 -0.1706
   33DPPC   C4B  396  16.667   3.432  18.268 -0.0126 -0.1360  0.1866
   34DPPC   NC3  397  20.725   4.132  20.491 -0.0494  0.2529  0.1893
   34DPPC   PO4  398  21.017   3.875  20.533  0.2859 -0.0819  0.0575
   34DPPC   GL1  399  21.034   3.849  20.120 -0.1465  0.1043  0.1617
   34DPPC   GL2  400  20.828   3.986  20.040  0.0911 -0.3412 -0.0062
   34DPPC   C1A  401  21.108   3.505  19.932  0.2464  0.0616 -0.1793
   34DPPC   C2A  402  21.055   3.262  19.597 -0.2113  0.3385  0.1561
   34DPPC   C3A  403  21.118   3.139  19.124 -0.0092  0.0834 -0.4036
   34DPPC   C4A  404  21.076   3.186  18.629  0.0079 -0.2459  0.0673
   34DPPC   C1B  405  20.922   3.805  19.724  0.0649 -0.1545  0.1387
   34DPPC   C2B  406  21.030   3.722  19.332  0.1158 -0.1878  0.1585
   34DPPC   C3B  407  21.024   3.639  18.864  0.0768 -0.0600  0.0665
   34DPPC   C4B  408  21.063   3.667  18.395  0.4044  0.2858  0.2501
   35DPPC   NC3  409  18.989   6.475  20.378 -0.1532 -0.2987 -0.1405
   35DPPC   PO4  410  18.717   6.307  20.217  0.1688 -0.0370 -0.2629
   35DPPC   GL1  411  18.446   6.282  20.007  0.0137 -0.2302  0.2531
   35DPPC   GL2  412  18.614   5.948  19.797  0.1910  0.1750  0.2966
   35DPPC   C1A  413  18.313   6.579  19.873  0.0039  0.3570 -0.0093
   35DPPC   C2A  414  18.105   6.673  19.601 -0.1163 -0.0427 -0.2253
   35DPPC   C3A  415  18.090   6.705  19.152  0.0062  0.0327  0.0238
   35DPPC   C4A  416  17.991   6.732  18.673  0.0588  0.1913  0.3067
   35DPPC   C1B  417  18.602   6.008  19.427 -0.2252  0.0662 -0.0380
   35DPPC   C2B  418  18.563   6.073  19.019 -0.1451 -0.0555  0.1063
   35DPPC   C3B  419  18.660   6.134  18.587 -0.4078  0.0546  0.4091
   35DPPC   C4B  420  18.669   6.115  18.078 -0.0754  0.0930  0.1264
   36DPPC   NC3  421  22.148   3.775  20.259 -0.0871  0.1781 -0.2137
   36DPPC   PO4  422  21.820   4.018  20.329 -0.0001 -0.0230 -0.0811
   36DPPC   GL1  423  21.679   4.174  19.925 -0.1503  0.1599 -0.0678
   36DPPC   GL2  424  21.969   4.111  19.925 -0.0175 -0.1995  0.1002
   36DPPC   C1A  425  21.620   4.324  19.621 -0.2195  0.1820 -0.0131
   36DPPC   C2A  426  21.506   4.460  19.276  0.0172 -0.1842 -0.1520
   36DPPC   C3A  427  21.443   4.458  18.846  0.4445  0.2145 -0.2351
   36DPPC   C4A  428  21.371   4.487  18.331 -0.1492 -0.0256  0.0859
   36DPPC   C1B  429  22.152   4.079  19.610  0.0263 -0.2477 -0.1254
   36DPPC   C2B  430  22.231   4.075  19.229 -0.5689  0.0277 -0.2201
   36DPPC   C3B  431  22.302   4.119  18.733  0.3241 -0.1854  0.1321
   36DPPC   C4B  432  22.272   4.138  18.255  0.0107 -0.0934  0.2221
   37DPPC   NC3  433  18.232   1.794  20.378  0.1801  0.0092  0.0943
   37DPPC   PO4  434  18.472   2.076  20.339 -0.3538  0.1131 -0.3148
   37DPPC   GL1  435  18.503   2.068  19.904 -0.0189 -0.2799  0.0330
   37DPPC   GL2  436  18.269   1.864  19.906  0.1121 -0.0489 -0.2196
   37DPPC   C1A  437  18.497   2.213  19.550  0.1859 -0.2272 -0.1033
   37DPPC   C2A  438  18.572   2.236  19.197 -0.1202 -0.0823 -0.0811
   37DPPC   C3A  439  18.612   2.241  18.727  0.0220 -0.0303  0.0362
   37DPPC   C4A  440  18.629   2.183  18.234 -0.0589 -0.1674 -0.0207
   37DPPC   C1B  441  18.141   1.932  19.538 -0.5676  0.0822 -0.3971
   37DPPC   C2B  442  18.167   1.908  19.137 -0.0419 -0.0092  0.0660
   37DPPC   C3B  443  18.189   1.833  18.658  0.2128  0.0219 -0.0683
   37DPPC   C4B  444  18.206   1.905  18.131 -0.0869  0.0826 -0.0554
   38DPPC   NC3  445  16.693   0.722  20.368 -0.0728  0.2454  0.1363
   38DPPC   PO4  446  16.289   0.722  20.249  0.0173  0.3499 -0.0440
   38DPPC   GL1  447  16.200   0.484  19.879  0.0709 -0.1604 -0.0564
   38DPPC   GL2  448  16.069   0.331  20.013  0.1708 -0.1620  0.4567
   38DPPC   C1A  449  16.274   0.437  19.573 -0.1454  0.1219  0.2534
   38DPPC   C2A  450  16.259   0.439  19.187 -0.1432 -0.0102  0.0017
   38DPPC   C3A  451  16.252   0.372  18.682 -0.2905 -0.0851  0.1853
   38DPPC   C4A  452  16.218   0.408  18.134  0.1315  0.1887 -0.2453
   38DPPC   C1B  453  16.075   0.049  19.776 -0.3088 -0.1153  0.1547
   38DPPC   C2B  454  16.252  -0.079  19.392  0.5954 -0.0953 -0.0408
   38DPPC   C3B  455  16.378  -0.147  18.879  0.0281 -0.1680  0.0996
   38DPPC   C4B  456  16.250  -0.144  18.383  0.0604  0.1517  0.1229
   39DPPC   NC3  457  19.692   6.304  20.795 -0.0411 -0.3661 -0.0523
   39DPPC   PO4  458  19.458   6.397  20.480 -0.1231 -0.0503 -0.0902
   39DPPC   GL1  459  19.354   6.453  20.102 -0.2557 -0.2831  0.1395
   39DPPC   GL2  460  19.161   6.283  19.979  0.0102  0.1583 -0.1864
   39DPPC   C1A  461  19.511   6.484  19.748 -0.0920 -0.0728  0.0534
   39DPPC   C2A  462  19.701   6.532  19.359  0.3162  0.1715 -0.3236
   39DPPC   C3A  463  19.785   6.500  18.897  0.0282  0.1977 -0.4353
   39DPPC   C4A  464  19.776   6.508  18.373  0.1837  0.0916  0.2937
   39DPPC   C1B  465  18.975   6.170  19.632  0.2175  0.1386 -0.2009
   39DPPC   C2B  466  18.941   6.331  19.270 -0.0823 -0.0454 -0.0994
   39DPPC   C3B  467  19.046   6.455  18.858  0.0231 -0.1272  0.0143
   39DPPC   C4B  468  19.051   6.419  18.366  0.0694 -0.1205 -0.3101
   40DPPC   NC3  469  21.456   0.209  19.933 -0.3210  0.1604 -0.0962
   40DPPC   PO4  470  21.471  -0.178  20.019 -0.1348  0.1211 -0.0091
   40DPPC   GL1  471  21.468  -0.300  19.641 -0.3832  0.1329 -0.1153
   40DPPC   GL2  472  21.677  -0.064  19.559 -0.1828 -0.1308  0.0653
   40DPPC   C1A  473  21.473  -0.311  19.264 -0.5190 -0.1326 -0.1457
   40DPPC   C2A  474  21.573  -0.291  18.864 -0.0327 -0.1899 -0.0610
   40DPPC   C3A  475  21.600  -0.338  18.372 -0.0573 -0.0156  0.2582
   40DPPC   C4A  476  21.571  -0.181  17.933  0.2567 -0.4252 -0.0296
   40DPPC   C1B  477  21.857  -0.140  19.274 -0.3209 -0.1043 -0.0322
   40DPPC   C2B  478  21.946   0.041  18.940  0.0350  0.0111  0.1742
   40DPPC   C3B  479  22.066   0.063  18.490 -0.0384  0.0544  0.0244
   40DPPC   C4B  480  22.077   0.008  18.049 -0.1153 -0.0436  0.2800
   41DPPC   NC3  481  19.759   0.509  20.501  0.3217 -0.0871  0.1219
   41DPPC   PO4  482  20.063   0.564  20.240 -0.2765 -0.0408  0.3047
   41DPPC   GL1  483  20.217   0.624  19.837 -0.2855  0.0348  0.1861
   41DPPC   GL2  484  20.323   0.381  19.899 -0.0665  0.0503 -0.4782
   41DPPC   C1A  485  20.235   0.630  19.419  0.2198 -0.1685 -0.0111
   41DPPC   C2A  486  20.145   0.666  19.020 -0.1397  0.1156 -0.0987
   41DPPC   C3A  487  20.174   0.746  18.582  0.0978  0.0248 -0.1343
   41DPPC   C4A  488  20.189   0.728  18.093  0.0529  0.0874 -0.1014
   41DPPC   C1B  489  20.374   0.205  19.604  0.1542 -0.0850  0.2578
   41DPPC   C2B  490  20.239   0.176  19.215  0.0057 -0.1667 -0.3687
   41DPPC   C3B  491  20.138   0.242  18.718 -0.1006  0.1038  0.1179
   41DPPC   C4B  492  20.176   0.251  18.195  0.0213 -0.0495 -0.3969
   42DPPC   NC3  493  16.549   6.276  20.218  0.0469  0.0100 -0.0799
   42DPPC   PO4  494  16.205   6.170  20.385 -0.1874  0.0650  0.0060
   42DPPC   GL1  495  15.961   6.011  20.044 -0.0034  0.1684  0.0186
   42DPPC   GL2  496  16.004   6.224  19.903 -0.2784 -0.1531  0.2821
   42DPPC   C1A  497  15.791   5.703  20.061 -0.0992  0.0128 -0.1447
   42DPPC   C2A  498  15.693   5.502  19.699 -0.1305 -0.0551 -0.0034
   42DPPC   C3A  499  15.670   5.443  19.188 -0.1027 -0.3442 -0.1808
   42DPPC   C4A  500  15.575   5.356  18.720  0.3925  0.2414 -0.1898
   42DPPC   C1B  501  15.946   6.239  19.524 -0.2254 -0.0998 -0.1443
   42DPPC   C2B  502  15.880   6.206  19.131 -0.0251  0.1710 -0.0180
   42DPPC   C3B  503  15.864   6.214  18.637 -0.2068  0.0597 -0.0871
   42DPPC   C4B  504  15.799   6.187  18.130 -0.1930  0.2393  0.0165
   43DPPC   NC3  505  21.611   0.969  19.865 -0.1143 -0.1277 -0.0961
   43DPPC   PO4  506  21.384   0.700  20.029  0.1085 -0.0944 -0.1086
   43DPPC   GL1  507  21.128   0.554  19.688 -0.2818 -0.1647 -0.0320
   43DPPC   GL2  508  21.111   0.889  19.729  0.2917 -0.0347  0.2986
   43DPPC   C1A  509  21.104   0.461  19.298  0.2333 -0.1455 -0.2208
   43DPPC   C2A  510  21.089   0.345  18.909  0.0468  0.1277  0.0004
   43DPPC   C3A  511  21.025   0.363  18.466 -0.0859 -0.0213 -0.0620
   43DPPC   C4A  512  21.062   0.342  17.967  0.0618  0.2859 -0.1458
   43DPPC   C1B  513  21.005   0.903  19.358  0.1262  0.2526 -0.3508
   43DPPC   C2B  514  20.985   0.853  18.973 -0.1026 -0.2723 -0.0928
   43DPPC   C3B  515  20.911   0.842  18.539  0.1415 -0.1720  0.1650
   43DPPC   C4B  516  20.999   0.842  18.041  0.0872 -0.1152  0.1061
   44DPPC   NC3  517  17.350   3.506  20.835  0.1349 -0.3241  0.1166
   44DPPC   PO4  518  17.646   3.444  20.566 -0.1727 -0.0919 -0.3539
   44DPPC   GL1  519  17.506   3.403  20.122  0.1066 -0.0778 -0.2215
   44DPPC   GL2  520  17.753   3.223  20.023 -0.2444  0.1010 -0.1850
   44DPPC   C1A  521  17.236   3.299  19.883 -0.1035 -0.0399  0.1568
   44DPPC   C2A  522  17.211   3.310  19.468  0.3465  0.3768 -0.0065
   44DPPC   C3A  523  17.208   3.315  19.000 -0.1077 -0.1261  0.1894
   44DPPC   C4A  524  17.132   3.252  18.565  0.0549  0.1147 -0.1777
   44DPPC   C1B  525  17.696   3.063  19.687 -0.0523 -0.0649  0.1934
   44DPPC   C2B  526  17.674   3.074  19.274  0.1410  0.0552 -0.0030
   44DPPC   C3B  527  17.614   3.147  18.794  0.2382 -0.0238  0.0245
   44DPPC   C4B  528  17.564   3.063  18.370 -0.4711 -0.0347  0.2287
   45DPPC   NC3  529  19.357   4.236  20.308  0.1080 -0.1149 -0.1066
   45DPPC   PO4  530  19.422   4.613  20.228  0.0130  0.3272  0.2681
   45DPPC   GL1  531  19.091   4.720  19.914 -0.1134  0.1682 -0.1678
   45DPPC   GL2  532  19.363   4.732  19.807  0.0185  0.4811 -0.2236
   45DPPC   C1A  533  18.860   4.575  19.664 -0.1490  0.1403 -0.4368
   45DPPC   C2A  534  18.721   4.522  19.252 -0.1364 -0.1439  0.0161
   45DPPC   C3A  535  18.730   4.553  18.713  0.2430 -0.1370 -0.2464
   45DPPC   C4A  536  18.691   4.560  18.257 -0.0282 -0.3809  0.1294
   45DPPC   C1B  537  19.479   4.695  19.428 -0.1461 -0.0165 -0.3407
   45DPPC   C2B  538  19.558   4.807  19.035 -0.0964  0.0209 -0.0408
   45DPPC   C3B  539  19.599   4.784  18.573  0.1293  0.2307  0.2371
   45DPPC   C4B  540  19.540   4.740  18.085  0.1872  0.0910  0.1002
   46DPPC   NC3  541  19.718   5.484  20.288  0.1384  0.0350 -0.1566
   46DPPC   PO4  542  20.046   5.631  20.234 -0.0223  0.0205  0.2107
   46DPPC   GL1  543  20.005   5.595  19.834 -0.2049 -0.1623  0.0920
   46DPPC   GL2  544  20.033   5.927  19.878 -0.3505 -0.1063 -0.0594
   46DPPC   C1A  545  19.923   5.401  19.507 -0.3142 -0.1984 -0.1526
   46DPPC   C2A  546  19.930   5.482  19.097 -0.0749  0.0949 -0.2656
   46DPPC   C3A  547  20.002   5.490  18.588 -0.0632  0.0581  0.0342
   46DPPC   C4A  548  20.003   5.569  18.090  0.1324 -0.1418 -0.3219
   46DPPC   C1B  549  19.894   6.121  19.624  0.0560  0.3603  0.2148
   46DPPC   C2B  550  19.798   5.998  19.259  0.0377 -0.1850  0.0467
   46DPPC   C3B  551  19.844   5.989  18.787  0.0845 -0.1149 -0.1913
   46DPPC   C4B  552  19.901   6.018  18.284 -0.1091  0.0362  0.0673
   47DPPC   NC3  553  20.484   5.997  20.116 -0.0710 -0.3257  0.2418
   47DPPC   PO4  554  20.360   6.353  20.177 -0.0074  0.1352  0.2992
   47DPPC   GL1  555  20.220   6.417  19.766 -0.2550  0.1250 -0.0191
   47DPPC   GL2  556  20.056   6.658  19.940 -0.0713  0.0718 -0.0366
   47DPPC   C1A  557  20.258   6.376  19.430 -0.0567  0.1573  0.2747
   47DPPC   C2A  558  20.216   6.279  19.058  0.0974  0.3163  0.0965
   47DPPC   C3A  559  20.216   6.367  18.604  0.2838 -0.0660 -0.2231
   47DPPC   C4A  560  20.261   6.396  18.140  0.1493  0.0212 -0.1254
   47DPPC   C1B  561  19.969   6.882  19.633 -0.2180  0.3479 -0.0534
   47DPPC   C2B  562  19.808   7.093  19.318 -0.0032  0.2915  0.1033
   47DPPC   C3B  563  19.709   7.058  18.851  0.1880 -0.0239 -0.2407
   47DPPC   C4B  564  19.782   7.060  18.376  0.0673 -0.2312  0.3026
   48DPPC   NC3  565  18.261   6.122  20.832  0.3802 -0.2678  0.1732
   48DPPC   PO4  566  17.960   5.985  20.598  0.4376 -0.0104 -0.1088
   48DPPC   GL1  567  17.856   6.022  20.264 -0.0078 -0.0473 -0.1226
   48DPPC   GL2  568  17.961   6.285  20.144  0.0728 -0.0340  0.3621
   48DPPC   C1A  569  17.638   5.859  19.947  0.1404  0.0926  0.1138
   48DPPC   C2A  570  17.363   5.661  19.687 -0.1141 -0.1485 -0.0425
   48DPPC   C3A  571  17.289   5.530  19.268  0.3840 -0.0870 -0.1829
   48DPPC   C4A  572  17.292   5.590  18.806  0.0068  0.1285 -0.0500
   48DPPC   C1B  573  18.062   6.220  19.753 -0.0219  0.1564  0.0364
   48DPPC   C2B  574  18.191   6.201  19.392  0.0372 -0.1828 -0.4249
   48DPPC   C3B  575  18.121   6.275  18.927  0.2033  0.1916 -0.1212
   48DPPC   C4B  576  18.179   6.235  18.419 -0.1641  0.4059  0.1904
   49DPPC   NC3  577  20.545   4.849  20.057 -0.1898 -0.1998  0.0208
   49DPPC   PO4  578  20.593   4.454  20.111 -0.4119 -0.1756  0.0133
   49DPPC   GL1  579  20.192   4.337  19.850 -0.0292 -0.2878 -0.1904
   49DPPC   GL2  580  20.346   4.397  19.671 -0.1796 -0.0671  0.3384
   49DPPC   C1A  581  19.918   4.320  19.597  0.1297  0.2547  0.1184
   49DPPC   C2A  582  19.693   4.231  19.232 -0.0336 -0.0513  0.1574
   49DPPC   C3A  583  19.685   4.262  18.728  0.2925 -0.0324  0.2638
   49DPPC   C4A  584  19.700   4.302  18.260  0.3741 -0.2201 -0.0427
   49DPPC   C1B  585  20.192   4.539  19.364  0.1711  0.2275 -0.0395
   49DPPC   C2B  586  20.049   4.555  19.009  0.1347 -0.0318  0.0269
   49DPPC   C3B  587  20.085   4.521  18.595 -0.0653 -0.1755  0.0942
   49DPPC   C4B  588  20.102   4.540  18.091 -0.1541 -0.2296 -0.0073
   50DPPC   NC3  589  19.045   5.698  20.774  0.0956  0.2277 -0.0166
   50DPPC   PO4  590  19.167   5.458  20.468 -0.2604 -0.0679  0.0514
   50DPPC   GL1  591  19.325   5.553  20.062 -0.1195 -0.0948  0.1054
   50DPPC   GL2  592  19.131   5.725  19.996 -0.0877  0.0210  0.2917
   50DPPC   C1A  593  19.359   5.320  19.753 -0.2757  0.1612 -0.1219
   50DPPC   C2A  594  19.512   5.184  19.360  0.0695 -0.1260  0.1408
   50DPPC   C3A  595  19.482   5.279  18.847  0.0884  0.0485  0.2364
   50DPPC   C4A  596  19.531   5.254  18.343  0.1093  0.0780  0.0361
   50DPPC   C1B  597  19.127   5.729  19.610  0.0479 -0.2089 -0.1994
   50DPPC   C2B  598  18.985   5.868  19.243 -0.0376 -0.2121  0.1397
   50DPPC   C3B  599  19.047   5.911  18.739 -0.0467  0.0703  0.1664
   50DPPC   C4B  600  19.063   5.839  18.268  0.2975 -0.0424  0.2198
   51DPPC   NC3  601  18.030   4.735  20.327  0.1318  0.0749  0.1042
   51DPPC   PO4  602  18.449   4.692  20.299 -0.1353 -0.0281 -0.2882
   51DPPC   GL1  603  18.505   4.595  19.945  0.1870  0.1640 -0.0385
   51DPPC   GL2  604  18.554   4.888  19.853 -0.5074 -0.0422 -0.1454
   51DPPC   C1A  605  18.442   4.300  19.714 -0.0187 -0.1997  0.3828
   51DPPC   C2A  606  18.346   4.150  19.338 -0.0360 -0.1775 -0.0586
   51DPPC   C3A  607  18.372   4.251  18.902 -0.0204  0.1661 -0.0400
   51DPPC   C4A  608  18.330   4.183  18.434 -0.1598 -0.0583 -0.1576
   51DPPC   C1B  609  18.612   4.970  19.530  0.1423 -0.0713 -0.1849
   51DPPC   C2B  610  18.613   5.072  19.086 -0.3119  0.0560 -0.1578
   51DPPC   C3B  611  18.640   5.136  18.580 -0.2410  0.3930 -0.1896
   51DPPC   C4B  612  18.651   5.114  18.105 -0.1180 -0.1321  0.2189
   52DPPC   NC3  613  17.718   6.258  20.895 -0.0016  0.1272 -0.0321
   52DPPC   PO4  614  17.508   6.199  20.611  0.3207  0.1616 -0.0387
   52DPPC   GL1  615  17.523   6.289  20.188 -0.1235 -0.2799 -0.2569
   52DPPC   GL2  616  17.344   6.104  20.171 -0.3939 -0.1743 -0.3057
   52DPPC   C1A  617  17.645   6.452  19.830 -0.0527  0.3397 -0.1686
   52DPPC   C2A  618  17.694   6.463  19.426  0.2145 -0.1720 -0.0311
   52DPPC   C3A  619  17.606   6.478  19.010 -0.2494 -0.0446  0.0871
   52DPPC   C4A  620  17.615   6.457  18.511 -0.2598 -0.1558  0.0139
   52DPPC   C1B  621  17.204   6.193  19.859 -0.0905  0.1647  0.1026
   52DPPC   C2B  622  17.345   6.064  19.459  0.2785 -0.0266 -0.1103
   52DPPC   C3B  623  17.294   6.039  18.988  0.3498 -0.0636 -0.2270
   52DPPC   C4B  624  17.262   6.011  18.496  0.0835 -0.1785  0.0342
   53DPPC   NC3  625  20.950   1.278  20.025  0.1180 -0.1288  0.2829
   53DPPC   PO4  626  20.622   1.140  19.959  0.2887 -0.2058  0.1602
   53DPPC   GL1  627  20.497   1.097  19.605  0.0506 -0.2430  0.1038
   53DPPC   GL2  628  20.221   1.039  19.600  0.0101 -0.2204 -0.0398
   53DPPC   C1A  629  20.568   1.092  19.235 -0.2895  0.1898  0.0090
   53DPPC   C2A  630  20.533   1.030  18.837 -0.0923 -0.1884  0.1240
   53DPPC   C3A  631  20.495   1.031  18.288  0.0202  0.0748  0.0852
   53DPPC   C4A  632  20.593   1.049  17.860  0.1749  0.0038 -0.1765
   53DPPC   C1B  633  20.103   1.123  19.264  0.0613 -0.1291  0.3968
   53DPPC   C2B  634  20.083   1.191  18.817  0.1358 -0.3733 -0.0057
   53DPPC   C3B  635  20.042   1.202  18.281  0.1832 -0.2093  0.1074
   53DPPC   C4B  636  19.972   1.257  17.822 -0.0625  0.0073 -0.0246
   54DPPC   NC3  637  20.911   0.427  20.176 -0.1940 -0.0463 -0.0392
   54DPPC   PO4  638  20.729   0.651  19.892 -0.0291  0.0567 -0.3714
   54DPPC   GL1  639  20.632   0.734  19.437 -0.1983 -0.0463  0.0879
   54DPPC   GL2  640  20.682   0.427  19.459  0.0430 -0.2652  0.0472
   54DPPC   C1A  641  20.570   0.609  19.082  0.1684 -0.0379  0.2153
   54DPPC   C2A  642  20.594   0.474  18.667  0.1571 -0.0587  0.5184
   54DPPC   C3A  643  20.587   0.533  18.199  0.0755  0.0274 -0.1700
   54DPPC   C4A  644  20.558   0.557  17.700 -0.1669  0.1865 -0.3200
   54DPPC   C1B  645  20.735   0.072  19.307 -0.1647 -0.1708  0.1626
   54DPPC   C2B  646  20.621   0.069  18.916 -0.0797  0.0087 -0.1230
   54DPPC   C3B  647  20.613   0.051  18.441 -0.0514 -0.2253  0.2425
   54DPPC   C4B  648  20.663   0.009  17.933  0.0458 -0.0103 -0.0136
   55DPPC   NC3  649  17.073   5.424  20.607 -0.3422 -0.0763  0.0689
   55DPPC   PO4  650  17.260   5.134  20.453  0.3279 -0.3168 -0.1005
   55DPPC   GL1  651  17.212   5.036  20.060 -0.0739 -0.2536  0.0725
   55DPPC   GL2  652  17.413   4.801  20.175 -0.0402 -0.1033  0.0027
   55DPPC   C1A  653  17.284   5.152  19.716  0.2063 -0.2540 -0.2859
   55DPPC   C2A  654  17.341   5.060  19.331  0.1135  0.0390  0.2418
   55DPPC   C3A  655  17.354   5.108  18.843 -0.0189  0.0040 -0.0614
   55DPPC   C4A  656  17.391   5.178  18.342  0.0923  0.1013 -0.0448
   55DPPC   C1B  657  17.504   4.628  19.785 -0.2463  0.1680  0.1876
   55DPPC   C2B  658  17.480   4.578  19.403 -0.1262 -0.1153  0.0261
   55DPPC   C3B  659  17.476   4.596  18.891 -0.0276 -0.1608  0.1599
   55DPPC   C4B  660  17.509   4.672  18.395 -0.1815 -0.1421  0.0369
   56DPPC   NC3  661  20.840   1.895  20.360 -0.2747 -0.2921 -0.0722
   56DPPC   PO4  662  20.653   1.619  20.123  0.2857 -0.1670 -0.4482
   56DPPC   GL1  663  20.496   1.743  19.778 -0.0200  0.0473  0.2773
   56DPPC   GL2  664  20.642   1.519  19.700  0.5869  0.1170 -0.2651
   56DPPC   C1A  665  20.441   1.923  19.442  0.3441  0.4756 -0.2107
   56DPPC   C2A  666  20.387   2.009  19.045 -0.1237 -0.1041  0.0382
   56DPPC   C3A  667  20.378   2.005  18.628  0.2039  0.0343  0.1073
   56DPPC   C4A  668  20.329   1.984  18.117  0.0039  0.6524  0.1492
   56DPPC   C1B  669  20.929   1.459  19.429  0.3254 -0.1117 -0.2066
   56DPPC   C2B  670  20.922   1.346  19.010 -0.0587  0.0711  0.0544
   56DPPC   C3B  671  20.876   1.322  18.528  0.0967 -0.2178  0.2110
   56DPPC   C4B  672  20.957   1.344  18.094 -0.0782  0.1113  0.1721
   57DPPC   NC3  673  19.271   2.247  20.304 -0.0120  0.0469  0.1612
   57DPPC   PO4  674  19.103   2.556  20.329 -0.0733  0.1012  0.0005
   57DPPC   GL1  675  19.153   2.529  19.852 -0.1001  0.0340  0.1269
   57DPPC   GL2  676  19.275   2.260  19.829  0.1899  0.0688 -0.1170
   57DPPC   C1A  677  19.100   2.587  19.516 -0.0351  0.2300 -0.1809
   57DPPC   C2A  678  19.038   2.561  19.142  0.2803  0.1242  0.1272
   57DPPC   C3A  679  19.026   2.608  18.622  0.0474 -0.0250 -0.0083
   57DPPC   C4A  680  18.949   2.629  18.130  0.3327 -0.2044 -0.2427
   57DPPC   C1B  681  19.161   1.887  19.764  0.0577  0.3788 -0.2574
   57DPPC   C2B  682  19.212   1.659  19.410 -0.0454  0.1345 -0.1838
   57DPPC   C3B  683  19.199   1.628  18.928  0.3843  0.0610 -0.1486
   57DPPC   C4B  684  19.161   1.637  18.443  0.1089 -0.1009  0.2419
   58DPPC   NC3  685  20.018   5.279  20.687  0.0604  0.0667  0.2199
   58DPPC   PO4  686  20.247   5.141  20.407  0.0655  0.1863  0.1966
   58DPPC   GL1  687  20.185   5.202  20.009  0.1216  0.2761 -0.1147
   58DPPC   GL2  688  19.896   5.045  20.016 -0.3488  0.0284  0.0448
   58DPPC   C1A  689  20.326   5.254  19.682  0.1022  0.1613  0.3704
   58DPPC   C2A  690  20.468   5.404  19.341 -0.0680 -0.2240 -0.3799
   58DPPC   C3A  691  20.444   5.365  18.881  0.3392  0.0211  0.0638
   58DPPC   C4A  692  20.440   5.317  18.439 -0.0100  0.0160 -0.0561
   58DPPC   C1B  693  19.831   4.973  19.649  0.0380  0.0662 -0.4970
   58DPPC   C2B  694  19.961   5.024  19.259 -0.1119  0.0452  0.0074
   58DPPC   C3B  695  20.053   5.048  18.774  0.1694  0.2283 -0.1635
   58DPPC   C4B  696  20.042   5.067  18.299  0.0513 -0.0489 -0.0644
   59DPPC   NC3  697  15.498   0.812  20.857 -0.3362 -0.3375  0.1206
   59DPPC   PO4  698  15.525   0.944  20.501  0.0343  0.0174  0.2827
   59DPPC   GL1  699  15.834   0.825  20.182 -0.2216 -0.5100 -0.2036
   59DPPC   GL2  700  15.739   0.637  20.029  0.4374  0.4888  0.1975
   59DPPC   C1A  701  15.778   1.077  19.892 -0.0286 -0.0529  0.2085
   59DPPC   C2A  702  15.680   1.216  19.486 -0.1328 -0.0135  0.1954
   59DPPC   C3A  703  15.750   1.117  19.052 -0.3254 -0.2217 -0.2320
   59DPPC   C4A  704  15.679   1.074  18.548  0.0154  0.2713 -0.2357
   59DPPC   C1B  705  15.842   0.549  19.650  0.0018  0.1485  0.5357
   59DPPC   C2B  706  15.755   0.676  19.285  0.3533  0.2060 -0.0930
   59DPPC   C3B  707  15.786   0.554  18.811 -0.2067 -0.0088  0.0137
   59DPPC   C4B  708  15.780   0.527  18.326  0.0375 -0.0027 -0.1614
   60DPPC   NC3  709  17.030   6.283  20.449 -0.0688  0.1943  0.0551
   60DPPC   PO4  710  16.925   5.906  20.382  0.1680 -0.0450 -0.4508
   60DPPC   GL1  711  17.094   5.789  20.068  0.2659  0.0082  0.0173
   60DPPC   GL2  712  17.137   5.501  20.083  0.1480  0.0820 -0.2251
   60DPPC   C1A  713  16.956   5.777  19.729 -0.3063  0.1191  0.3500
   60DPPC   C2A  714  16.826   5.825  19.370  0.0616  0.1011 -0.3161
   60DPPC   C3A  715  16.841   5.781  18.843  0.3268 -0.2695  0.0658
   60DPPC   C4A  716  16.785   5.772  18.393  0.0182  0.0120 -0.0044
   60DPPC   C1B  717  16.919   5.323  19.862  0.2057 -0.0145  0.1899
   60DPPC   C2B  718  16.910   5.331  19.434 -0.1535  0.0408 -0.0643
   60DPPC   C3B  719  16.913   5.284  19.001  0.2104  0.0801 -0.1223
   60DPPC   C4B  720  16.838   5.266  18.557 -0.0007  0.1761 -0.2346
   61DPPC   NC3  721  18.794   1.110  20.438 -0.1115 -0.5359  0.1574
   61DPPC   PO4  722  18.808   0.719  20.255 -0.1068 -0.2504 -0.0151
   61DPPC   GL1  723  18.944   0.590  19.860 -0.0707  0.1507  0.1124
   61DPPC   GL2  724  18.911   0.885  19.741 -0.1248  0.0653  0.0073
   61DPPC   C1A  725  18.924   0.469  19.548 -0.2505  0.1617 -0.1518
   61DPPC   C2A  726  18.932   0.302  19.148 -0.0405 -0.1298 -0.0868
   61DPPC   C3A  727  18.880   0.255  18.615 -0.1826  0.1946  0.1127
   61DPPC   C4A  728  18.872   0.279  18.106 -0.0548 -0.2661  0.0961
   61DPPC   C1B  729  18.810   0.862  19.400 -0.0551  0.2304 -0.0929
   61DPPC   C2B  730  18.833   0.812  18.965 -0.0138 -0.1376 -0.1473
   61DPPC   C3B  731  18.746   0.841  18.496 -0.2833 -0.1483 -0.0338
   61DPPC   C4B  732  18.777   0.824  18.023  0.0423 -0.0228  0.1900
   62DPPC   NC3  733  17.984   5.266  20.998  0.0170  0.4320 -0.0202
   62DPPC   PO4  734  17.688   5.332  20.711 -0.2388 -0.0517  0.3214
   62DPPC   GL1  735  17.785   5.125  20.260 -0.0571 -0.2290 -0.0756
   62DPPC   GL2  736  17.647   5.356  20.129 -0.1487 -0.3485 -0.2977
   62DPPC   C1A  737  17.789   4.939  19.974  0.3527 -0.0679 -0.4149
   62DPPC   C2A  738  17.791   4.924  19.555 -0.0689  0.0724  0.0114
   62DPPC   C3A  739  17.765   4.923  19.090 -0.0137 -0.0544  0.0619
   62DPPC   C4A  740  17.816   4.964  18.658 -0.1612 -0.1389  0.1039
   62DPPC   C1B  741  17.701   5.344  19.734 -0.1044 -0.0515 -0.1768
   62DPPC   C2B  742  17.764   5.343  19.367  0.0288 -0.1868 -0.1506
   62DPPC   C3B  743  17.744   5.550  18.972  0.1623 -0.1258  0.0355
   62DPPC   C4B  744  17.756   5.588  18.506 -0.3030  0.2789  0.2315
   63DPPC   NC3  745  18.468   0.436  20.462  0.2962 -0.0462 -0.2420
   63DPPC   PO4  746  18.103   0.344  20.432 -0.1332  0.1339 -0.0327
   63DPPC   GL1  747  18.065   0.418  20.064 -0.1523 -0.7529 -0.1031
   63DPPC   GL2  748  17.819   0.231  20.048  0.0897 -0.1505 -0.3197
   63DPPC   C1A  749  17.990   0.633  19.815 -0.3305  0.2517 -0.0168
   63DPPC   C2A  750  17.979   0.603  19.399 -0.1941  0.0200  0.0472
   63DPPC   C3A  751  17.947   0.608  18.891  0.0299 -0.4313 -0.2785
   63DPPC   C4A  752  17.865   0.558  18.482 -0.2469  0.0193  0.0080
   63DPPC   C1B  753  17.688   0.267  19.704 -0.1920 -0.0544  0.1457
   63DPPC   C2B  754  17.556   0.335  19.325  0.2856 -0.1966  0.1587
   63DPPC   C3B  755  17.545   0.319  18.827 -0.0328 -0.1480  0.1104
   63DPPC   C4B  756  17.537   0.266  18.313 -0.0285  0.0721  0.0866
   64DPPC   NC3  757  19.389   1.722  20.187  0.2749 -0.2289 -0.0123
   64DPPC   PO4  758  19.099   1.477  20.297  0.1904  0.3817 -0.0728
   64DPPC   GL1  759  19.095   1.248  19.946  0.1277 -0.2992 -0.0356
   64DPPC   GL2  760  18.762   1.269  19.904  0.2093  0.3489  0.0675
   64DPPC   C1A  761  19.270   1.144  19.638 -0.0624 -0.3635  0.1453
   64DPPC   C2A  762  19.268   1.182  19.241 -0.0275 -0.1994 -0.2538
   64DPPC   C3A  763  19.214   1.130  18.813  0.0423  0.0632 -0.1907
   64DPPC   C4A  764  19.243   1.138  18.338  0.0372  0.0383  0.2705
   64DPPC   C1B  765  18.856   1.324  19.534  0.5424 -0.2967 -0.0584
   64DPPC   C2B  766  18.801   1.328  19.158  0.1442 -0.0169 -0.0747
   64DPPC   C3B  767  18.701   1.283  18.714  0.0043  0.1622  0.2288
   64DPPC   C4B  768  18.635   1.310  18.182  0.3920  0.2141 -0.3773
   65DPPC   NC3  769  22.357   2.850  20.069 -0.1716  0.5259  0.4387
   65DPPC   PO4  770  22.353   2.454  20.019 -0.2288  0.2488 -0.1125
   65DPPC   GL1  771  22.225   2.485  19.668 -0.3299 -0.3543  0.3714
   65DPPC   GL2  772  22.411   2.742  19.594  0.2593  0.2531 -0.0187
   65DPPC   C1A  773  22.069   2.403  19.288 -0.2859 -0.1126  0.2290
   65DPPC   C2A  774  22.005   2.370  18.876 -0.1240  0.2923 -0.0217
   65DPPC   C3A  775  22.058   2.329  18.359 -0.0453 -0.1999 -0.2995
   65DPPC   C4A  776  21.982   2.342  17.941  0.1516  0.2859  0.2368
   65DPPC   C1B  777  22.574   2.719  19.289 -0.0225  0.3443  0.2359
   65DPPC   C2B  778  22.478   2.681  18.904  0.2330  0.1760  0.1302
   65DPPC   C3B  779  22.466   2.655  18.440  0.0647  0.0438  0.1147
   65DPPC   C4B  780  22.452   2.632  17.965 -0.1990  0.0915 -0.2882
   66DPPC   NC3  781  19.885   2.932  20.584  0.0643  0.0744  0.2832
   66DPPC   PO4  782  19.747   3.302  20.475 -0.0401  0.0058  0.0363
   66DPPC   GL1  783  19.766   3.288  20.010  0.4359  0.2752 -0.0287
   66DPPC   GL2  784  19.753   3.025  20.052  0.0262 -0.2859 -0.2270
   66DPPC   C1A  785  19.858   3.349  19.655 -0.0749 -0.0644 -0.2409
   66DPPC   C2A  786  19.806   3.251  19.256  0.1358 -0.2253 -0.2219
   66DPPC   C3A  787  19.758   3.261  18.812 -0.0411 -0.1762 -0.1364
   66DPPC   C4A  788  19.785   3.301  18.314 -0.0740  0.1885 -0.1124
   66DPPC   C1B  789  19.850   2.890  19.730 -0.2696  0.4352  0.2781
   66DPPC   C2B  790  19.871   2.666  19.382  0.3452 -0.0358 -0.1984
   66DPPC   C3B  791  19.896   2.781  18.891 -0.0403 -0.1209 -0.1883
   66DPPC   C4B  792  19.839   2.732  18.408 -0.2349  0.1429 -0.1658
   67DPPC   NC3  793  23.107   3.615  20.179 -0.0487 -0.0872  0.1040
   67DPPC   PO4  794  22.707   3.695  20.211 -0.1007 -0.0311 -0.0152
   67DPPC   GL1  795  22.540   3.608  19.941  0.0683 -0.5991  0.0798
   67DPPC   GL2  796  22.303   3.731  19.795  0.1416 -0.2383  0.2171
   67DPPC   C1A  797  22.789   3.611  19.698 -0.3036 -0.0311  0.0166
   67DPPC   C2A  798  22.841   3.541  19.314  0.0211 -0.1802  0.0813
   67DPPC   C3A  799  22.824   3.499  18.825 -0.1604  0.0084  0.2552
   67DPPC   C4A  800  22.814   3.515  18.373 -0.0009  0.0172 -0.1413
   67DPPC   C1B  801  22.372   3.646  19.461  0.1114 -0.2594  0.2728
   67DPPC   C2B  802  22.369   3.597  19.079 -0.4272 -0.0775 -0.1521
   67DPPC   C3B  803  22.338   3.641  18.566  0.0798 -0.3129  0.3230
   67DPPC   C4B  804  22.366   3.608  18.084 -0.0608 -0.0022 -0.2266
   68DPPC   NC3  805  21.479   2.648  20.322  0.0992  0.1107 -0.1088
   68DPPC   PO4  806  21.151   2.426  20.358  0.2189 -0.0454  0.0124
   68DPPC   GL1  807  21.036   2.525  20.006  0.0257  0.0623 -0.1292
   68DPPC   GL2  808  21.256   2.687  19.912 -0.0316  0.2133  0.1093
   68DPPC   C1A  809  20.803   2.487  19.775 -0.3554  0.3081 -0.2833
   68DPPC   C2A  810  20.725   2.334  19.416  0.0259 -0.1399 -0.2402
   68DPPC   C3A  811  20.785   2.319  18.903  0.3756  0.1036  0.2273
   68DPPC   C4A  812  20.777   2.295  18.395  0.0918 -0.2681  0.0389
   68DPPC   C1B  813  21.182   2.808  19.524  0.2705  0.0210  0.0483
   68DPPC   C2B  814  21.122   2.678  19.158 -0.1863  0.1670  0.3601
   68DPPC   C3B  815  21.126   2.610  18.650 -0.0474 -0.0149 -0.1336
   68DPPC   C4B  816  21.084   2.634  18.207  0.1762 -0.1836  0.0157
   69DPPC   NC3  817  16.497   2.041  20.881  0.0651 -0.0665  0.0881
   69DPPC   PO4  818  16.262   2.024  20.511 -0.1099 -0.0853 -0.1674
   69DPPC   GL1  819  16.251   1.886  20.163 -0.2357 -0.4756 -0.2212
   69DPPC   GL2  820  15.955   1.987  20.157  0.2777  0.1338  0.2801
   69DPPC   C1A  821  16.452   1.715  19.920  0.1619 -0.0642  0.1752
   69DPPC   C2A  822  16.541   1.700  19.529 -0.1528  0.1024 -0.1174
   69DPPC   C3A  823  16.534   1.642  19.024 -0.1184 -0.0530  0.3428
   69DPPC   C4A  824  16.493   1.740  18.510  0.1681  0.4475 -0.0793
   69DPPC   C1B  825  16.023   1.945  19.776 -0.1834  0.1044 -0.2378
   69DPPC   C2B  826  16.059   1.866  19.406 -0.2554 -0.0934  0.1131
   69DPPC   C3B  827  16.086   1.840  18.963 -0.1457  0.0271  0.0190
   69DPPC   C4B  828  16.008   1.901  18.459 -0.1754 -0.0463 -0.0958
   70DPPC   NC3  829  20.651   2.695  20.235  0.1318  0.2724  0.0444
   70DPPC   PO4  830  20.519   2.312  20.300  0.0339 -0.0639  0.0644
   70DPPC   GL1  831  20.596   2.065  20.007 -0.2144 -0.0848 -0.0451
   70DPPC   GL2  832  20.860   2.038  19.962 -0.0884 -0.0426  0.1882
   70DPPC   C1A  833  20.348   2.223  19.767  0.0294  0.0405  0.3805
   70DPPC   C2A  834  20.036   2.245  19.450  0.0332  0.0417  0.1011
   70DPPC   C3A  835  19.957   2.265  18.946  0.0209  0.1363  0.0904
   70DPPC   C4A  836  19.941   2.224  18.456 -0.2033 -0.1693  0.1220
   70DPPC   C1B  837  20.975   1.937  19.619 -0.0821 -0.1281  0.1813
   70DPPC   C2B  838  20.871   1.867  19.234  0.0595 -0.1790  0.2034
   70DPPC   C3B  839  20.873   1.759  18.705 -0.0258 -0.0902 -0.1149
   70DPPC   C4B  840  20.771   1.830  18.259  0.4836  0.0609  0.0467
   71DPPC   NC3  841  16.447   1.577  20.479 -0.0448  0.3059  0.2379
   71DPPC   PO4  842  16.608   1.277  20.299  0.0389 -0.0576 -0.3855
   71DPPC   GL1  843  16.720   1.147  19.863  0.1234  0.0036 -0.0997
   71DPPC   GL2  844  16.622   0.960  19.994  0.0583  0.0967  0.0921
   71DPPC   C1A  845  16.616   1.227  19.503 -0.2058 -0.4076  0.0476
   71DPPC   C2A  846  16.633   1.141  19.032 -0.0329 -0.0706 -0.0884
   71DPPC   C3A  847  16.530   1.157  18.580 -0.1714  0.0090  0.4174
   71DPPC   C4A  848  16.645   1.183  18.053 -0.0781 -0.0476  0.0132
   71DPPC   C1B  849  16.660   0.671  19.772 -0.0590  0.4567 -0.0039
   71DPPC   C2B  850  16.681   0.636  19.350 -0.0733  0.3163 -0.4897
   71DPPC   C3B  851  16.620   0.594  18.895  0.0720  0.2267  0.2077
   71DPPC   C4B  852  16.555   0.637  18.400  0.2269 -0.1519 -0.0309
   72DPPC   NC3  853  21.599   1.741  20.244  0.2383  0.2517  0.0616
   72DPPC   PO4  854  21.932   1.935  20.185 -0.0529  0.0659  0.1038
   72DPPC   GL1  855  22.052   2.109  19.850  0.3249 -0.4676  0.2074
   72DPPC   GL2  856  22.370   2.018  19.881  0.0555  0.0950 -0.1122
   72DPPC   C1A  857  21.800   2.093  19.602 -0.3018  0.0973 -0.2966
   72DPPC   C2A  858  21.679   2.053  19.171  0.0588  0.0241 -0.1155
   72DPPC   C3A  859  21.712   1.992  18.680  0.2275  0.2745 -0.2872
   72DPPC   C4A  860  21.669   1.971  18.232  0.0561 -0.2028  0.0613
   72DPPC   C1B  861  22.509   2.189  19.579  0.0852 -0.2148 -0.0589
   72DPPC   C2B  862  22.537   2.228  19.187  0.0399 -0.0476 -0.2574
   72DPPC   C3B  863  22.492   2.202  18.686  0.4425 -0.0433 -0.0501
   72DPPC   C4B  864  22.513   2.180  18.185  0.0159  0.0247  0.1592
   73DPPC   NC3  865  17.577   1.042  20.477  0.1219 -0.2944 -0.2693
   73DPPC   PO4  866  17.877   1.260  20.355 -0.1118  0.3822  0.0284
   73DPPC   GL1  867  17.898   1.342  19.991 -0.2399  0.1085 -0.0758
   73DPPC   GL2  868  17.975   1.042  19.975  0.0931  0.1056 -0.4342
   73DPPC   C1A  869  17.881   1.565  19.702  0.0856  0.3236  0.1866
   73DPPC   C2A  870  17.761   1.550  19.320 -0.0083  0.0638  0.0127
   73DPPC   C3A  871  17.854   1.548  18.857  0.1224 -0.2010  0.2304
   73DPPC   C4A  872  17.759   1.573  18.319 -0.0621  0.0785  0.0591
   73DPPC   C1B  873  17.982   1.021  19.602 -0.0849  0.0716 -0.1613
   73DPPC   C2B  874  17.914   1.136  19.159 -0.1430  0.1171  0.3720
   73DPPC   C3B  875  17.896   1.062  18.736  0.0722 -0.0509 -0.0471
   73DPPC   C4B  876  17.803   1.089  18.273 -0.3786 -0.2649 -0.0477
   74DPPC   NC3  877  17.998   0.887  20.635 -0.1883 -0.0187 -0.1431
   74DPPC   PO4  878  18.252   0.875  20.339  0.1065  0.1541  0.0231
   74DPPC   GL1  879  18.402   0.942  19.991  0.0095 -0.3471 -0.0008
   74DPPC   GL2  880  18.472   0.633  19.875  0.2396 -0.1190  0.0001
   74DPPC   C1A  881  18.478   1.027  19.646  0.2571  0.0399 -0.0208
   74DPPC   C2A  882  18.418   0.983  19.246 -0.0629  0.1391  0.0935
   74DPPC   C3A  883  18.332   0.944  18.838  0.0427 -0.0032 -0.0968
   74DPPC   C4A  884  18.285   0.932  18.362 -0.1100 -0.1211  0.0870
   74DPPC   C1B  885  18.427   0.586  19.506 -0.0219 -0.0116 -0.3562
   74DPPC   C2B  886  18.406   0.487  19.113  0.3422  0.1150  0.2065
   74DPPC   C3B  887  18.381   0.445  18.640 -0.0952 -0.2094  0.0067
   74DPPC   C4B  888  18.392   0.499  18.183  0.0871  0.0755 -0.0952
   75DPPC   NC3  889  18.004   5.544  20.358  0.1551 -0.2142 -0.0955
   75DPPC   PO4  890  18.164   5.222  20.484 -0.4253  0.1989 -0.1537
   75DPPC   GL1  891  18.225   5.075  20.070 -0.2347 -0.2118 -0.1116
   75DPPC   GL2  892  18.508   5.266  20.078  0.0175 -0.4528 -0.0278
   75DPPC   C1A  893  18.161   5.090  19.701  0.0612  0.2411  0.1611
   75DPPC   C2A  894  18.214   5.165  19.281  0.0510 -0.1503  0.0729
   75DPPC   C3A  895  18.182   5.250  18.821 -0.0669  0.0734  0.0775
   75DPPC   C4A  896  18.217   5.220  18.339 -0.1039 -0.0217  0.1819
   75DPPC   C1B  897  18.525   5.382  19.739 -0.1560 -0.1562  0.0021
   75DPPC   C2B  898  18.648   5.512  19.360 -0.0008  0.2362  0.2505
   75DPPC   C3B  899  18.649   5.548  18.844  0.0203  0.0890 -0.0081
   75DPPC   C4B  900  18.634   5.560  18.345 -0.0743 -0.1854  0.3416
   76DPPS   CNO  901  16.417   3.466  20.790 -0.4259 -0.2167  0.0092
   76DPPS   PO4  902  16.302   3.144  20.895  0.0360  0.2044  0.0937
   76DPPS   GL1  903  16.317   2.938  20.537 -0.1660  0.2364  0.0089
   76DPPS   GL2  904  16.241   3.190  20.353  0.0491  0.2161 -0.1934
   76DPPS   C1A  905  16.460   2.779  20.181  0.0096  0.4786  0.0997
   76DPPS   C2A  906  16.474   2.678  19.750 -0.1247 -0.3034  0.1536
   76DPPS   C3A  907  16.439   2.705  19.256  0.1347  0.0967 -0.0681
   76DPPS   C4A  908  16.404   2.710  18.812  0.2089  0.3060 -0.0008
   76DPPS   C1B  909  16.313   3.200  19.977  0.1986  0.1276 -0.5255
   76DPPS   C2B  910  16.355   3.180  19.582 -0.1179  0.1011  0.0663
   76DPPS   C3B  911  16.319   3.196  19.120  0.1709 -0.0820  0.0432
   76DPPS   C4B  912  16.319   3.164  18.640 -0.0265 -0.0711  0.0060
   77DPPS   CNO  913  16.565   6.574  20.602  0.1002  0.0151  0.0340
   77DPPS   PO4  914  16.357   6.792  20.347 -0.3492  0.0160  0.2327
   77DPPS   GL1  915  16.498   6.663  19.993 -0.3608  0.2447 -0.1952
   77DPPS   GL2  916  16.574   6.892  19.882 -0.0545  0.0809 -0.1217
   77DPPS   C1A  917  16.440   6.388  19.786 -0.0509 -0.1518 -0.2965
   77DPPS   C2A  918  16.428   6.062  19.502 -0.1498  0.0290 -0.0459
   77DPPS   C3A  919  16.372   5.976  19.030  0.0334 -0.0709 -0.1628
   77DPPS   C4A  920  16.305   5.955  18.559  0.2212  0.0428 -0.0230
   77DPPS   C1B  921  16.655   6.744  19.578  0.0209 -0.0353 -0.1675
   77DPPS   C2B  922  16.673   6.764  19.165  0.1954  0.0357 -0.0302
   77DPPS   C3B  923  16.729   6.773  18.692 -0.1200 -0.2043  0.1932
   77DPPS   C4B  924  16.666   6.730  18.258 -0.1081  0.1026 -0.0933
   78DPPS   CNO  925  16.631   5.634  20.814  0.0590  0.3328  0.2608
   78DPPS   PO4  926  16.296   5.677  20.592 -0.1342  0.2684 -0.1178
   78DPPS   GL1  927  16.508   5.842  20.234  0.0471  0.4587  0.0714
   78DPPS   GL2  928  16.223   5.683  20.079  0.2431  0.0028 -0.0858
   78DPPS   C1A  929  16.574   5.856  19.873  0.0545 -0.0634 -0.0639
   78DPPS   C2A  930  16.496   5.574  19.637  0.1243  0.1184  0.0985
   78DPPS   C3A  931  16.509   5.486  19.166  0.2258  0.2270 -0.3727
   78DPPS   C4A  932  16.426   5.471  18.735  0.3242  0.0933  0.0392
   78DPPS   C1B  933  16.117   5.809  19.748 -0.2310  0.2602 -0.0725
   78DPPS   C2B  934  16.060   5.737  19.367  0.0503  0.0012  0.1308
   78DPPS   C3B  935  15.959   5.716  18.846  0.2254 -0.1349  0.0913
   78DPPS   C4B  936  15.928   5.688  18.385 -0.1368  0.0097  0.0471
   79DPPS   CNO  937  16.486   3.963  20.650 -0.2795  0.0147  0.0603
   79DPPS   PO4  938  16.248   4.098  20.358  0.0111 -0.0258 -0.1433
   79DPPS   GL1  939  16.320   4.320  20.032 -0.0431 -0.0754 -0.1264
   79DPPS   GL2  940  16.388   4.600  20.076 -0.0210  0.2261  0.1571
   79DPPS   C1A  941  16.298   4.196  19.670  0.1555 -0.2436 -0.4541
   79DPPS   C2A  942  16.169   4.173  19.306 -0.1981  0.0535 -0.0657
   79DPPS   C3A  943  16.181   4.189  18.813 -0.0304  0.0276 -0.0340
   79DPPS   C4A  944  16.178   4.146  18.366  0.4557 -0.1573  0.0721
   79DPPS   C1B  945  16.477   4.656  19.724  0.2180  0.0371  0.0123
   79DPPS   C2B  946  16.598   4.489  19.409 -0.0281 -0.0280  0.0727
   79DPPS   C3B  947  16.602   4.508  18.906 -0.2399 -0.1739  0.4174
   79DPPS   C4B  948  16.597   4.413  18.431  0.1579  0.3267 -0.3746
   80DPPS   CNO  949  19.357   3.742  20.157  0.3147  0.0202 -0.0194
   80DPPS   PO4  950  19.668   3.841  20.370 -0.0025  0.2491 -0.3153
   80DPPS   GL1  951  19.973   3.884  20.009  0.1211 -0.2623 -0.0920
   80DPPS   GL2  952  19.779   3.700  19.925 -0.0474 -0.1228 -0.0230
   80DPPS   C1A  953  20.031   3.895  19.651 -0.1230 -0.2524  0.0406
   80DPPS   C2A  954  20.135   3.966  19.307  0.1158 -0.0394 -0.1273
   80DPPS   C3A  955  20.137   4.047  18.845  0.0318  0.5443  0.0459
   80DPPS   C4A  956  20.061   4.055  18.411  0.0995  0.1387  0.1447
   80DPPS   C1B  957  19.655   3.779  19.536 -0.1597 -0.1248  0.0464
   80DPPS   C2B  958  19.652   3.731  19.126  0.1281 -0.1847  0.2006
   80DPPS   C3B  959  19.670   3.751  18.649 -0.0545  0.0499 -0.2296
   80DPPS   C4B  960  19.732   3.799  18.157 -0.2473 -0.1940 -0.1077
   81DPPS   CNO  961  17.457   0.087  20.874 -0.0013  0.0552 -0.0463
   81DPPS   PO4  962  17.280   0.120  20.551  0.0218 -0.0905  0.1494
   81DPPS   GL1  963  17.474   0.337  20.275 -0.0254 -0.3333 -0.0778
   81DPPS   GL2  964  17.290   0.094  20.121 -0.0400  0.4241 -0.0363
   81DPPS   C1A  965  17.419   0.570  19.950 -0.0405 -0.2626 -0.0943
   81DPPS   C2A  966  17.552   0.765  19.604  0.0083 -0.0021  0.0041
   81DPPS   C3A  967  17.542   0.797  19.146  0.0693  0.2120  0.0305
   81DPPS   C4A  968  17.437   0.776  18.636 -0.2034  0.0383  0.1778
   81DPPS   C1B  969  17.245   0.077  19.728 -0.2452  0.2401  0.0579
   81DPPS   C2B  970  17.112  -0.007  19.347  0.3470 -0.2671 -0.2515
   81DPPS   C3B  971  17.177  -0.036  18.897 -0.0901 -0.0250 -0.2442
   81DPPS   C4B  972  17.099  -0.010  18.391  0.1308 -0.0359 -0.2812
   82DPPS   CNO  973  19.375   2.891  20.671  0.2353  0.0227 -0.1370
   82DPPS   PO4  974  19.369   3.017  20.329  0.1401  0.0203 -0.1762
   82DPPS   GL1  975  19.116   3.288  20.052 -0.2056  0.1101 -0.1971
   82DPPS   GL2  976  19.170   3.060  19.844 -0.0089  0.3224  0.0525
   82DPPS   C1A  977  18.879   3.419  19.764 -0.0550 -0.1838 -0.2217
   82DPPS   C2A  978  18.891   3.551  19.368 -0.0442  0.0273  0.1278
   82DPPS   C3A  979  18.901   3.590  18.875  0.0077  0.0649 -0.1413
   82DPPS   C4A  980  18.841   3.579  18.379 -0.0458  0.0689  0.0336
   82DPPS   C1B  981  18.948   3.003  19.535 -0.2221  0.4891  0.0315
   82DPPS   C2B  982  18.974   3.099  19.142  0.2727  0.1409  0.1760
   82DPPS   C3B  983  18.886   3.137  18.589 -0.0296 -0.2684 -0.4354
   82DPPS   C4B  984  18.891   3.153  18.068 -0.1952  0.0045  0.3241
   83DPPS   CNO  985  21.635   5.834  20.596  0.1457  0.1530 -0.0866
   83DPPS   PO4  986  21.883   5.869  20.361 -0.0704  0.0772 -0.0562
   83DPPS   GL1  987  21.847   5.790  19.966  0.0846  0.3669 -0.0876
   83DPPS   GL2  988  21.659   5.977  19.914 -0.0365 -0.5340 -0.0506
   83DPPS   C1A  989  21.716   5.538  19.708  0.5418  0.0824 -0.7056
   83DPPS   C2A  990  21.718   5.258  19.354 -0.2369 -0.0840 -0.3150
   83DPPS   C3A  991  21.772   5.244  18.899  0.4020 -0.3271 -0.1339
   83DPPS   C4A  992  21.775   5.265  18.373 -0.0581  0.1573 -0.3314
   83DPPS   C1B  993  21.638   5.956  19.532 -0.0208  0.3273  0.0560
   83DPPS   C2B  994  21.642   5.903  19.144 -0.1942  0.1093 -0.0084
   83DPPS   C3B  995  21.736   5.757  18.669  0.1410 -0.0292 -0.0292
   83DPPS   C4B  996  21.705   5.741  18.196  0.1348  0.0347 -0.4297
   84DPPS   CNO  997  21.166   3.070  20.761  0.1408  0.1800 -0.0546
   84DPPS   PO4  998  21.461   3.144  20.488  0.1927 -0.2438  0.2582
   84DPPS   GL1  999  21.443   3.306  20.084  0.2400  0.0920 -0.1758
   84DPPS   GL2 1000  21.494   3.035  20.016 -0.1292  0.0612  0.2420
   84DPPS   C1A 1001  21.454   3.425  19.736 -0.3276  0.0435 -0.3391
   84DPPS   C2A 1002  21.458   3.490  19.355 -0.1634 -0.0127 -0.3894
   84DPPS   C3A 1003  21.506   3.510  18.905 -0.1286  0.0542  0.1109
   84DPPS   C4A 1004  21.421   3.377  18.400 -0.0045 -0.0128  0.3607
   84DPPS   C1B 1005  21.552   2.999  19.696  0.0710 -0.0283  0.2218
   84DPPS   C2B 1006  21.535   2.983  19.276 -0.0775 -0.0444  0.1960
   84DPPS   C3B 1007  21.613   3.041  18.819  0.1489 -0.0036 -0.1716
   84DPPS   C4B 1008  21.469   2.917  18.327 -0.0581 -0.2126 -0.1483
   85DPPS   CNO 1009  19.486   1.239  20.158  0.1741 -0.1187  0.3954
   85DPPS   PO4 1010  19.740   0.964  20.263  0.0918  0.1294 -0.1502
   85DPPS   GL1 1011  19.808   1.079  19.760 -0.1876  0.0282 -0.1046
   85DPPS   GL2 1012  19.795   0.784  19.909 -0.0319  0.2237 -0.2447
   85DPPS   C1A 1013  19.717   0.950  19.437 -0.3520 -0.1041  0.3389
   85DPPS   C2A 1014  19.655   0.923  19.026  0.0949  0.2880  0.1660
   85DPPS   C3A 1015  19.626   0.889  18.568 -0.2559 -0.0252  0.0932
   85DPPS   C4A 1016  19.636   0.913  18.132 -0.5482  0.0276 -0.2055
   85DPPS   C1B 1017  19.534   0.631  19.624 -0.0397  0.1076  0.1009
   85DPPS   C2B 1018  19.294   0.598  19.286 -0.0344 -0.0701  0.1956
   85DPPS   C3B 1019  19.227   0.606  18.788 -0.0365 -0.1488  0.4458
   85DPPS   C4B 1020  19.319   0.576  18.304 -0.2320 -0.0926 -0.0681
   86DPPS   CNO 1021  19.923   1.357  20.534  0.1343 -0.0671 -0.3653
   86DPPS   PO4 1022  19.853   1.605  20.309  0.1283 -0.2064 -0.0434
   86DPPS   GL1 1023  19.732   1.512  19.879 -0.0167  0.0574  0.3210
   86DPPS   GL2 1024  19.669   1.754  19.843 -0.3906  0.0007 -0.0208
   86DPPS   C1A 1025  19.773   1.404  19.548 -0.1881 -0.2456 -0.0637
   86DPPS   C2A 1026  19.645   1.412  19.150  0.0562  0.1331  0.0596
   86DPPS   C3A 1027  19.643   1.368  18.639  0.2179 -0.1997 -0.0320
   86DPPS   C4A 1028  19.580   1.418  18.119 -0.0202 -0.1046 -0.0428
   86DPPS   C1B 1029  19.625   1.920  19.563 -0.2809 -0.1232  0.3423
   86DPPS   C2B 1030  19.587   1.937  19.177  0.1065 -0.0323  0.0515
   86DPPS   C3B 1031  19.541   1.934  18.655  0.0483  0.2630  0.1768
   86DPPS   C4B 1032  19.540   1.942  18.179 -0.1861 -0.0374  0.3192
   87DPPS   CNO 1033  17.432   3.017  20.510 -0.1968 -0.0145 -0.1740
   87DPPS   PO4 1034  17.561   2.757  20.251  0.1697 -0.1391  0.0973
   87DPPS   GL1 1035  17.499   2.746  19.879 -0.0855 -0.0052 -0.1684
   87DPPS   GL2 1036  17.733   2.637  19.808 -0.0621  0.0117  0.0648
   87DPPS   C1A 1037  17.268   2.832  19.611 -0.1707  0.1536 -0.1640
   87DPPS   C2A 1038  17.239   2.877  19.163  0.0923  0.1421  0.0191
   87DPPS   C3A 1039  17.289   2.804  18.722  0.0484  0.2462  0.0548
   87DPPS   C4A 1040  17.152   2.742  18.211  0.3585 -0.0544 -0.1032
   87DPPS   C1B 1041  17.664   2.641  19.444  0.2526  0.0279  0.2518
   87DPPS   C2B 1042  17.681   2.675  19.008  0.2367 -0.2144  0.1155
   87DPPS   C3B 1043  17.687   2.578  18.506  0.1078  0.1966 -0.1749
   87DPPS   C4B 1044  17.708   2.491  18.018 -0.1675  0.2745 -0.0624
   88DPPS   CNO 1045  16.591   4.481  20.556  0.0880  0.1354 -0.2527
   88DPPS   PO4 1046  16.742   4.295  20.239 -0.1084 -0.0444  0.1120
   88DPPS   GL1 1047  16.686   4.303  19.791  0.0715  0.2433  0.2023
   88DPPS   GL2 1048  16.860   4.572  19.781 -0.0151 -0.1077 -0.1400
   88DPPS   C1A 1049  16.720   4.037  19.502  0.3194  0.1561 -0.1902
   88DPPS   C2A 1050  16.660   3.982  19.035  0.3765 -0.0923  0.2006
   88DPPS   C3A 1051  16.569   3.941  18.593 -0.0465 -0.0077  0.0243
   88DPPS   C4A 1052  16.561   4.007  18.087 -0.1251  0.2168  0.0958
   88DPPS   C1B 1053  16.919   4.844  19.537  0.0857  0.4115 -0.0918
   88DPPS   C2B 1054  17.015   4.773  19.119 -0.2147  0.1529 -0.0776
   88DPPS   C3B 1055  17.000   4.818  18.597 -0.1268 -0.2039 -0.1557
   88DPPS   C4B 1056  17.050   4.808  18.088 -0.2280  0.0892  0.0346
   89DPPS   CNO 1057  18.929   1.484  20.790  0.0061  0.0322 -0.1469
   89DPPS   PO4 1058  18.680   1.645  20.585  0.2539 -0.1098 -0.0731
   89DPPS   GL1 1059  18.576   1.616  20.127 -0.0023 -0.2046 -0.3314
   89DPPS   GL2 1060  18.396   1.375  20.167 -0.0914 -0.3998  0.2483
   89DPPS   C1A 1061  18.726   1.728  19.814  0.0015 -0.0210  0.1152
   89DPPS   C2A 1062  18.680   1.786  19.431 -0.1574  0.0282  0.0033
   89DPPS   C3A 1063  18.677   1.792  18.970  0.0672 -0.2328 -0.0152
   89DPPS   C4A 1064  18.624   1.718  18.501 -0.1576 -0.0251  0.1040
   89DPPS   C1B 1065  18.364   1.451  19.829  0.3494 -0.0765  0.1109
   89DPPS   C2B 1066  18.291   1.402  19.457  0.1095  0.0080 -0.1395
   89DPPS   C3B 1067  18.324   1.452  18.985  0.1034  0.0986 -0.2296
   89DPPS   C4B 1068  18.216   1.385  18.547  0.0236 -0.1094  0.5099
   90DPPS   CNO 1069  15.871   3.394  20.913  0.1351  0.0473  0.0940
   90DPPS   PO4 1070  15.612   3.559  20.741  0.1716 -0.2956  0.0031
   90DPPS   GL1 1071  15.656   3.347  20.333 -0.0191 -0.5307  0.2124
   90DPPS   GL2 1072  15.693   3.550  20.147 -0.2551  0.0614  0.3186
   90DPPS   C1A 1073  15.816   3.185  20.043  0.1259  0.1251  0.0834
   90DPPS   C2A 1074  15.939   3.335  19.705 -0.2387  0.3393  0.0737
   90DPPS   C3A 1075  15.893   3.360  19.151 -0.2176 -0.1835 -0.1828
   90DPPS   C4A 1076  15.818   3.373  18.654 -0.1087 -0.3758  0.0053
   90DPPS   C1B 1077  15.571   3.518  19.804 -0.2369 -0.1220  0.0678
   90DPPS   C2B 1078  15.521   3.528  19.418 -0.0623 -0.1121  0.0335
   90DPPS   C3B 1079  15.427   3.500  18.943 -0.1176 -0.3018 -0.0266
   90DPPS   C4B 1080  15.357   3.563  18.500 -0.1142  0.4174  0.2674
   91DPPS   CNO 1081  18.126   3.640  20.526 -0.0658 -0.0070 -0.1351
   91DPPS   PO4 1082  18.186   3.434  20.189 -0.0930  0.1369 -0.0398
   91DPPS   GL1 1083  18.089   3.507  19.784 -0.2029 -0.2102 -0.1779
   91DPPS   GL2 1084  17.814   3.651  19.855 -0.5361  0.0103  0.2404
   91DPPS   C1A 1085  18.034   3.357  19.416  0.0975 -0.0403 -0.1491
   91DPPS   C2A 1086  18.068   3.388  18.987  0.0976 -0.0416 -0.4871
   91DPPS   C3A 1087  17.973   3.394  18.564 -0.2851  0.1903 -0.0342
   91DPPS   C4A 1088  17.984   3.316  18.049 -0.3151  0.0840 -0.0259
   91DPPS   C1B 1089  17.689   3.606  19.537  0.2783 -0.0965 -0.0700
   91DPPS   C2B 1090  17.597   3.602  19.147 -0.0680 -0.1330 -0.1346
   91DPPS   C3B 1091  17.545   3.605  18.691  0.0747  0.1323  0.2181
   91DPPS   C4B 1092  17.567   3.584  18.150  0.2627  0.0899 -0.0542
   92DPPS   CNO 1093  20.314   3.219  20.603  0.2777  0.1320 -0.0106
   92DPPS   PO4 1094  20.659   3.126  20.462 -0.1058  0.0809 -0.1542
   92DPPS   GL1 1095  20.688   3.141  20.047 -0.0215  0.2957 -0.3239
   92DPPS   GL2 1096  20.711   3.405  20.008 -0.0666  0.2950  0.1535
   92DPPS   C1A 1097  20.828   2.892  19.792  0.0858 -0.1606  0.0249
   92DPPS   C2A 1098  20.698   2.856  19.408  0.0543 -0.0396  0.0669
   92DPPS   C3A 1099  20.691   2.859  18.878  0.0034 -0.1689 -0.2066
   92DPPS   C4A 1100  20.606   2.819  18.378  0.2073 -0.1149  0.1608
   92DPPS   C1B 1101  20.656   3.389  19.640 -0.1597 -0.3448 -0.0983
   92DPPS   C2B 1102  20.656   3.350  19.221 -0.2254 -0.2104  0.1372
   92DPPS   C3B 1103  20.626   3.338  18.747 -0.2928 -0.0719  0.1863
   92DPPS   C4B 1104  20.707   3.406  18.268 -0.0194  0.6247 -0.0011
   93DPPS   CNO 1105  20.070   2.549  20.086  0.0835  0.3243 -0.0928
   93DPPS   PO4 1106  20.240   2.878  20.209  0.0092  0.0179  0.0948
   93DPPS   GL1 1107  20.325   3.030  19.844  0.5618 -0.1356  0.2029
   93DPPS   GL2 1108  20.396   2.741  19.781  0.2183  0.1270 -0.3197
   93DPPS   C1A 1109  20.197   3.022  19.496  0.4392 -0.0928 -0.1168
   93DPPS   C2A 1110  20.261   3.084  19.114  0.0171 -0.1023  0.0177
   93DPPS   C3A 1111  20.263   3.084  18.637  0.0615  0.0625  0.0672
   93DPPS   C4A 1112  20.177   3.002  18.136  0.0741 -0.0049 -0.1640
   93DPPS   C1B 1113  20.341   2.564  19.446 -0.2340  0.3179 -0.1486
   93DPPS   C2B 1114  20.339   2.512  19.075 -0.0960  0.1719 -0.3814
   93DPPS   C3B 1115  20.292   2.514  18.586 -0.3292  0.2235  0.1240
   93DPPS   C4B 1116  20.310   2.491  18.100  0.1568  0.0278 -0.1783
   94DPPS   CNO 1117  16.304   5.198  20.693 -0.2619  0.1505  0.1547
   94DPPS   PO4 1118  16.400   4.999  20.401  0.0021  0.2952 -0.1297
   94DPPS   GL1 1119  16.340   5.215  20.036  0.1859 -0.1526 -0.3028
   94DPPS   GL2 1120  16.560   5.058  19.922  0.1748  0.3197  0.4492
   94DPPS   C1A 1121  16.102   5.307  19.754  0.0389  0.2096 -0.0129
   94DPPS   C2A 1122  16.116   5.236  19.347 -0.0697 -0.2128  0.2210
   94DPPS   C3A 1123  16.022   5.174  18.926 -0.1374  0.1588  0.0447
   94DPPS   C4A 1124  16.052   5.167  18.460 -0.1932  0.0756 -0.2799
   94DPPS   C1B 1125  16.520   5.073  19.532 -0.0636  0.1311 -0.2478
   94DPPS   C2B 1126  16.577   4.930  19.203 -0.0927 -0.1523  0.0962
   94DPPS   C3B 1127  16.548   4.967  18.754 -0.0980 -0.1635  0.1253
   94DPPS   C4B 1128  16.558   4.927  18.315  0.2329 -0.4184 -0.0983
   95DPPS   CNO 1129  21.071   1.369  20.533  0.0897 -0.1914 -0.0486
   95DPPS   PO4 1130  21.360   1.294  20.241 -0.3704 -0.1623  0.0708
   95DPPS   GL1 1131  21.342   1.453  19.916  0.0643 -0.3320  0.3769
   95DPPS   GL2 1132  21.195   1.704  20.085 -0.1005  0.2397  0.1714
   95DPPS   C1A 1133  21.364   1.340  19.568  0.3893  0.0875 -0.2828
   95DPPS   C2A 1134  21.371   1.232  19.168  0.0208 -0.0690 -0.1227
   95DPPS   C3A 1135  21.358   1.221  18.713  0.1201 -0.1059  0.1064
   95DPPS   C4A 1136  21.411   1.223  18.231  0.0148  0.2179  0.0564
   95DPPS   C1B 1137  21.278   2.007  19.897 -0.1025  0.1859 -0.3094
   95DPPS   C2B 1138  21.336   2.182  19.525 -0.0154  0.0581 -0.1425
   95DPPS   C3B 1139  21.218   2.195  19.090 -0.0088  0.0214  0.0274
   95DPPS   C4B 1140  21.212   2.106  18.564 -0.0190  0.0762  0.0111
   96DPPS   CNO 1141  17.931   4.380  20.716  0.1805  0.0369  0.0518
   96DPPS   PO4 1142  18.087   4.166  20.417  0.1058 -0.2685  0.0197
   96DPPS   GL1 1143  18.126   4.290  20.047  0.0286  0.6037  0.4711
   96DPPS   GL2 1144  18.100   4.002  20.000  0.5072  0.1159  0.0990
   96DPPS   C1A 1145  18.088   4.582  19.830 -0.2284  0.1975  0.2702
   96DPPS   C2A 1146  18.239   4.672  19.437 -0.4377  0.1125 -0.1003
   96DPPS   C3A 1147  18.214   4.771  18.946  0.1397 -0.0245 -0.0195
   96DPPS   C4A 1148  18.284   4.743  18.455 -0.0733  0.1367  0.4458
   96DPPS   C1B 1149  18.037   3.993  19.638  0.0608 -0.1090  0.0071
   96DPPS   C2B 1150  17.972   3.841  19.265  0.0710  0.0187 -0.1896
   96DPPS   C3B 1151  17.937   3.939  18.879  0.1958  0.4390 -0.3418
   96DPPS   C4B 1152  17.916   3.939  18.376  0.5196  0.1217 -0.1262
   97DPPS   CNO 1153  16.992   1.111  20.631  0.0979  0.0720 -0.3414
   97DPPS   PO4 1154  17.184   0.778  20.473  0.2208  0.2161  0.1695
   97DPPS   GL1 1155  17.060   0.874  20.160 -0.1519 -0.1454  0.0802
   97DPPS   GL2 1156  17.175   1.163  20.133 -0.0667 -0.0937 -0.0904
   97DPPS   C1A 1157  17.070   0.897  19.763  0.0393  0.0490  0.2567
   97DPPS   C2A 1158  17.052   0.947  19.341  0.2715 -0.3001 -0.0214
   97DPPS   C3A 1159  17.028   0.895  18.825 -0.0340 -0.3237 -0.1814
   97DPPS   C4A 1160  16.963   0.971  18.338 -0.1515  0.1588  0.1300
   97DPPS   C1B 1161  17.418   1.118  19.829 -0.1411  0.0401 -0.0115
   97DPPS   C2B 1162  17.436   1.203  19.424  0.2120 -0.1328 -0.1754
   97DPPS   C3B 1163  17.441   1.267  19.023  0.0088 -0.0176  0.0065
   97DPPS   C4B 1164  17.420   1.265  18.537 -0.2466  0.2770 -0.2209
   98DPPS   CNO 1165  22.102   0.577  20.446  0.0253 -0.2720  0.0738
   98DPPS   PO4 1166  21.781   0.471  20.270 -0.1525 -0.1395 -0.1287
   98DPPS   GL1 1167  21.761   0.538  19.817  0.0191  0.3642 -0.1885
   98DPPS   GL2 1168  21.870   0.262  19.715 -0.2920  0.2122  0.0468
   98DPPS   C1A 1169  21.609   0.640  19.491 -0.2100  0.1646  0.5026
   98DPPS   C2A 1170  21.461   0.759  19.095 -0.0185 -0.1957 -0.1221
   98DPPS   C3A 1171  21.444   0.713  18.655  0.4524 -0.1235  0.0232
   98DPPS   C4A 1172  21.479   0.740  18.176  0.3971 -0.2531  0.1006
   98DPPS   C1B 1173  22.162   0.262  19.507  0.0351 -0.1540 -0.0667
   98DPPS   C2B 1174  22.368  -0.004  19.253  0.1337  0.1472  0.2024
   98DPPS   C3B 1175  22.399  -0.191  18.839  0.2146  0.1991 -0.1236
   98DPPS   C4B 1176  22.499  -0.168  18.355 -0.2412  0.0005  0.3772
   99DPPS   CNO 1177  20.989   5.002  20.313 -0.1247  0.4004  0.0901
   99DPPS   PO4 1178  21.327   4.862  20.259 -0.1778 -0.0281  0.1662
   99DPPS   GL1 1179  21.147   4.983  19.869  0.0223 -0.3167 -0.2538
   99DPPS   GL2 1180  20.976   4.816  19.914  0.0686  0.4214  0.2443
   99DPPS   C1A 1181  21.315   4.878  19.504  0.0210 -0.0669  0.1847
   99DPPS   C2A 1182  21.372   4.942  19.036 -0.0714  0.1792  0.1939
   99DPPS   C3A 1183  21.388   4.924  18.584 -0.0628 -0.0895  0.2084
   99DPPS   C4A 1184  21.365   5.001  18.082  0.0548 -0.2741 -0.2187
   99DPPS   C1B 1185  20.904   4.678  19.613  0.0924  0.1698 -0.1839
   99DPPS   C2B 1186  21.011   4.691  19.238  0.2850 -0.1215 -0.3300
   99DPPS   C3B 1187  21.011   4.639  18.745 -0.2043 -0.2931 -0.2360
   99DPPS   C4B 1188  20.910   4.675  18.305  0.0045 -0.3325 -0.1456
  100DPPS   CNO 1189  16.833   0.680  20.903 -0.3635  0.0682 -0.1873
  100DPPS   PO4 1190  16.891   0.373  20.709  0.2505 -0.0864 -0.1674
  100DPPS   GL1 1191  16.965   0.376  20.317  0.0112 -0.0672 -0.3985
  100DPPS   GL2 1192  16.890   0.102  20.296 -0.0130 -0.1808 -0.1037
  100DPPS   C1A 1193  17.018   0.490  20.016  0.2583 -0.0639 -0.1738
  100DPPS   C2A 1194  17.083   0.476  19.601 -0.1323 -0.1955  0.2097
  100DPPS   C3A 1195  17.081   0.427  19.106 -0.0655  0.0083  0.1245
  100DPPS   C4A 1196  17.107   0.441  18.624  0.2390 -0.1125  0.0347
  100DPPS   C1B 1197  16.872  -0.117  19.945  0.0339 -0.0606  0.2902
  100DPPS   C2B 1198  16.852  -0.328  19.608 -0.1480  0.5358 -0.2227
  100DPPS   C3B 1199  16.798  -0.340  19.157  0.2217 -0.0453  0.1237
  100DPPS   C4B 1200  16.762  -0.366  18.652 -0.1364  0.1752 -0.1880
  101DPPC   NC3 1201  17.505   5.777  15.950  0.2595 -0.0633 -0.0712
  101DPPC   PO4 1202  17.698   5.469  16.044  0.1144  0.1164 -0.0605
  101DPPC   GL1 1203  17.915   5.585  16.355  0.0295  0.0758  0.1247
  101DPPC   GL2 1204  18.185   5.584  16.272 -0.1210 -0.2786 -0.3114
  101DPPC   C1A 1205  17.766   5.542  16.681 -0.3170 -0.6105 -0.1521
  101DPPC   C2A 1206  17.771   5.519  17.116  0.2555 -0.4081 -0.0040
  101DPPC   C3A 1207  17.799   5.500  17.526 -0.1533 -0.0019 -0.0342
  101DPPC   C4A 1208  17.798   5.485  18.008  0.3978  0.1002  0.0776
  101DPPC   C1B 1209  18.264   5.416  16.528  0.1672  0.1718  0.3429
  101DPPC   C2B 1210  18.205   5.296  16.880  0.3286  0.1202 -0.1603
  101DPPC   C3B 1211  18.271   5.249  17.364  0.1531  0.1625  0.0623
  101DPPC   C4B 1212  18.250   5.353  17.831 -0.0303  0.0797 -0.3593
  102DPPC   NC3 1213  18.837   4.840  15.408 -0.1773 -0.0857 -0.1221
  102DPPC   PO4 1214  18.513   4.757  15.599  0.1342  0.1474 -0.2692
  102DPPC   GL1 1215  18.358   4.797  16.058 -0.1571  0.0880  0.1884
  102DPPC   GL2 1216  18.123   4.745  16.073  0.0975 -0.0332 -0.4378
  102DPPC   C1A 1217  18.569   4.658  16.313  0.0113 -0.0181  0.0743
  102DPPC   C2A 1218  18.767   4.598  16.717 -0.0468 -0.5200 -0.0927
  102DPPC   C3A 1219  18.765   4.542  17.230 -0.1636 -0.0361 -0.1848
  102DPPC   C4A 1220  18.704   4.552  17.699  0.0015 -0.1880  0.0151
  102DPPC   C1B 1221  18.007   4.619  16.381  0.1794 -0.1688 -0.0937
  102DPPC   C2B 1222  17.959   4.415  16.757  0.3880  0.0664 -0.1069
  102DPPC   C3B 1223  17.909   4.461  17.213  0.0550  0.0867  0.2680
  102DPPC   C4B 1224  17.963   4.373  17.688  0.2782 -0.1208 -0.3233
  103DPPC   NC3 1225  18.800   0.525  15.631 -0.0499  0.0842 -0.0759
  103DPPC   PO4 1226  19.152   0.699  15.711 -0.1052 -0.2037 -0.1337
  103DPPC   GL1 1227  19.251   0.800  16.069  0.0040  0.4125  0.1505
  103DPPC   GL2 1228  19.385   0.548  16.081  0.1550  0.1664  0.5176
  103DPPC   C1A 1229  19.188   1.012  16.417  0.0516 -0.0002 -0.1032
  103DPPC   C2A 1230  19.222   1.032  16.830  0.0571 -0.0802 -0.1626
  103DPPC   C3A 1231  19.187   1.108  17.325  0.0853  0.1049 -0.1723
  103DPPC   C4A 1232  19.186   1.101  17.848  0.0453  0.1284 -0.0041
  103DPPC   C1B 1233  19.281   0.608  16.454 -0.0401  0.0494  0.1812
  103DPPC   C2B 1234  19.274   0.555  16.838  0.2481  0.2571 -0.1534
  103DPPC   C3B 1235  19.256   0.555  17.400 -0.1612  0.1152  0.1360
  103DPPC   C4B 1236  19.265   0.583  17.819 -0.1928 -0.1342  0.3258
  104DPPC   NC3 1237  21.503   1.602  15.650 -0.2996  0.1912 -0.0388
  104DPPC   PO4 1238  21.619   1.891  15.420  0.0172 -0.2449  0.1754
  104DPPC   GL1 1239  21.769   2.005  15.787 -0.1327  0.0182 -0.1904
  104DPPC   GL2 1240  21.587   1.845  16.010 -0.1717  0.4004  0.0918
  104DPPC   C1A 1241  21.916   2.100  16.091  0.0836  0.2285  0.1882
  104DPPC   C2A 1242  21.973   2.181  16.485 -0.2211  0.2084 -0.0205
  104DPPC   C3A 1243  22.060   2.231  16.956  0.1116 -0.0296  0.1781
  104DPPC   C4A 1244  22.039   2.234  17.449  0.1075 -0.3083 -0.0341
  104DPPC   C1B 1245  21.574   1.960  16.394  0.0073  0.0321 -0.0045
  104DPPC   C2B 1246  21.620   1.898  16.761 -0.0609  0.0438  0.1716
  104DPPC   C3B 1247  21.669   1.947  17.222  0.1958  0.0721  0.1069
  104DPPC   C4B 1248  21.717   1.895  17.673 -0.3818 -0.0882  0.4466
  105DPPC   NC3 1249  22.760   5.317  15.464  0.1707  0.0535 -0.1306
  105DPPC   PO4 1250  22.391   5.319  15.367 -0.0143 -0.1795 -0.3050
  105DPPC   GL1 1251  22.305   5.389  15.753  0.2444  0.0771  0.3812
  105DPPC   GL2 1252  22.093   5.578  15.699  0.1471 -0.3043 -0.1521
  105DPPC   C1A 1253  22.238   5.220  16.132  0.1134 -0.2371 -0.0700
  105DPPC   C2A 1254  22.210   5.094  16.549  0.1835 -0.1882 -0.1944
  105DPPC   C3A 1255  22.188   5.057  17.072 -0.3417  0.2355  0.2549
  105DPPC   C4A 1256  22.258   5.131  17.559 -0.0873 -0.2351 -0.0051
  105DPPC   C1B 1257  22.168   5.680  16.058 -0.1595  0.2921 -0.0337
  105DPPC   C2B 1258  22.127   5.625  16.432 -0.1813  0.2431 -0.1028
  105DPPC   C3B 1259  22.133   5.632  16.926 -0.3218  0.0202  0.1647
  105DPPC   C4B 1260  22.100   5.631  17.396  0.0545 -0.0482  0.0157
  106DPPC   NC3 1261  21.919   5.761  15.303 -0.0230  0.3106 -0.0709
  106DPPC   PO4 1262  21.654   5.511  15.461 -0.1012 -0.1550 -0.2459
  106DPPC   GL1 1263  21.352   5.510  15.761  0.6206  0.2239  0.0961
  106DPPC   GL2 1264  21.632   5.551  15.843 -0.0433 -0.3151  0.3043
  106DPPC   C1A 1265  21.315   5.396  16.094  0.1259  0.0061 -0.0648
  106DPPC   C2A 1266  21.291   5.429  16.483  0.0843  0.1947  0.0862
  106DPPC   C3A 1267  21.234   5.459  16.954  0.1275 -0.2870 -0.3818
  106DPPC   C4A 1268  21.286   5.471  17.417 -0.1314 -0.3738 -0.0736
  106DPPC   C1B 1269  21.615   5.651  16.226 -0.2157 -0.0762  0.1462
  106DPPC   C2B 1270  21.610   5.734  16.670  0.0533  0.0193  0.4426
  106DPPC   C3B 1271  21.655   5.744  17.155 -0.0548 -0.1064 -0.0758
  106DPPC   C4B 1272  21.696   5.764  17.669  0.1876  0.3821 -0.3136
  107DPPC   NC3 1273  21.124   3.830  15.856  0.0742  0.0895  0.2036
  107DPPC   PO4 1274  21.301   4.153  15.774  0.0055  0.1541 -0.4493
  107DPPC   GL1 1275  21.448   4.430  16.100 -0.4111 -0.0494  0.0781
  107DPPC   GL2 1276  21.711   4.303  16.024  0.1898 -0.1159 -0.1011
  107DPPC   C1A 1277  21.496   4.455  16.484  0.1427  0.2947 -0.5224
  107DPPC   C2A 1278  21.431   4.369  16.925 -0.0405  0.1497  0.0397
  107DPPC   C3A 1279  21.473   4.430  17.380 -0.1283 -0.3548  0.1070
  107DPPC   C4A 1280  21.373   4.520  17.810  0.0302 -0.0632 -0.1009
  107DPPC   C1B 1281  21.657   4.085  16.337  0.1890 -0.1198  0.0355
  107DPPC   C2B 1282  21.569   3.959  16.706  0.1078 -0.0244  0.0021
  107DPPC   C3B 1283  21.449   3.904  17.184 -0.1991 -0.0061  0.0075
  107DPPC   C4B 1284  21.446   3.961  17.660 -0.1167  0.3809 -0.3373
  108DPPC   NC3 1285  15.477   0.538  15.893 -0.0591  0.2371  0.0800
  108DPPC   PO4 1286  15.777   0.767  15.826 -0.2392  0.2408 -0.0413
  108DPPC   GL1 1287  15.885   0.871  16.258 -0.0619 -0.0540 -0.2826
  108DPPC   GL2 1288  15.614   0.797  16.266  0.1117 -0.0527  0.2199
  108DPPC   C1A 1289  15.831   0.987  16.647 -0.0379 -0.2129  0.0869
  108DPPC   C2A 1290  15.680   1.049  17.010 -0.0823 -0.0728  0.1866
  108DPPC   C3A 1291  15.688   1.054  17.539  0.2476 -0.2452 -0.0237
  108DPPC   C4A 1292  15.754   1.135  18.009  0.1026 -0.0903 -0.2248
  108DPPC   C1B 1293  15.473   1.104  16.432  0.0772 -0.1471  0.2541
  108DPPC   C2B 1294  15.300   1.236  16.809 -0.0677  0.0600 -0.3132
  108DPPC   C3B 1295  15.255   1.263  17.316 -0.1243  0.1856  0.1575
  108DPPC   C4B 1296  15.214   1.216  17.767  0.0554  0.2232 -0.0138
  109DPPC   NC3 1297  17.331   2.597  15.505  0.0743  0.1355  0.0854
  109DPPC   PO4 1298  16.973   2.452  15.644 -0.0318 -0.1310  0.0536
  109DPPC   GL1 1299  16.935   2.485  16.072 -0.0678 -0.1064 -0.0615
  109DPPC   GL2 1300  16.881   2.185  16.162 -0.2112  0.1585 -0.0961
  109DPPC   C1A 1301  17.059   2.636  16.399 -0.2110 -0.1200  0.1774
  109DPPC   C2A 1302  17.098   2.811  16.803  0.0616 -0.0287 -0.1745
  109DPPC   C3A 1303  17.185   2.881  17.246  0.1506 -0.1462 -0.1090
  109DPPC   C4A 1304  17.205   2.860  17.725 -0.3848  0.1321 -0.0030
  109DPPC   C1B 1305  17.094   2.206  16.496  0.1179 -0.1450 -0.1299
  109DPPC   C2B 1306  17.191   2.284  16.860 -0.1659 -0.2050 -0.0131
  109DPPC   C3B 1307  17.242   2.315  17.311 -0.1445 -0.2700  0.2627
  109DPPC   C4B 1308  17.271   2.271  17.847  0.2105 -0.0473 -0.3375
  110DPPC   NC3 1309  18.050   6.390  15.630 -0.0124  0.2351 -0.2050
  110DPPC   PO4 1310  18.025   6.675  15.960 -0.0918  0.2570  0.2000
  110DPPC   GL1 1311  18.250   6.823  16.266  0.0468 -0.2339  0.0617
  110DPPC   GL2 1312  17.918   6.858  16.328 -0.0769 -0.1295 -0.1674
  110DPPC   C1A 1313  18.410   6.686  16.569 -0.1515 -0.0411  0.2633
  110DPPC   C2A 1314  18.484   6.615  16.939 -0.2091 -0.0209 -0.2792
  110DPPC   C3A 1315  18.496   6.664  17.376 -0.2110 -0.1663 -0.0525
  110DPPC   C4A 1316  18.455   6.627  17.851  0.3995 -0.1322  0.1321
  110DPPC   C1B 1317  17.999   6.773  16.737  0.3850  0.0723  0.2756
  110DPPC   C2B 1318  18.053   6.742  17.161 -0.0269 -0.3309  0.2320
  110DPPC   C3B 1319  18.025   6.759  17.606  0.1181  0.3025 -0.0413
  110DPPC   C4B 1320  18.035   6.790  18.109  0.0922 -0.0142 -0.3273
  111DPPC   NC3 1321  16.172   2.021  15.801 -0.1541 -0.0565  0.2773
  111DPPC   PO4 1322  16.169   2.222  16.118 -0.0995  0.0956 -0.3728
  111DPPC   GL1 1323  16.492   2.064  16.357 -0.1082 -0.3009  0.0012
  111DPPC   GL2 1324  16.561   2.305  16.477  0.1370 -0.0158  0.4540
  111DPPC   C1A 1325  16.460   1.819  16.586  0.1416  0.0807 -0.0758
  111DPPC   C2A 1326  16.450   1.703  16.993 -0.0524  0.0536  0.1938
  111DPPC   C3A 1327  16.514   1.683  17.441 -0.1629  0.1579 -0.3833
  111DPPC   C4A 1328  16.410   1.719  17.951 -0.0090 -0.1115 -0.0655
  111DPPC   C1B 1329  16.758   2.442  16.739 -0.3850 -0.2593 -0.0346
  111DPPC   C2B 1330  16.807   2.561  17.101 -0.0399  0.0490  0.3242
  111DPPC   C3B 1331  16.804   2.537  17.527  0.0882  0.3663 -0.1171
  111DPPC   C4B 1332  16.794   2.435  18.044  0.1866  0.1535  0.1226
  112DPPC   NC3 1333  18.293   2.611  15.348  0.0287  0.2233  0.2468
  112DPPC   PO4 1334  18.288   2.525  15.745 -0.0962 -0.1301 -0.0675
  112DPPC   GL1 1335  18.431   2.551  16.138 -0.0184 -0.0460 -0.0255
  112DPPC   GL2 1336  18.210   2.376  16.220 -0.0985  0.0534  0.2157
  112DPPC   C1A 1337  18.461   2.643  16.491 -0.0184 -0.1571  0.0754
  112DPPC   C2A 1338  18.463   2.757  16.910 -0.0003  0.2175 -0.0787
  112DPPC   C3A 1339  18.488   2.813  17.402 -0.0525  0.1177  0.1178
  112DPPC   C4A 1340  18.490   2.814  17.895  0.1979 -0.0777  0.2131
  112DPPC   C1B 1341  18.091   2.415  16.576 -0.0566  0.4651 -0.0229
  112DPPC   C2B 1342  18.078   2.439  17.014  0.0596  0.1272  0.1498
  112DPPC   C3B 1343  18.127   2.469  17.465  0.0732  0.0019  0.0562
  112DPPC   C4B 1344  18.165   2.353  17.938 -0.0812  0.0926  0.0994
  113DPPC   NC3 1345  18.197   4.243  15.399 -0.1382  0.0153 -0.0071
  113DPPC   PO4 1346  18.215   4.269  15.813 -0.0483  0.0362 -0.0398
  113DPPC   GL1 1347  18.409   4.271  16.164 -0.0354  0.3700 -0.1433
  113DPPC   GL2 1348  18.720   4.337  16.012  0.4518 -0.3072 -0.2499
  113DPPC   C1A 1349  18.308   4.331  16.516 -0.3423 -0.2148  0.0070
  113DPPC   C2A 1350  18.416   4.321  16.910  0.3247  0.0324 -0.0294
  113DPPC   C3A 1351  18.384   4.299  17.416 -0.2628 -0.1252  0.2639
  113DPPC   C4A 1352  18.345   4.234  17.937 -0.0601  0.2607  0.2304
  113DPPC   C1B 1353  18.945   4.383  16.323 -0.2503  0.1135 -0.1511
  113DPPC   C2B 1354  19.262   4.356  16.546 -0.2227 -0.0523  0.1019
  113DPPC   C3B 1355  19.216   4.409  17.039 -0.1743 -0.2397 -0.1399
  113DPPC   C4B 1356  19.229   4.415  17.503 -0.1575 -0.1046  0.2651
  114DPPC   NC3 1357  15.526   5.221  15.842  0.3261  0.1003 -0.1833
  114DPPC   PO4 1358  15.650   4.930  16.088 -0.0159  0.1161  0.1173
  114DPPC   GL1 1359  15.545   4.885  16.507 -0.1171 -0.0407  0.0561
  114DPPC   GL2 1360  15.270   4.721  16.517  0.1674 -0.1228  0.0204
  114DPPC   C1A 1361  15.719   4.954  16.853 -0.3852 -0.0611 -0.1380
  114DPPC   C2A 1362  15.684   4.842  17.305  0.2323 -0.1525 -0.1197
  114DPPC   C3A 1363  15.657   4.864  17.789 -0.2444 -0.0300 -0.1280
  114DPPC   C4A 1364  15.652   4.854  18.275  0.3649  0.0527  0.3508
  114DPPC   C1B 1365  15.230   4.553  16.837  0.2538  0.0708  0.0202
  114DPPC   C2B 1366  15.241   4.519  17.271 -0.1861 -0.3342 -0.3528
  114DPPC   C3B 1367  15.199   4.560  17.772  0.1998 -0.3336 -0.0692
  114DPPC   C4B 1368  15.174   4.535  18.296  0.1704  0.1220  0.0838
  115DPPC   NC3 1369  17.148   2.832  15.915  0.1867 -0.2533 -0.2242
  115DPPC   PO4 1370  16.984   3.208  15.926  0.2471 -0.2126 -0.1624
  115DPPC   GL1 1371  16.957   3.245  16.374 -0.0066  0.3384 -0.1276
  115DPPC   GL2 1372  16.708   3.047  16.308 -0.2607  0.1385 -0.0472
  115DPPC   C1A 1373  17.140   3.353  16.673 -0.3346  0.1971  0.1613
  115DPPC   C2A 1374  17.144   3.397  17.115 -0.2603  0.3540 -0.3988
  115DPPC   C3A 1375  17.116   3.334  17.607 -0.0413  0.1143  0.1523
  115DPPC   C4A 1376  17.139   3.315  18.066  0.1124 -0.0772 -0.0436
  115DPPC   C1B 1377  16.572   2.977  16.644 -0.0543 -0.1356  0.1018
  115DPPC   C2B 1378  16.725   3.107  16.991 -0.0295 -0.2246  0.2255
  115DPPC   C3B 1379  16.741   3.037  17.445 -0.4363 -0.2086 -0.0881
  115DPPC   C4B 1380  16.761   3.039  17.980 -0.0756 -0.1576 -0.2835
  116DPPC   NC3 1381  16.046   6.228  15.976 -0.1142 -0.1505 -0.2214
  116DPPC   PO4 1382  16.139   5.872  15.874  0.0100 -0.0310 -0.1169
  116DPPC   GL1 1383  16.394   5.860  16.181 -0.0039  0.1903  0.0705
  116DPPC   GL2 1384  16.644   5.813  16.145 -0.0275 -0.2815  0.2800
  116DPPC   C1A 1385  16.383   5.915  16.568 -0.2565 -0.3289 -0.0922
  116DPPC   C2A 1386  16.346   6.006  16.988 -0.0408  0.1159  0.1068
  116DPPC   C3A 1387  16.342   5.989  17.494 -0.0971  0.0358 -0.0743
  116DPPC   C4A 1388  16.275   5.935  18.047 -0.0733 -0.1539 -0.1341
  116DPPC   C1B 1389  16.806   5.820  16.530  0.1613  0.1704  0.5133
  116DPPC   C2B 1390  16.826   5.828  16.932 -0.2532  0.0089  0.1421
  116DPPC   C3B 1391  16.831   5.804  17.389  0.1615  0.0638  0.0089
  116DPPC   C4B 1392  16.743   5.803  17.854 -0.2908 -0.2284 -0.3218
  117DPPC   NC3 1393  21.279   0.514  14.919 -0.2255 -0.2363  0.1056
  117DPPC   PO4 1394  21.117   0.332  15.210  0.0022  0.1828  0.1404
  117DPPC   GL1 1395  21.184   0.397  15.628  0.4239 -0.1019  0.0468
  117DPPC   GL2 1396  20.882   0.357  15.575 -0.0569 -0.1873 -0.0194
  117DPPC   C1A 1397  21.174   0.391  15.985  0.0607 -0.1959  0.2311
  117DPPC   C2A 1398  21.113   0.319  16.400 -0.1078 -0.1308 -0.0189
  117DPPC   C3A 1399  21.083   0.334  16.904  0.0594 -0.1502 -0.1908
  117DPPC   C4A 1400  21.051   0.296  17.417 -0.2052 -0.0558  0.1526
  117DPPC   C1B 1401  20.800   0.417  15.875  0.4891  0.1433  0.3904
  117DPPC   C2B 1402  20.620   0.440  16.262 -0.0405 -0.2140 -0.0818
  117DPPC   C3B 1403  20.608   0.421  16.779 -0.1884 -0.2252 -0.3158
  117DPPC   C4B 1404  20.586   0.455  17.230  0.1651  0.2195  0.0088
  118DPPC   NC3 1405  18.852   6.403  15.662 -0.0184 -0.0928  0.2527
  118DPPC   PO4 1406  18.561   6.126  15.595  0.4624 -0.1117  0.0174
  118DPPC   GL1 1407  18.415   6.069  15.972 -0.0253  0.4847  0.2685
  118DPPC   GL2 1408  18.642   5.974  16.000  0.2019  0.2294 -0.5038
  118DPPC   C1A 1409  18.331   5.961  16.311  0.1188  0.2406  0.1251
  118DPPC   C2A 1410  18.159   5.834  16.641  0.0272  0.1662  0.0119
  118DPPC   C3A 1411  18.184   5.818  17.104 -0.2260 -0.1552  0.1120
  118DPPC   C4A 1412  18.190   5.833  17.603 -0.0029 -0.0197 -0.0063
  118DPPC   C1B 1413  18.824   5.946  16.358  0.1631  0.0624  0.0669
  118DPPC   C2B 1414  19.071   5.905  16.718 -0.3171  0.0980  0.0393
  118DPPC   C3B 1415  19.073   5.904  17.226  0.0063  0.0012 -0.0500
  118DPPC   C4B 1416  19.076   5.943  17.738 -0.2711  0.0331  0.0068
  119DPPC   NC3 1417  17.251   3.602  15.772 -0.1731  0.1839  0.0679
  119DPPC   PO4 1418  17.149   3.970  15.640 -0.0870 -0.0512 -0.0659
  119DPPC   GL1 1419  16.908   4.084  15.932  0.0300 -0.2979  0.1261
  119DPPC   GL2 1420  17.117   4.119  16.150  0.0827  0.1476 -0.2786
  119DPPC   C1A 1421  16.712   4.134  16.234  0.2677 -0.0346 -0.2997
  119DPPC   C2A 1422  16.610   4.134  16.607  0.0642 -0.1271  0.2984
  119DPPC   C3A 1423  16.670   4.058  17.060  0.1331  0.1606  0.2566
  119DPPC   C4A 1424  16.613   4.071  17.568 -0.0724  0.2401 -0.1248
  119DPPC   C1B 1425  17.076   4.348  16.459  0.0452 -0.0634 -0.1372
  119DPPC   C2B 1426  16.973   4.377  16.866  0.0231 -0.1193  0.0093
  119DPPC   C3B 1427  17.043   4.339  17.292 -0.5131  0.1389 -0.1541
  119DPPC   C4B 1428  17.118   4.312  17.744 -0.1837 -0.2304  0.0246
  120DPPC   NC3 1429  19.499   3.186  15.627 -0.3339  0.2816 -0.1774
  120DPPC   PO4 1430  19.417   2.836  15.727 -0.0154 -0.1091  0.1075
  120DPPC   GL1 1431  19.284   3.011  16.055 -0.1206 -0.2533 -0.2655
  120DPPC   GL2 1432  19.511   3.258  16.072 -0.0585 -0.0581 -0.1714
  120DPPC   C1A 1433  19.290   2.932  16.431 -0.0765 -0.2529 -0.4616
  120DPPC   C2A 1434  19.277   2.856  16.859 -0.0682 -0.0579  0.3445
  120DPPC   C3A 1435  19.381   2.905  17.315 -0.0389 -0.0307 -0.0628
  120DPPC   C4A 1436  19.332   2.926  17.783  0.1793 -0.1000  0.0178
  120DPPC   C1B 1437  19.621   3.220  16.442 -0.0811  0.4717 -0.1246
  120DPPC   C2B 1438  19.694   3.212  16.854  0.0176 -0.0130 -0.1768
  120DPPC   C3B 1439  19.788   3.289  17.331 -0.1206 -0.2806 -0.0380
  120DPPC   C4B 1440  19.790   3.187  17.784  0.1765 -0.0396  0.1260
  121DPPC   NC3 1441  19.233   2.367  15.470 -0.0180  0.0928  0.1491
  121DPPC   PO4 1442  18.882   2.220  15.603  0.1147  0.1204  0.0528
  121DPPC   GL1 1443  18.793   2.264  15.958 -0.2219  0.0513  0.0310
  121DPPC   GL2 1444  18.556   2.118  16.033  0.1164  0.4273 -0.0766
  121DPPC   C1A 1445  18.864   2.390  16.282 -0.1631 -0.4009 -0.3572
  121DPPC   C2A 1446  18.903   2.569  16.634 -0.0604  0.3487 -0.4008
  121DPPC   C3A 1447  18.953   2.596  17.114 -0.0392 -0.1813  0.0960
  121DPPC   C4A 1448  19.006   2.603  17.550  0.0358 -0.0320 -0.0850
  121DPPC   C1B 1449  18.568   2.127  16.430 -0.1241 -0.0365  0.3113
  121DPPC   C2B 1450  18.563   2.222  16.807 -0.3264  0.0004 -0.3911
  121DPPC   C3B 1451  18.542   2.379  17.256  0.0949  0.3318 -0.0289
  121DPPC   C4B 1452  18.626   2.324  17.777 -0.1243 -0.0737  0.2676
  122DPPC   NC3 1453  16.576   5.740  15.662 -0.0811 -0.1039 -0.0670
  122DPPC   PO4 1454  16.515   5.450  15.909  0.0542  0.0409  0.1003
  122DPPC   GL1 1455  16.579   5.459  16.354  0.1177 -0.0083 -0.5433
  122DPPC   GL2 1456  16.728   5.267  16.370 -0.0530 -0.2650  0.0332
  122DPPC   C1A 1457  16.508   5.499  16.745 -0.1220  0.1588 -0.0696
  122DPPC   C2A 1458  16.450   5.523  17.175 -0.2448 -0.3612  0.0354
  122DPPC   C3A 1459  16.324   5.474  17.646 -0.0720  0.2544  0.1046
  122DPPC   C4A 1460  16.462   5.456  18.154 -0.0352  0.2951 -0.3325
  122DPPC   C1B 1461  16.997   5.336  16.616 -0.1686 -0.3057  0.0266
  122DPPC   C2B 1462  16.939   5.333  17.051  0.0825 -0.1576  0.2364
  122DPPC   C3B 1463  16.903   5.290  17.522  0.0595 -0.3169  0.0425
  122DPPC   C4B 1464  16.914   5.285  18.020  0.1955 -0.2096 -0.2281
  123DPPC   NC3 1465  22.116   1.235  15.657  0.1790 -0.0831  0.1021
  123DPPC   PO4 1466  21.992   1.618  15.757 -0.3176 -0.3141 -0.0113
  123DPPC   GL1 1467  22.022   1.637  16.142  0.0457  0.0047  0.0021
  123DPPC   GL2 1468  22.321   1.661  16.017  0.3614  0.0003 -0.0269
  123DPPC   C1A 1469  22.151   1.714  16.490 -0.2851 -0.1392 -0.1241
  123DPPC   C2A 1470  22.157   1.756  16.923 -0.0951  0.0778 -0.0696
  123DPPC   C3A 1471  22.179   1.765  17.427 -0.0196 -0.1028 -0.0214
  123DPPC   C4A 1472  22.213   1.744  17.918  0.0377  0.1499 -0.0258
  123DPPC   C1B 1473  22.615   1.677  16.249 -0.4566 -0.2321 -0.0263
  123DPPC   C2B 1474  22.603   1.612  16.652  0.1886 -0.1531 -0.0043
  123DPPC   C3B 1475  22.633   1.597  17.132  0.2124  0.1316  0.2023
  123DPPC   C4B 1476  22.621   1.629  17.633  0.4866 -0.0679 -0.0141
  124DPPC   NC3 1477  18.022   1.075  15.782 -0.3294  0.1945 -0.0660
  124DPPC   PO4 1478  18.453   1.175  15.822 -0.0546  0.1603 -0.3016
  124DPPC   GL1 1479  18.645   1.445  16.173  0.0192  0.2227 -0.0953
  124DPPC   GL2 1480  18.435   1.334  16.262  0.3060  0.0896 -0.1181
  124DPPC   C1A 1481  18.683   1.668  16.484 -0.1593 -0.0579  0.3068
  124DPPC   C2A 1482  18.648   1.759  16.861 -0.0631 -0.0332 -0.0797
  124DPPC   C3A 1483  18.611   1.818  17.260  0.0561 -0.1610 -0.3508
  124DPPC   C4A 1484  18.651   1.808  17.813  0.1093  0.0739  0.1333
  124DPPC   C1B 1485  18.290   1.401  16.588 -0.0529  0.1776 -0.4354
  124DPPC   C2B 1486  18.223   1.479  17.061  0.0676  0.0734  0.0524
  124DPPC   C3B 1487  18.243   1.510  17.557 -0.0840  0.2951  0.0817
  124DPPC   C4B 1488  18.168   1.438  18.056  0.0949 -0.1328  0.1666
  125DPPC   NC3 1489  20.303   2.853  15.736  0.2737 -0.1993 -0.1764
  125DPPC   PO4 1490  19.922   2.837  15.646  0.1298 -0.1535 -0.0580
  125DPPC   GL1 1491  19.804   2.725  15.998  0.0864  0.0623  0.3691
  125DPPC   GL2 1492  19.627   2.811  16.113  0.0662 -0.1123  0.1290
  125DPPC   C1A 1493  20.000   2.519  16.253 -0.0650 -0.1694  0.2603
  125DPPC   C2A 1494  20.122   2.551  16.617  0.3992 -0.2588  0.0395
  125DPPC   C3A 1495  20.201   2.536  17.107 -0.0772 -0.1601 -0.0758
  125DPPC   C4A 1496  20.268   2.467  17.579  0.3318 -0.4039 -0.1882
  125DPPC   C1B 1497  19.676   2.778  16.528 -0.2845 -0.2497  0.1436
  125DPPC   C2B 1498  19.762   2.726  16.921  0.0084 -0.0402  0.0565
  125DPPC   C3B 1499  19.826   2.754  17.396  0.3628  0.0417  0.2938
  125DPPC   C4B 1500  19.897   2.717  17.878  0.1577 -0.0618  0.2738
  126DPPC   NC3 1501  20.833   4.179  15.540 -0.1861  0.1754  0.0281
  126DPPC   PO4 1502  20.627   3.883  15.706 -0.1566 -0.1228  0.0296
  126DPPC   GL1 1503  20.747   3.730  16.042 -0.3353 -0.1780  0.0551
  126DPPC   GL2 1504  20.794   3.843  16.249 -0.0330  0.1512  0.0001
  126DPPC   C1A 1505  20.748   3.369  16.196  0.0372 -0.0390 -0.0975
  126DPPC   C2A 1506  20.884   3.043  16.389 -0.1131 -0.0497  0.2766
  126DPPC   C3A 1507  20.999   2.631  16.618 -0.1042  0.0121  0.0379
  126DPPC   C4A 1508  21.147   2.667  17.072 -0.0765  0.1892  0.2545
  126DPPC   C1B 1509  20.557   4.073  16.431 -0.0077  0.0954 -0.0150
  126DPPC   C2B 1510  20.231   4.320  16.495  0.0420 -0.2417 -0.3044
  126DPPC   C3B 1511  20.133   4.451  17.054  0.2298  0.2303  0.1418
  126DPPC   C4B 1512  20.124   4.595  17.545 -0.2684  0.0251 -0.0115
  127DPPC   NC3 1513  17.696   3.203  15.316 -0.0702  0.4373  0.0560
  127DPPC   PO4 1514  17.459   3.123  15.596  0.0726 -0.0979 -0.3364
  127DPPC   GL1 1515  17.596   2.848  15.844 -0.0557 -0.1396 -0.5052
  127DPPC   GL2 1516  17.954   2.992  15.865  0.1674 -0.1133  0.3821
  127DPPC   C1A 1517  17.518   2.652  16.156  0.3370  0.2907  0.2070
  127DPPC   C2A 1518  17.453   2.615  16.567 -0.0662  0.2006  0.2062
  127DPPC   C3A 1519  17.548   2.636  17.039 -0.1938  0.2084 -0.0382
  127DPPC   C4A 1520  17.634   2.658  17.526 -0.1516  0.0277  0.3296
  127DPPC   C1B 1521  17.915   3.172  16.245 -0.2176  0.3078 -0.3399
  127DPPC   C2B 1522  17.957   3.499  16.497 -0.0625  0.0486  0.3112
  127DPPC   C3B 1523  17.981   3.432  16.990 -0.1258  0.1074 -0.2185
  127DPPC   C4B 1524  18.000   3.401  17.574  0.1917  0.1539  0.0488
  128DPPC   NC3 1525  21.506   2.940  15.693  0.1171 -0.0058 -0.1648
  128DPPC   PO4 1526  21.445   3.265  15.917 -0.1461 -0.0109 -0.1350
  128DPPC   GL1 1527  21.272   3.145  16.335 -0.1725 -0.3869 -0.0573
  128DPPC   GL2 1528  21.132   3.461  16.183  0.0348 -0.0148 -0.1517
  128DPPC   C1A 1529  21.221   3.160  16.706 -0.2110 -0.1676 -0.1886
  128DPPC   C2A 1530  21.060   3.128  17.089 -0.1179 -0.1055  0.2833
  128DPPC   C3A 1531  21.090   3.152  17.510 -0.2817  0.2896  0.4225
  128DPPC   C4A 1532  21.111   3.156  18.058 -0.1154 -0.0675 -0.0152
  128DPPC   C1B 1533  21.044   3.590  16.514 -0.0873  0.1560 -0.1338
  128DPPC   C2B 1534  20.995   3.595  16.918  0.1672 -0.0944 -0.0202
  128DPPC   C3B 1535  20.975   3.637  17.372  0.0259 -0.1881 -0.0598
  128DPPC   C4B 1536  21.050   3.743  17.847  0.0850  0.1314  0.2180
  129DPPC   NC3 1537  20.112   1.658  15.667  0.0292 -0.2143  0.1706
  129DPPC   PO4 1538  19.883   1.967  15.635  0.2341 -0.1701 -0.2573
  129DPPC   GL1 1539  19.895   2.164  16.089 -0.0707 -0.1463  0.0477
  129DPPC   GL2 1540  19.704   2.028  16.042  0.1753  0.3358  0.1427
  129DPPC   C1A 1541  19.854   2.168  16.484  0.3715  0.1662  0.2520
  129DPPC   C2A 1542  19.905   2.184  16.866  0.1071  0.3438  0.0827
  129DPPC   C3A 1543  19.873   2.201  17.382  0.0543  0.0468  0.1771
  129DPPC   C4A 1544  19.903   2.246  17.910 -0.0443  0.1463 -0.1595
  129DPPC   C1B 1545  19.511   1.917  16.333 -0.2089  0.1662 -0.1272
  129DPPC   C2B 1546  19.478   1.863  16.740 -0.1998  0.2300  0.1874
  129DPPC   C3B 1547  19.503   1.910  17.178 -0.0902  0.0111  0.0768
  129DPPC   C4B 1548  19.525   1.944  17.625  0.1305 -0.0585 -0.1608
  130DPPC   NC3 1549  18.215   0.303  15.142  0.0429 -0.2544 -0.0970
  130DPPC   PO4 1550  18.369   0.026  15.400 -0.2436 -0.0479  0.1789
  130DPPC   GL1 1551  18.614   0.127  15.834 -0.0211 -0.1167  0.0885
  130DPPC   GL2 1552  18.420  -0.141  15.920  0.0417 -0.0825  0.0231
  130DPPC   C1A 1553  18.654   0.141  16.247 -0.1300 -0.0602 -0.0368
  130DPPC   C2A 1554  18.885   0.224  16.580 -0.1242  0.3841  0.2013
  130DPPC   C3A 1555  18.891   0.258  17.067  0.3482 -0.1771  0.3000
  130DPPC   C4A 1556  18.887   0.330  17.573 -0.0207  0.0329 -0.4277
  130DPPC   C1B 1557  18.441  -0.243  16.283 -0.1631 -0.4141 -0.2923
  130DPPC   C2B 1558  18.560  -0.381  16.646  0.0925  0.0951 -0.1244
  130DPPC   C3B 1559  18.659  -0.459  17.062  0.3141  0.2140  0.1839
  130DPPC   C4B 1560  18.637  -0.517  17.559 -0.3071  0.0624 -0.1540
  131DPPC   NC3 1561  22.530   3.609  15.498  0.1279 -0.2227  0.2025
  131DPPC   PO4 1562  22.297   3.927  15.698  0.1353  0.0645  0.2137
  131DPPC   GL1 1563  22.263   4.002  16.041  0.3675 -0.1431 -0.1673
  131DPPC   GL2 1564  22.014   3.929  16.075  0.0533 -0.1844  0.1638
  131DPPC   C1A 1565  22.349   4.069  16.393  0.0939 -0.2225  0.2686
  131DPPC   C2A 1566  22.343   4.123  16.784 -0.1099 -0.0082 -0.1833
  131DPPC   C3A 1567  22.329   4.021  17.264  0.2499 -0.0504  0.1090
  131DPPC   C4A 1568  22.347   4.089  17.722 -0.1953  0.1005 -0.1914
  131DPPC   C1B 1569  22.009   3.821  16.458  0.2770 -0.4660 -0.2411
  131DPPC   C2B 1570  21.985   3.736  16.900 -0.3677  0.0150 -0.0333
  131DPPC   C3B 1571  21.918   3.685  17.332  0.1583 -0.0070  0.0209
  131DPPC   C4B 1572  21.962   3.730  17.846 -0.3583 -0.0927  0.2000
  132DPPC   NC3 1573  17.502   0.934  15.783 -0.0525 -0.0464 -0.0830
  132DPPC   PO4 1574  17.240   0.703  15.876 -0.2079  0.1088  0.1271
  132DPPC   GL1 1575  17.202   0.542  16.243  0.1229  0.0892 -0.3197
  132DPPC   GL2 1576  17.548   0.666  16.248  0.1567 -0.0435  0.2188
  132DPPC   C1A 1577  17.150   0.484  16.630  0.1006 -0.1962 -0.1276
  132DPPC   C2A 1578  17.146   0.565  17.026  0.2257 -0.0495 -0.4347
  132DPPC   C3A 1579  17.054   0.559  17.493  0.0090 -0.0593  0.1366
  132DPPC   C4A 1580  16.956   0.498  17.968 -0.0957 -0.0923 -0.0733
  132DPPC   C1B 1581  17.534   0.852  16.609 -0.0415 -0.0439  0.0147
  132DPPC   C2B 1582  17.543   0.842  17.066 -0.0891  0.0300  0.0263
  132DPPC   C3B 1583  17.461   0.776  17.572 -0.0512  0.0753  0.1373
  132DPPC   C4B 1584  17.408   0.663  18.068 -0.0825 -0.1031 -0.1312
  133DPPC   NC3 1585  18.601   3.489  15.308  0.0987 -0.1318  0.0052
  133DPPC   PO4 1586  18.410   3.820  15.513 -0.0878  0.0495 -0.0414
  133DPPC   GL1 1587  18.450   3.859  15.945  0.3062 -0.3453 -0.1517
  133DPPC   GL2 1588  18.691   3.881  15.931  0.3035  0.2510 -0.0790
  133DPPC   C1A 1589  18.301   3.863  16.256  0.1469  0.0226  0.0266
  133DPPC   C2A 1590  18.315   3.812  16.660  0.2260 -0.1481  0.1254
  133DPPC   C3A 1591  18.391   3.801  17.114 -0.0696 -0.1054 -0.0237
  133DPPC   C4A 1592  18.426   3.802  17.662 -0.0158 -0.2484  0.3875
  133DPPC   C1B 1593  18.785   3.972  16.277  0.1640  0.4611 -0.1230
  133DPPC   C2B 1594  18.752   4.094  16.641 -0.0781 -0.0062  0.2191
  133DPPC   C3B 1595  18.791   4.090  17.151 -0.1347  0.1844 -0.0074
  133DPPC   C4B 1596  18.829   4.067  17.617 -0.0122  0.2462 -0.3859
  134DPPC   NC3 1597  19.796   5.999  15.584 -0.0582  0.1467  0.1869
  134DPPC   PO4 1598  19.400   5.973  15.563 -0.0220  0.0726  0.1238
  134DPPC   GL1 1599  19.182   5.734  15.822  0.0971 -0.0355 -0.6564
  134DPPC   GL2 1600  19.058   6.028  15.887 -0.3117 -0.1204  0.1560
  134DPPC   C1A 1601  19.190   5.542  16.120 -0.1286 -0.0383 -0.0128
  134DPPC   C2A 1602  19.083   5.423  16.513  0.2213 -0.3404 -0.0677
  134DPPC   C3A 1603  19.061   5.403  17.011  0.4467 -0.0726  0.1026
  134DPPC   C4A 1604  19.057   5.473  17.536 -0.1415  0.3112  0.2671
  134DPPC   C1B 1605  19.197   6.071  16.230  0.0579 -0.1183  0.1577
  134DPPC   C2B 1606  19.399   6.203  16.564 -0.0448  0.3229  0.4132
  134DPPC   C3B 1607  19.407   6.208  17.065  0.0463 -0.2187 -0.2127
  134DPPC   C4B 1608  19.455   6.258  17.585 -0.1624 -0.0174 -0.3906
  135DPPC   NC3 1609  20.020   5.137  15.768  0.0027 -0.3517 -0.1578
  135DPPC   PO4 1610  20.275   4.878  15.916  0.1247 -0.0421  0.1562
  135DPPC   GL1 1611  20.482   4.967  16.212  0.2239  0.3640  0.0690
  135DPPC   GL2 1612  20.406   4.752  16.392 -0.1080  0.0228  0.1058
  135DPPC   C1A 1613  20.539   5.134  16.556 -0.4487  0.2759  0.0572
  135DPPC   C2A 1614  20.456   5.293  16.948 -0.0213  0.0016 -0.1092
  135DPPC   C3A 1615  20.427   5.370  17.384 -0.3180 -0.2345 -0.0708
  135DPPC   C4A 1616  20.441   5.411  17.917 -0.1317 -0.0786 -0.3791
  135DPPC   C1B 1617  20.452   4.728  16.757 -0.1201  0.0085  0.0286
  135DPPC   C2B 1618  20.501   4.811  17.137 -0.0163  0.0597 -0.0029
  135DPPC   C3B 1619  20.554   4.900  17.649  0.2368  0.0244  0.2642
  135DPPC   C4B 1620  20.474   4.906  18.080  0.0690 -0.1039 -0.0772
  136DPPC   NC3 1621  15.773   3.459  15.618 -0.1459 -0.4717  0.2642
  136DPPC   PO4 1622  16.167   3.570  15.709 -0.1343 -0.1535 -0.0030
  136DPPC   GL1 1623  16.215   3.677  16.186 -0.0547 -0.0300  0.0519
  136DPPC   GL2 1624  15.974   3.619  16.136 -0.2484  0.0461 -0.4358
  136DPPC   C1A 1625  16.266   3.802  16.523  0.5694  0.2218  0.0334
  136DPPC   C2A 1626  16.228   3.795  16.857  0.0467 -0.4129 -0.0188
  136DPPC   C3A 1627  16.141   3.674  17.330  0.0424 -0.1294  0.2789
  136DPPC   C4A 1628  16.143   3.663  17.869  0.2215  0.0523  0.2799
  136DPPC   C1B 1629  15.773   3.679  16.461  0.0465 -0.1143 -0.1211
  136DPPC   C2B 1630  15.722   3.896  16.800 -0.0732 -0.1102 -0.2444
  136DPPC   C3B 1631  15.712   3.873  17.262 -0.0453 -0.2951  0.0054
  136DPPC   C4B 1632  15.707   3.839  17.773 -0.1117  0.0735 -0.1688
  137DPPC   NC3 1633  19.729   4.407  15.595 -0.0259 -0.0265  0.3689
  137DPPC   PO4 1634  19.792   4.748  15.743  0.0348 -0.2207  0.1458
  137DPPC   GL1 1635  19.889   4.689  16.105 -0.1786 -0.3334  0.0520
  137DPPC   GL2 1636  19.959   4.399  16.062 -0.3516 -0.3482 -0.0239
  137DPPC   C1A 1637  19.980   4.918  16.407 -0.1090  0.1780 -0.1891
  137DPPC   C2A 1638  20.091   4.933  16.803  0.0433  0.0199 -0.3903
  137DPPC   C3A 1639  20.094   5.040  17.314 -0.0570 -0.1115  0.0906
  137DPPC   C4A 1640  20.026   5.015  17.792 -0.3645  0.2736  0.1293
  137DPPC   C1B 1641  19.788   4.323  16.401  0.1010  0.1720  0.1317
  137DPPC   C2B 1642  19.680   4.297  16.844  0.2847 -0.2389 -0.1117
  137DPPC   C3B 1643  19.705   4.223  17.329  0.2710 -0.0380 -0.1124
  137DPPC   C4B 1644  19.700   4.300  17.764  0.0427 -0.1433 -0.2663
  138DPPC   NC3 1645  21.493   4.499  15.403 -0.1135 -0.0861  0.0569
  138DPPC   PO4 1646  21.768   4.626  15.673 -0.0864 -0.3736  0.1813
  138DPPC   GL1 1647  21.818   4.828  15.977  0.1820 -0.1530  0.3580
  138DPPC   GL2 1648  21.727   5.079  15.979  0.1904  0.2665 -0.5369
  138DPPC   C1A 1649  21.785   4.778  16.326 -0.0216 -0.1358 -0.0888
  138DPPC   C2A 1650  21.814   4.718  16.740 -0.0731  0.1282  0.1670
  138DPPC   C3A 1651  21.830   4.745  17.251  0.3116  0.0099  0.3136
  138DPPC   C4A 1652  21.816   4.793  17.775 -0.2652 -0.0948  0.0158
  138DPPC   C1B 1653  21.730   5.202  16.356  0.3618  0.0849 -0.1037
  138DPPC   C2B 1654  21.793   5.203  16.764  0.2497 -0.0515  0.0235
  138DPPC   C3B 1655  21.728   5.259  17.258 -0.5183  0.0196 -0.1262
  138DPPC   C4B 1656  21.795   5.302  17.752 -0.1179 -0.0903 -0.0312
  139DPPC   NC3 1657  15.573   2.743  15.829  0.0723  0.0848 -0.1479
  139DPPC   PO4 1658  15.698   2.365  15.884  0.1548 -0.1744  0.2234
  139DPPC   GL1 1659  15.807   2.483  16.319 -0.0435 -0.0907 -0.0006
  139DPPC   GL2 1660  15.780   2.242  16.439 -0.2249 -0.0827  0.0925
  139DPPC   C1A 1661  15.834   2.735  16.576  0.3139 -0.3518  0.0579
  139DPPC   C2A 1662  15.895   2.959  16.923  0.2377 -0.2272 -0.1376
  139DPPC   C3A 1663  15.868   3.007  17.414 -0.0573  0.1606 -0.1482
  139DPPC   C4A 1664  15.851   2.964  17.855 -0.0183  0.2670 -0.1391
  139DPPC   C1B 1665  15.814   2.350  16.815  0.0243  0.2063 -0.2732
  139DPPC   C2B 1666  15.929   2.506  17.166 -0.2039  0.1092  0.2286
  139DPPC   C3B 1667  15.931   2.521  17.622  0.1039 -0.4213  0.0325
  139DPPC   C4B 1668  16.002   2.389  18.021 -0.0888 -0.0227  0.0412
  140DPPC   NC3 1669  21.978   2.783  15.024 -0.1460  0.1621  0.0398
  140DPPC   PO4 1670  22.056   2.809  15.429 -0.2163  0.1828  0.1966
  140DPPC   GL1 1671  22.026   2.745  15.870 -0.0626  0.3672  0.3647
  140DPPC   GL2 1672  21.890   3.001  15.926 -0.2105 -0.2032  0.5183
  140DPPC   C1A 1673  22.006   2.635  16.209  0.3594  0.4479  0.5372
  140DPPC   C2A 1674  21.937   2.678  16.642  0.1353  0.0262 -0.0798
  140DPPC   C3A 1675  21.994   2.735  17.136  0.2760 -0.1515 -0.1180
  140DPPC   C4A 1676  21.916   2.751  17.602 -0.3857 -0.0530  0.3502
  140DPPC   C1B 1677  21.896   3.024  16.261  0.4940  0.0394 -0.2864
  140DPPC   C2B 1678  21.943   3.177  16.660 -0.0936  0.0911  0.2383
  140DPPC   C3B 1679  21.947   3.229  17.171  0.3410  0.0639 -0.1945
  140DPPC   C4B 1680  21.910   3.225  17.661 -0.1037 -0.1248 -0.3465
  141DPPC   NC3 1681  16.122   5.497  16.253 -0.3691 -0.3592 -0.3410
  141DPPC   PO4 1682  15.997   5.315  15.937 -0.1793  0.0328 -0.1719
  141DPPC   GL1 1683  15.937   5.107  16.359  0.1585  0.0063  0.0487
  141DPPC   GL2 1684  16.026   4.791  16.297 -0.1765 -0.0099 -0.4796
  141DPPC   C1A 1685  16.044   5.292  16.693 -0.1309 -0.1462 -0.1976
  141DPPC   C2A 1686  16.109   5.232  17.079 -0.0114  0.0530 -0.0106
  141DPPC   C3A 1687  16.027   5.160  17.484  0.0597  0.3524  0.0381
  141DPPC   C4A 1688  15.983   5.150  17.983  0.1795 -0.1639  0.3216
  141DPPC   C1B 1689  16.048   4.751  16.648  0.0078 -0.0779  0.3883
  141DPPC   C2B 1690  16.077   4.731  17.047 -0.0507 -0.0478 -0.0612
  141DPPC   C3B 1691  16.147   4.693  17.531 -0.0037 -0.0100 -0.2356
  141DPPC   C4B 1692  16.096   4.659  17.991  0.0845  0.3529 -0.2334
  142DPPC   NC3 1693  16.411   1.428  15.381  0.0746 -0.1732 -0.1593
  142DPPC   PO4 1694  16.549   1.780  15.578 -0.2680  0.3019  0.2040
  142DPPC   GL1 1695  16.476   1.765  16.022  0.0093  0.2312  0.0727
  142DPPC   GL2 1696  16.760   1.790  16.073 -0.5181 -0.1896  0.0733
  142DPPC   C1A 1697  16.332   1.532  16.300 -0.1009  0.4355 -0.1948
  142DPPC   C2A 1698  16.171   1.458  16.719  0.0296  0.2925  0.0536
  142DPPC   C3A 1699  16.136   1.356  17.251  0.2748 -0.0445 -0.4232
  142DPPC   C4A 1700  16.118   1.333  17.726  0.1608 -0.2721  0.1127
  142DPPC   C1B 1701  16.881   1.876  16.448  0.1702  0.0487 -0.2257
  142DPPC   C2B 1702  16.782   2.006  16.809  0.1648  0.0356 -0.1694
  142DPPC   C3B 1703  16.822   2.028  17.307  0.1002 -0.2361  0.0010
  142DPPC   C4B 1704  16.835   1.992  17.773 -0.2437 -0.1132  0.0237
  143DPPC   NC3 1705  18.940   5.891  15.441 -0.1817 -0.0782 -0.1554
  143DPPC   PO4 1706  18.828   5.563  15.635 -0.2426  0.1577  0.1249
  143DPPC   GL1 1707  18.632   5.556  16.075  0.2109 -0.1352  0.0859
  143DPPC   GL2 1708  18.536   5.334  15.996 -0.0709 -0.1128  0.1749
  143DPPC   C1A 1709  18.620   5.581  16.398  0.0856  0.0214 -0.1317
  143DPPC   C2A 1710  18.617   5.637  16.820  0.0969 -0.0274 -0.2224
  143DPPC   C3A 1711  18.579   5.660  17.313  0.1168  0.1602  0.2462
  143DPPC   C4A 1712  18.644   5.668  17.829 -0.0683  0.1563  0.0233
  143DPPC   C1B 1713  18.648   5.087  16.275 -0.0650 -0.2655  0.2486
  143DPPC   C2B 1714  18.697   5.106  16.695  0.1388 -0.2179  0.1718
  143DPPC   C3B 1715  18.679   5.031  17.148 -0.2051 -0.1861 -0.1105
  143DPPC   C4B 1716  18.687   5.083  17.583  0.2087  0.0479 -0.0760
  144DPPC   NC3 1717  18.311   5.666  15.782  0.2699  0.1405 -0.1445
  144DPPC   PO4 1718  17.962   5.880  15.798  0.0177 -0.1579  0.3713
  144DPPC   GL1 1719  17.838   6.156  16.066 -0.1810  0.1134  0.0366
  144DPPC   GL2 1720  18.094   6.265  16.134  0.1405  0.1797  0.1541
  144DPPC   C1A 1721  17.759   5.988  16.356 -0.1189  0.3027  0.0868
  144DPPC   C2A 1722  17.668   5.979  16.810  0.1000 -0.0693  0.1037
  144DPPC   C3A 1723  17.747   6.001  17.235  0.1094  0.0231 -0.0991
  144DPPC   C4A 1724  17.725   6.008  17.693 -0.0391 -0.1098 -0.1813
  144DPPC   C1B 1725  18.070   6.281  16.471  0.2928 -0.0913 -0.0959
  144DPPC   C2B 1726  18.102   6.307  16.879 -0.0286 -0.0413  0.1564
  144DPPC   C3B 1727  18.133   6.277  17.366 -0.0240  0.1839 -0.1360
  144DPPC   C4B 1728  18.101   6.295  17.876  0.2284 -0.0402  0.2479
  145DPPC   NC3 1729  20.214   3.186  15.300  0.1089  0.2049  0.3311
  145DPPC   PO4 1730  19.957   3.358  15.566  0.1637 -0.0784 -0.0670
  145DPPC   GL1 1731  20.081   3.558  15.915 -0.0242  0.5681 -0.0311
  145DPPC   GL2 1732  20.254   3.692  15.914 -0.2872  0.1368 -0.0419
  145DPPC   C1A 1733  19.897   3.468  16.241 -0.2098  0.2093  0.1530
  145DPPC   C2A 1734  20.019   3.486  16.636 -0.2289  0.0585  0.0653
  145DPPC   C3A 1735  20.152   3.526  17.046  0.1154  0.1397  0.1666
  145DPPC   C4A 1736  20.229   3.487  17.493 -0.0763 -0.0296  0.1166
  145DPPC   C1B 1737  20.337   3.742  16.282  0.2110  0.2702  0.0121
  145DPPC   C2B 1738  20.436   3.689  16.654 -0.2407  0.0106  0.1185
  145DPPC   C3B 1739  20.504   3.866  17.066 -0.5320 -0.0709 -0.0785
  145DPPC   C4B 1740  20.587   3.865  17.554 -0.3447  0.3592 -0.1131
  146DPPC   NC3 1741  20.258   4.462  15.638  0.3070  0.0527  0.0842
  146DPPC   PO4 1742  20.624   4.498  15.791 -0.0531  0.1567 -0.4095
  146DPPC   GL1 1743  20.720   4.601  16.111  0.2769  0.1411  0.3979
  146DPPC   GL2 1744  20.875   4.887  16.098  0.2346  0.1367  0.0129
  146DPPC   C1A 1745  20.693   4.476  16.488 -0.1260  0.2967 -0.3902
  146DPPC   C2A 1746  20.587   4.298  16.856 -0.1230 -0.0670 -0.0667
  146DPPC   C3A 1747  20.554   4.374  17.381 -0.2311 -0.0366 -0.5462
  146DPPC   C4A 1748  20.518   4.424  17.822  0.1035  0.4952  0.2013
  146DPPC   C1B 1749  20.867   5.013  16.397 -0.6391  0.1323  0.1416
  146DPPC   C2B 1750  20.919   5.056  16.834 -0.1654 -0.1436  0.3732
  146DPPC   C3B 1751  20.862   5.139  17.307 -0.0829 -0.1875  0.2972
  146DPPC   C4B 1752  20.906   5.174  17.833 -0.0999 -0.2400 -0.2571
  147DPPC   NC3 1753  20.305   3.660  15.477  0.0517  0.2159  0.0043
  147DPPC   PO4 1754  20.019   3.928  15.623 -0.0606  0.0723 -0.0365
  147DPPC   GL1 1755  19.912   3.925  16.033  0.1084  0.1475  0.2164
  147DPPC   GL2 1756  19.640   4.087  15.975  0.0264 -0.0428 -0.0241
  147DPPC   C1A 1757  19.939   3.920  16.397  0.0666 -0.0917 -0.0239
  147DPPC   C2A 1758  20.002   3.948  16.835 -0.1149  0.1166  0.2544
  147DPPC   C3A 1759  20.113   3.944  17.317  0.2856  0.0001 -0.0167
  147DPPC   C4A 1760  20.163   4.137  17.737 -0.0223  0.0550  0.0661
  147DPPC   C1B 1761  19.495   3.894  16.269 -0.1446 -0.0518 -0.4840
  147DPPC   C2B 1762  19.542   3.698  16.611  0.0879  0.0152 -0.3370
  147DPPC   C3B 1763  19.669   3.708  17.088 -0.1720 -0.3185  0.0791
  147DPPC   C4B 1764  19.715   3.815  17.598 -0.0921  0.0952 -0.0352
  148DPPC   NC3 1765  19.617   3.637  15.761 -0.2147  0.1412 -0.1316
  148DPPC   PO4 1766  19.219   3.584  15.845  0.0893  0.1511  0.0110
  148DPPC   GL1 1767  19.084   3.645  16.234  0.0922 -0.0565  0.1829
  148DPPC   GL2 1768  19.125   3.338  16.340 -0.1156  0.1217 -0.1368
  148DPPC   C1A 1769  19.123   3.907  16.494  0.0573 -0.1058  0.2359
  148DPPC   C2A 1770  19.191   3.971  16.892 -0.0075  0.0118  0.0379
  148DPPC   C3A 1771  19.299   3.925  17.338 -0.3244  0.0153 -0.2947
  148DPPC   C4A 1772  19.324   4.015  17.802 -0.0117 -0.3313 -0.1624
  148DPPC   C1B 1773  19.192   3.359  16.738 -0.0059  0.1723 -0.0177
  148DPPC   C2B 1774  19.263   3.363  17.134 -0.1675  0.0305  0.1030
  148DPPC   C3B 1775  19.387   3.439  17.607 -0.1363 -0.1948  0.0687
  148DPPC   C4B 1776  19.359   3.420  18.050  0.1481 -0.1972  0.1067
  149DPPC   NC3 1777  18.015   3.791  15.873 -0.0172  0.2154  0.1010
  149DPPC   PO4 1778  17.753   3.480  15.809 -0.0494  0.2042  0.1513
  149DPPC   GL1 1779  17.535   3.179  16.126 -0.0570 -0.1251 -0.0819
  149DPPC   GL2 1780  17.343   3.346  16.133  0.1841 -0.1432 -0.0672
  149DPPC   C1A 1781  17.456   3.122  16.481  0.0069 -0.0856 -0.0532
  149DPPC   C2A 1782  17.550   3.260  16.895 -0.0837  0.0686  0.0758
  149DPPC   C3A 1783  17.566   3.180  17.373 -0.0908 -0.2835 -0.0099
  149DPPC   C4A 1784  17.622   3.129  17.849  0.0831 -0.3040 -0.0455
  149DPPC   C1B 1785  17.527   3.591  16.330  0.2974 -0.0440  0.3063
  149DPPC   C2B 1786  17.519   3.724  16.739 -0.1365  0.1749  0.2831
  149DPPC   C3B 1787  17.578   3.712  17.195  0.2683  0.0904  0.1354
  149DPPC   C4B 1788  17.552   3.595  17.666 -0.0316 -0.0099  0.4790
  150DPPC   NC3 1789  20.839   2.171  15.597 -0.0270  0.0459  0.2563
  150DPPC   PO4 1790  20.674   2.484  15.788 -0.2739  0.1417  0.2819
  150DPPC   GL1 1791  20.452   2.523  16.136 -0.0469  0.0956 -0.0030
  150DPPC   GL2 1792  20.478   2.801  16.224  0.3532  0.1799 -0.0579
  150DPPC   C1A 1793  20.553   2.375  16.457 -0.2105  0.1475 -0.2083
  150DPPC   C2A 1794  20.629   2.294  16.859  0.1639 -0.1665  0.0607
  150DPPC   C3A 1795  20.688   2.344  17.293 -0.2013 -0.0985 -0.1001
  150DPPC   C4A 1796  20.713   2.303  17.793 -0.0391  0.0829 -0.0637
  150DPPC   C1B 1797  20.553   2.836  16.591  0.2263 -0.2362  0.2203
  150DPPC   C2B 1798  20.658   2.745  16.992 -0.1401  0.0491  0.4015
  150DPPC   C3B 1799  20.699   2.790  17.404  0.0578  0.0025  0.0550
  150DPPC   C4B 1800  20.684   2.871  17.850 -0.2838  0.0355  0.0123
  151DPPC   NC3 1801  20.923   3.368  15.742 -0.3522  0.2364  0.3180
  151DPPC   PO4 1802  20.525   3.296  15.735  0.0021  0.2345  0.3157
  151DPPC   GL1 1803  20.338   3.209  16.075 -0.0897  0.1077  0.1085
  151DPPC   GL2 1804  20.040   3.130  15.985  0.5836  0.5536 -0.5689
  151DPPC   C1A 1805  20.449   3.237  16.433  0.2745  0.3044 -0.1111
  151DPPC   C2A 1806  20.532   3.207  16.859 -0.1899  0.1252 -0.1515
  151DPPC   C3A 1807  20.625   3.269  17.260  0.3200  0.0610 -0.0897
  151DPPC   C4A 1808  20.666   3.375  17.732 -0.2656  0.1551 -0.1114
  151DPPC   C1B 1809  19.992   2.978  16.298 -0.0279 -0.0135  0.0581
  151DPPC   C2B 1810  20.112   2.993  16.713  0.1463 -0.0475 -0.1927
  151DPPC   C3B 1811  20.182   3.053  17.225  0.1196 -0.0526 -0.0055
  151DPPC   C4B 1812  20.284   2.984  17.591 -0.1686  0.1509 -0.1649
  152DPPC   NC3 1813  21.214   6.288  15.499 -0.2545 -0.3728  0.0046
  152DPPC   PO4 1814  21.475   6.611  15.385 -0.1423  0.1557  0.2040
  152DPPC   GL1 1815  21.536   6.736  15.763  0.1100 -0.1082  0.0215
  152DPPC   GL2 1816  21.377   6.591  15.945 -0.3312 -0.0255 -0.0293
  152DPPC   C1A 1817  21.792   6.850  15.914 -0.3341  0.2323 -0.1147
  152DPPC   C2A 1818  21.737   7.046  16.257 -0.1406  0.1140 -0.1794
  152DPPC   C3A 1819  21.905   7.103  16.726 -0.0309 -0.0795  0.0569
  152DPPC   C4A 1820  21.910   7.074  17.232 -0.1629  0.0941 -0.0786
  152DPPC   C1B 1821  21.442   6.606  16.310 -0.1756 -0.1900  0.2437
  152DPPC   C2B 1822  21.527   6.712  16.720 -0.3011 -0.1425  0.1433
  152DPPC   C3B 1823  21.488   6.751  17.197 -0.0567  0.0536 -0.1834
  152DPPC   C4B 1824  21.588   6.792  17.684  0.2409  0.1321  0.2630
  153DPPC   NC3 1825  19.002   3.159  15.723  0.3038 -0.4402 -0.0768
  153DPPC   PO4 1826  18.726   3.438  15.831  0.2960  0.0075 -0.2063
  153DPPC   GL1 1827  18.611   3.449  16.169 -0.3491 -0.1485  0.3108
  153DPPC   GL2 1828  18.347   3.374  16.165 -0.0843 -0.0385  0.3311
  153DPPC   C1A 1829  18.760   3.588  16.499 -0.0353 -0.1956  0.0813
  153DPPC   C2A 1830  18.845   3.643  16.924  0.1219  0.4566 -0.0155
  153DPPC   C3A 1831  18.865   3.628  17.416  0.1844  0.2088  0.0484
  153DPPC   C4A 1832  18.846   3.651  17.871  0.0838 -0.1193  0.0154
  153DPPC   C1B 1833  18.338   3.166  16.504  0.0789  0.2080  0.0354
  153DPPC   C2B 1834  18.436   3.238  16.870 -0.1545  0.1035  0.0786
  153DPPC   C3B 1835  18.472   3.326  17.327  0.0450  0.2429  0.2533
  153DPPC   C4B 1836  18.425   3.325  17.804 -0.1479  0.2453  0.2990
  154DPPC   NC3 1837  18.616   1.671  15.552  0.1882 -0.2527 -0.0026
  154DPPC   PO4 1838  18.805   1.768  15.882 -0.1954 -0.1166  0.2664
  154DPPC   GL1 1839  19.110   1.669  16.174 -0.1990  0.4522  0.1757
  154DPPC   GL2 1840  19.146   2.052  16.175  0.0468  0.0447  0.1937
  154DPPC   C1A 1841  19.092   1.543  16.550 -0.0657 -0.3849  0.0121
  154DPPC   C2A 1842  19.094   1.605  16.956  0.1201 -0.0968 -0.1997
  154DPPC   C3A 1843  19.102   1.630  17.452 -0.3034  0.1506  0.1628
  154DPPC   C4A 1844  19.151   1.698  17.942 -0.0575  0.1224 -0.2763
  154DPPC   C1B 1845  19.066   2.076  16.541  0.2160 -0.0551 -0.1691
  154DPPC   C2B 1846  19.044   2.116  16.960 -0.0310 -0.0302 -0.1220
  154DPPC   C3B 1847  19.013   2.103  17.474  0.0547 -0.1382 -0.0178
  154DPPC   C4B 1848  19.056   2.179  17.929 -0.2294 -0.3225  0.0224
  155DPPC   NC3 1849  15.216   6.296  15.765  0.1016  0.3323  0.1829
  155DPPC   PO4 1850  15.556   6.142  15.875  0.3027 -0.0259  0.1627
  155DPPC   GL1 1851  15.679   6.300  16.269 -0.2282 -0.0518  0.2325
  155DPPC   GL2 1852  15.764   6.006  16.289 -0.4303  0.0009 -0.0011
  155DPPC   C1A 1853  15.736   6.554  16.498 -0.1948 -0.2024 -0.0164
  155DPPC   C2A 1854  15.809   6.639  16.884 -0.3102 -0.4283 -0.2660
  155DPPC   C3A 1855  15.822   6.697  17.423  0.0993  0.0982 -0.2182
  155DPPC   C4A 1856  15.849   6.719  17.925 -0.3804 -0.1573  0.1946
  155DPPC   C1B 1857  15.986   5.857  16.541  0.0363 -0.2803  0.0832
  155DPPC   C2B 1858  15.973   5.684  16.903 -0.0394 -0.1563  0.1934
  155DPPC   C3B 1859  15.932   5.647  17.356  0.0075  0.0575  0.1453
  155DPPC   C4B 1860  15.924   5.610  17.882  0.1645  0.2348 -0.0580
  156DPPC   NC3 1861  21.852   2.341  15.353  0.1202 -0.0174 -0.1387
  156DPPC   PO4 1862  21.692   2.471  15.680  0.1166 -0.1518 -0.1944
  156DPPC   GL1 1863  21.591   2.516  16.070 -0.0054 -0.2999 -0.2321
  156DPPC   GL2 1864  21.566   2.809  16.131 -0.2422 -0.1075  0.0501
  156DPPC   C1A 1865  21.460   2.359  16.367  0.0123 -0.3069 -0.2313
  156DPPC   C2A 1866  21.514   2.398  16.771 -0.0057  0.0446  0.0456
  156DPPC   C3A 1867  21.578   2.462  17.317  0.2219  0.2507 -0.0448
  156DPPC   C4A 1868  21.152   2.664  17.559 -0.0527 -0.0056  0.1013
  156DPPC   C1B 1869  21.519   2.790  16.492  0.1752 -0.0312  0.0115
  156DPPC   C2B 1870  21.582   2.922  16.870 -0.0562 -0.1703  0.1175
  156DPPC   C3B 1871  21.547   2.982  17.345 -0.2544 -0.1113 -0.0447
  156DPPC   C4B 1872  21.495   2.998  17.835 -0.4850  0.2311  0.0266
  157DPPC   NC3 1873  17.248   4.721  15.344  0.3355 -0.2477  0.0835
  157DPPC   PO4 1874  17.311   4.920  15.704  0.0402 -0.1021 -0.0101
  157DPPC   GL1 1875  17.417   5.079  16.132 -0.0481  0.0904 -0.2135
  157DPPC   GL2 1876  17.568   4.775  16.182  0.0109 -0.2772 -0.1728
  157DPPC   C1A 1877  17.345   5.076  16.473 -0.0378  0.2990 -0.1274
  157DPPC   C2A 1878  17.357   5.193  16.868  0.3307  0.2246  0.0343
  157DPPC   C3A 1879  17.398   5.195  17.344 -0.1075  0.3910  0.1671
  157DPPC   C4A 1880  17.428   5.187  17.840 -0.1314  0.1586  0.0532
  157DPPC   C1B 1881  17.451   4.679  16.523  0.0662  0.1673 -0.0042
  157DPPC   C2B 1882  17.489   4.716  16.899 -0.2648  0.0833 -0.2580
  157DPPC   C3B 1883  17.442   4.671  17.403 -0.1981  0.0099 -0.2211
  157DPPC   C4B 1884  17.587   4.605  17.880  0.4674 -0.2570  0.0884
  158DPPC   NC3 1885  20.017   1.406  15.247  0.1129 -0.1234  0.0223
  158DPPC   PO4 1886  20.295   1.218  15.405 -0.1176 -0.0830 -0.0674
  158DPPC   GL1 1887  20.513   1.278  15.737  0.1227 -0.1290 -0.3719
  158DPPC   GL2 1888  20.721   1.312  15.905 -0.0347 -0.3312  0.6987
  158DPPC   C1A 1889  20.232   1.211  15.979 -0.2933  0.1712  0.0300
  158DPPC   C2A 1890  19.973   1.162  16.315 -0.1860 -0.0319 -0.0874
  158DPPC   C3A 1891  20.030   1.212  16.766 -0.1086  0.0575 -0.1076
  158DPPC   C4A 1892  20.033   1.209  17.286  0.2137 -0.2255 -0.1376
  158DPPC   C1B 1893  20.790   1.402  16.236 -0.3017 -0.1262 -0.3123
  158DPPC   C2B 1894  20.893   1.328  16.597  0.0040 -0.0254  0.3017
  158DPPC   C3B 1895  20.878   1.269  17.083  0.2225  0.1764  0.2117
  158DPPC   C4B 1896  20.864   1.312  17.556 -0.0758 -0.0728 -0.0629
  159DPPC   NC3 1897  16.667   0.912  15.620  0.0857  0.0663 -0.2208
  159DPPC   PO4 1898  16.276   1.032  15.706 -0.0604 -0.1614  0.0185
  159DPPC   GL1 1899  16.122   1.212  16.097 -0.2332 -0.3387  0.1226
  159DPPC   GL2 1900  16.323   1.044  16.248  0.1288 -0.2899  0.0880
  159DPPC   C1A 1901  15.876   1.347  16.318 -0.2501  0.1060  0.3304
  159DPPC   C2A 1902  15.691   1.512  16.652 -0.2535 -0.0654  0.0647
  159DPPC   C3A 1903  15.666   1.546  17.105  0.2254 -0.1914 -0.4114
  159DPPC   C4A 1904  15.652   1.536  17.601 -0.1885  0.1966 -0.0989
  159DPPC   C1B 1905  16.253   0.989  16.628 -0.1325  0.2294 -0.1680
  159DPPC   C2B 1906  16.181   0.929  17.034 -0.0458  0.0175  0.2869
  159DPPC   C3B 1907  16.152   0.882  17.476  0.0695 -0.2522 -0.1558
  159DPPC   C4B 1908  16.187   0.891  17.959 -0.0280  0.6470  0.0447
  160DPPC   NC3 1909  19.534   0.314  15.690 -0.3025  0.0035  0.0507
  160DPPC   PO4 1910  19.193   0.157  15.575  0.1007  0.3345  0.1118
  160DPPC   GL1 1911  19.014   0.243  16.030 -0.0174  0.0544  0.2584
  160DPPC   GL2 1912  19.063  -0.073  16.046  0.0102 -0.0421  0.1035
  160DPPC   C1A 1913  18.896   0.523  16.243 -0.0402  0.3639 -0.2042
  160DPPC   C2A 1914  18.832   0.717  16.624  0.1886  0.0602  0.1278
  160DPPC   C3A 1915  18.778   0.841  17.044 -0.1628 -0.0969  0.0248
  160DPPC   C4A 1916  18.792   0.811  17.540  0.2931  0.2966  0.2402
  160DPPC   C1B 1917  18.928  -0.222  16.368  0.0272 -0.1200 -0.1836
  160DPPC   C2B 1918  19.010  -0.222  16.806 -0.3069  0.0404 -0.1504
  160DPPC   C3B 1919  19.029  -0.163  17.318 -0.2748 -0.1105  0.0894
  160DPPC   C4B 1920  18.998  -0.139  17.820  0.2435 -0.2961  0.1487
  161DPPC   NC3 1921  17.597   0.322  15.927  0.2120  0.0572 -0.0896
  161DPPC   PO4 1922  17.881   0.609  15.906  0.1317 -0.1031 -0.6505
  161DPPC   GL1 1923  17.985   0.760  16.281  0.0256 -0.1442 -0.2949
  161DPPC   GL2 1924  18.206   0.899  16.176  0.2365  0.0581 -0.3026
  161DPPC   C1A 1925  17.953   0.725  16.659  0.1565 -0.1036  0.1088
  161DPPC   C2A 1926  17.986   0.634  17.031 -0.0602 -0.0566 -0.0673
  161DPPC   C3A 1927  17.971   0.644  17.494  0.0886  0.4047  0.2168
  161DPPC   C4A 1928  17.956   0.675  18.008  0.2406  0.1936  0.0871
  161DPPC   C1B 1929  18.322   0.985  16.503  0.2468 -0.2101 -0.0711
  161DPPC   C2B 1930  18.313   1.065  16.888 -0.2449  0.2257 -0.0892
  161DPPC   C3B 1931  18.334   1.052  17.365  0.0389 -0.0289  0.1779
  161DPPC   C4B 1932  18.300   1.039  17.820  0.0284 -0.0107  0.2582
  162DPPC   NC3 1933  17.806   5.061  15.806 -0.0535  0.0847  0.0208
  162DPPC   PO4 1934  18.145   5.167  15.885 -0.1092 -0.0867 -0.1348
  162DPPC   GL1 1935  18.094   5.135  16.265 -0.1446  0.0043 -0.2370
  162DPPC   GL2 1936  17.817   5.137  16.332 -0.3939  0.0127  0.1665
  162DPPC   C1A 1937  18.319   4.927  16.479 -0.0540  0.3088 -0.2949
  162DPPC   C2A 1938  18.301   4.802  16.903 -0.1391 -0.1573 -0.2269
  162DPPC   C3A 1939  18.346   4.759  17.447 -0.0502 -0.1152 -0.1257
  162DPPC   C4A 1940  18.301   4.802  17.977 -0.1250 -0.3707  0.0549
  162DPPC   C1B 1941  17.891   4.941  16.678  0.2470  0.3600 -0.2002
  162DPPC   C2B 1942  17.873   4.948  17.145 -0.2719  0.0423  0.1041
  162DPPC   C3B 1943  17.885   5.016  17.670 -0.0466 -0.1067 -0.1333
  162DPPC   C4B 1944  17.846   5.001  18.114  0.1571  0.2894  0.1015
  163DPPC   NC3 1945  15.991   0.443  15.355 -0.1262  0.0044 -0.1953
  163DPPC   PO4 1946  15.912   0.283  15.721 -0.0334  0.0855 -0.0435
  163DPPC   GL1 1947  15.925   0.365  16.128  0.3325 -0.0041  0.2163
  163DPPC   GL2 1948  16.046   0.075  16.228  0.1612 -0.1378  0.1529
  163DPPC   C1A 1949  15.801   0.416  16.502 -0.0903  0.1379  0.4298
  163DPPC   C2A 1950  15.780   0.576  16.851  0.0692  0.1160 -0.0530
  163DPPC   C3A 1951  15.758   0.599  17.291  0.0792  0.0748  0.1754
  163DPPC   C4A 1952  15.640   0.579  17.757  0.0204  0.0513 -0.0070
  163DPPC   C1B 1953  16.223   0.120  16.575  0.4031  0.2737 -0.0028
  163DPPC   C2B 1954  16.322  -0.095  16.904 -0.2421 -0.2309  0.2366
  163DPPC   C3B 1955  16.364  -0.133  17.347 -0.1236  0.0341 -0.0683
  163DPPC   C4B 1956  16.213  -0.248  17.804  0.0165 -0.1774  0.0070
  164DPPC   NC3 1957  20.846   5.729  15.808  0.1303 -0.1090  0.1599
  164DPPC   PO4 1958  20.748   5.476  15.497  0.0648 -0.0044  0.1581
  164DPPC   GL1 1959  20.728   5.267  15.890 -0.0552 -0.0154  0.1987
  164DPPC   GL2 1960  20.452   5.349  15.944  0.1722  0.1520  0.0231
  164DPPC   C1A 1961  20.810   5.425  16.219 -0.3558 -0.1908 -0.3512
  164DPPC   C2A 1962  20.803   5.509  16.627  0.0519 -0.0941  0.1149
  164DPPC   C3A 1963  20.789   5.649  17.083 -0.1090  0.0428 -0.1913
  164DPPC   C4A 1964  20.826   5.656  17.581 -0.1680  0.3045  0.1068
  164DPPC   C1B 1965  20.301   5.380  16.255 -0.1437 -0.0539 -0.2216
  164DPPC   C2B 1966  20.097   5.445  16.589 -0.2150 -0.1335 -0.0976
  164DPPC   C3B 1967  19.941   5.527  17.048  0.0220 -0.3460 -0.0220
  164DPPC   C4B 1968  19.962   5.514  17.559  0.1661 -0.1211 -0.0825
  165DPPC   NC3 1969  21.341   0.823  15.416 -0.0585  0.1730 -0.0677
  165DPPC   PO4 1970  21.664   1.038  15.504 -0.1107 -0.3289 -0.0075
  165DPPC   GL1 1971  21.625   1.202  15.865  0.0367 -0.1222  0.1444
  165DPPC   GL2 1972  21.423   0.943  15.949  0.0162 -0.1510 -0.0141
  165DPPC   C1A 1973  21.654   1.393  16.209 -0.1866 -0.3319  0.4858
  165DPPC   C2A 1974  21.674   1.482  16.532 -0.0326 -0.2128  0.1610
  165DPPC   C3A 1975  21.731   1.457  17.041  0.0981  0.1659  0.0012
  165DPPC   C4A 1976  21.755   1.439  17.502  0.1208 -0.1555 -0.1851
  165DPPC   C1B 1977  21.385   0.684  16.249 -0.1092 -0.1803  0.0060
  165DPPC   C2B 1978  21.459   0.644  16.674 -0.0653 -0.1999 -0.1151
  165DPPC   C3B 1979  21.431   0.676  17.156  0.1396  0.2888 -0.2546
  165DPPC   C4B 1980  21.446   0.640  17.605 -0.4570 -0.1442 -0.1432
  166DPPC   NC3 1981  20.309   6.196  15.547  0.1207 -0.1660  0.3991
  166DPPC   PO4 1982  20.721   6.205  15.630  0.3507 -0.2140  0.2888
  166DPPC   GL1 1983  20.916   6.541  15.822 -0.0257  0.1818 -0.0157
  166DPPC   GL2 1984  21.048   6.261  15.883  0.2456 -0.2919 -0.2349
  166DPPC   C1A 1985  20.744   6.670  16.098 -0.2326 -0.0397 -0.2279
  166DPPC   C2A 1986  20.704   6.617  16.490  0.1270  0.0881 -0.0543
  166DPPC   C3A 1987  20.715   6.564  16.954 -0.2562 -0.0186  0.1488
  166DPPC   C4A 1988  20.623   6.596  17.457 -0.1256 -0.1285  0.0332
  166DPPC   C1B 1989  21.057   6.367  16.257  0.0623 -0.2838  0.0736
  166DPPC   C2B 1990  21.136   6.422  16.690 -0.0525  0.4331  0.3220
  166DPPC   C3B 1991  21.134   6.419  17.171 -0.0844  0.0766  0.0213
  166DPPC   C4B 1992  21.191   6.473  17.626 -0.0314 -0.2061  0.1365
  167DPPC   NC3 1993  17.008   5.225  15.987  0.0347  0.1831 -0.1759
  167DPPC   PO4 1994  17.044   5.615  15.999  0.0490 -0.2402 -0.1074
  167DPPC   GL1 1995  17.172   5.963  16.293  0.1702 -0.1528 -0.0035
  167DPPC   GL2 1996  17.273   5.727  16.408 -0.1714  0.1193 -0.1764
  167DPPC   C1A 1997  17.138   6.130  16.646  0.0053 -0.0909  0.2453
  167DPPC   C2A 1998  17.240   6.186  17.035  0.0208  0.1711  0.0289
  167DPPC   C3A 1999  17.237   6.090  17.489  0.4231 -0.1806  0.2252
  167DPPC   C4A 2000  17.131   6.145  17.943 -0.0729 -0.0172 -0.2939
  167DPPC   C1B 2001  17.277   5.665  16.765 -0.0946 -0.3358 -0.2624
  167DPPC   C2B 2002  17.293   5.671  17.165  0.3873 -0.3489 -0.3358
  167DPPC   C3B 2003  17.303   5.668  17.669 -0.2440  0.0095 -0.1199
  167DPPC   C4B 2004  17.246   5.630  18.187  0.0268 -0.0627  0.0875
  168DPPC   NC3 2005  16.761   6.511  15.694  0.1002  0.1239 -0.2116
  168DPPC   PO4 2006  16.680   6.156  15.897  0.2396 -0.1816  0.0136
  168DPPC   GL1 2007  16.750   6.226  16.374 -0.2662  0.2553 -0.0669
  168DPPC   GL2 2008  16.473   6.331  16.303 -0.0355  0.5926 -0.0781
  168DPPC   C1A 2009  16.757   6.348  16.719  0.0611  0.0229 -0.0352
  168DPPC   C2A 2010  16.729   6.282  17.130 -0.0164  0.1419 -0.0112
  168DPPC   C3A 2011  16.732   6.303  17.651 -0.0120  0.2715 -0.1047
  168DPPC   C4A 2012  16.681   6.253  18.130 -0.5103 -0.0365 -0.0513
  168DPPC   C1B 2013  16.085   6.332  16.436  0.4225  0.0328  0.2326
  168DPPC   C2B 2014  15.891   6.187  16.745 -0.0782  0.0075  0.1467
  168DPPC   C3B 2015  15.939   6.186  17.233 -0.0877 -0.0840  0.1700
  168DPPC   C4B 2016  15.855   6.037  17.684  0.1723 -0.1868  0.1945
  169DPPC   NC3 2017  19.289   4.050  15.128  0.0959  0.0930  0.0056
  169DPPC   PO4 2018  19.354   4.080  15.519  0.0931 -0.0943  0.1424
  169DPPC   GL1 2019  19.389   4.456  15.866  0.0710 -0.1211 -0.2797
  169DPPC   GL2 2020  19.054   4.380  15.761  0.3250 -0.3381 -0.0727
  169DPPC   C1A 2021  19.450   4.639  16.183  0.0656 -0.2489 -0.1995
  169DPPC   C2A 2022  19.592   4.735  16.552  0.2625  0.1950 -0.2153
  169DPPC   C3A 2023  19.651   4.730  17.025  0.2181 -0.2019 -0.2022
  169DPPC   C4A 2024  19.629   4.710  17.502 -0.1177 -0.0301  0.1918
  169DPPC   C1B 2025  19.020   4.675  16.007 -0.3262 -0.1228  0.1193
  169DPPC   C2B 2026  19.120   4.913  16.337 -0.0046 -0.0196  0.2695
  169DPPC   C3B 2027  19.176   4.974  16.841  0.0508  0.1946  0.0456
  169DPPC   C4B 2028  19.166   4.965  17.345  0.2102  0.3703  0.1612
  170DPPC   NC3 2029  15.986   2.859  16.071 -0.3229  0.3011  0.0899
  170DPPC   PO4 2030  15.862   3.197  16.028  0.1342 -0.0990 -0.1388
  170DPPC   GL1 2031  15.956   3.278  16.475 -0.0310  0.1106  0.0258
  170DPPC   GL2 2032  16.188   3.137  16.430 -0.3434  0.0877  0.0346
  170DPPC   C1A 2033  15.884   3.442  16.812 -0.2761  0.0697 -0.0017
  170DPPC   C2A 2034  15.736   3.377  17.167 -0.0111 -0.0725 -0.0039
  170DPPC   C3A 2035  15.761   3.377  17.650 -0.2399  0.2428 -0.1828
  170DPPC   C4A 2036  15.799   3.430  18.131  0.1258 -0.2014  0.0110
  170DPPC   C1B 2037  16.278   3.301  16.735 -0.1742 -0.0465  0.0652
  170DPPC   C2B 2038  16.271   3.241  17.106  0.0378 -0.2450 -0.1870
  170DPPC   C3B 2039  16.282   3.267  17.568  0.3067  0.2489 -0.0174
  170DPPC   C4B 2040  16.271   3.210  18.083 -0.1431  0.0754 -0.1943
  171DPPC   NC3 2041  16.630   3.942  15.583  0.2332  0.3633 -0.0122
  171DPPC   PO4 2042  16.719   3.672  15.844  0.2815 -0.0063 -0.2225
  171DPPC   GL1 2043  16.756   3.549  16.139 -0.1400  0.1349  0.2000
  171DPPC   GL2 2044  16.999   3.661  16.200  0.0940 -0.1524 -0.2274
  171DPPC   C1A 2045  16.620   3.536  16.453  0.3078 -0.1534  0.2667
  171DPPC   C2A 2046  16.715   3.639  16.797 -0.2138 -0.1117  0.1597
  171DPPC   C3A 2047  16.730   3.551  17.250 -0.1164 -0.0794 -0.1465
  171DPPC   C4A 2048  16.622   3.512  17.729 -0.0252 -0.2162 -0.0647
  171DPPC   C1B 2049  17.097   3.850  16.544 -0.0927  0.1358 -0.1569
  171DPPC   C2B 2050  17.139   3.895  16.964 -0.1872  0.0379 -0.2439
  171DPPC   C3B 2051  17.138   3.846  17.471  0.1227 -0.1419 -0.3837
  171DPPC   C4B 2052  16.984   3.778  17.973 -0.1587 -0.1960  0.2154
  172DPPC   NC3 2053  17.809   1.828  15.950  0.1397 -0.1465  0.2673
  172DPPC   PO4 2054  17.701   1.455  15.873 -0.0707 -0.0512  0.0217
  172DPPC   GL1 2055  17.670   1.181  16.191 -0.0341 -0.5015 -0.3866
  172DPPC   GL2 2056  17.483   1.438  16.309 -0.0379  0.3923 -0.1107
  172DPPC   C1A 2057  17.848   1.092  16.469  0.1347 -0.2336 -0.3997
  172DPPC   C2A 2058  17.818   1.159  16.820  0.1199 -0.2586  0.1291
  172DPPC   C3A 2059  17.854   1.153  17.288 -0.0774  0.3147  0.0776
  172DPPC   C4A 2060  17.790   1.124  17.754  0.0864 -0.1847 -0.1914
  172DPPC   C1B 2061  17.448   1.389  16.633 -0.1086 -0.0095 -0.2422
  172DPPC   C2B 2062  17.404   1.412  17.043 -0.0403 -0.0845 -0.0553
  172DPPC   C3B 2063  17.394   1.338  17.516 -0.1580  0.0225 -0.2572
  172DPPC   C4B 2064  17.352   1.173  17.993  0.1299  0.2816 -0.1036
  173DPPC   NC3 2065  21.206   5.440  15.342 -0.0162  0.0118 -0.0437
  173DPPC   PO4 2066  21.107   5.834  15.374 -0.4167  0.2351 -0.0801
  173DPPC   GL1 2067  21.292   5.939  15.790  0.0516  0.3652 -0.0626
  173DPPC   GL2 2068  21.551   5.967  15.678 -0.1142 -0.1123 -0.2322
  173DPPC   C1A 2069  21.204   5.819  16.165 -0.0191 -0.1305  0.2811
  173DPPC   C2A 2070  21.114   5.887  16.560  0.2103  0.0168  0.0389
  173DPPC   C3A 2071  21.233   5.954  17.004 -0.2536  0.0049  0.1689
  173DPPC   C4A 2072  21.232   5.959  17.485 -0.0431  0.1067  0.0678
  173DPPC   C1B 2073  21.846   5.925  15.920  0.1104  0.0946  0.0382
  173DPPC   C2B 2074  22.041   6.079  16.266 -0.0518  0.1059  0.1130
  173DPPC   C3B 2075  21.963   6.079  16.723  0.0737 -0.2142  0.0821
  173DPPC   C4B 2076  21.987   6.140  17.176  0.1675  0.0713 -0.1519
  174DPPC   NC3 2077  20.883   1.261  15.422 -0.2850 -0.1655  0.0765
  174DPPC   PO4 2078  21.184   1.243  15.665  0.2543  0.0052  0.3084
  174DPPC   GL1 2079  21.276   1.319  16.034 -0.0036 -0.4978 -0.4217
  174DPPC   GL2 2080  21.292   1.587  16.068  0.1189 -0.1088 -0.1409
  174DPPC   C1A 2081  21.343   1.087  16.354 -0.0185  0.2597 -0.1881
  174DPPC   C2A 2082  21.342   1.132  16.776 -0.2203  0.2462  0.1622
  174DPPC   C3A 2083  21.338   1.196  17.245 -0.1914  0.0566  0.1555
  174DPPC   C4A 2084  21.321   1.109  17.691 -0.0878 -0.2674 -0.0014
  174DPPC   C1B 2085  21.254   1.621  16.457  0.1700 -0.2173 -0.0430
  174DPPC   C2B 2086  21.257   1.604  16.896 -0.2384 -0.0440  0.0446
  174DPPC   C3B 2087  21.214   1.680  17.352  0.1185  0.1421 -0.0872
  174DPPC   C4B 2088  21.268   1.694  17.840  0.1742  0.3580  0.2918
  175DPPC   NC3 2089  20.671   0.340  15.117  0.1039  0.0906 -0.1129
  175DPPC   PO4 2090  20.422   0.114  15.377 -0.0835 -0.3778 -0.0823
  175DPPC   GL1 2091  20.472   0.131  15.770  0.2049 -0.2263  0.1784
  175DPPC   GL2 2092  20.427  -0.119  15.861  0.0360  0.0081 -0.0530
  175DPPC   C1A 2093  20.263   0.213  16.123  0.1880  0.1368 -0.0983
  175DPPC   C2A 2094  20.258   0.189  16.573  0.1966  0.0951 -0.3118
  175DPPC   C3A 2095  20.224   0.176  17.085  0.0210  0.1698  0.1953
  175DPPC   C4A 2096  20.196   0.204  17.590 -0.2115  0.0481  0.0252
  175DPPC   C1B 2097  20.351  -0.290  16.184  0.1480 -0.2453 -0.1238
  175DPPC   C2B 2098  20.332  -0.341  16.595 -0.0651 -0.0480  0.2119
  175DPPC   C3B 2099  20.307  -0.278  17.147 -0.1093  0.1795  0.2472
  175DPPC   C4B 2100  20.278  -0.262  17.598  0.0808  0.1650  0.2569
  176DPPS   CNO 2101  20.106   1.932  15.180  0.3030 -0.0167 -0.3180
  176DPPS   PO4 2102  20.372   2.059  15.439 -0.0946 -0.2108 -0.0366
  176DPPS   GL1 2103  20.467   2.078  15.884  0.0644  0.0279  0.1358
  176DPPS   GL2 2104  20.521   1.781  15.870  0.0635  0.1915  0.2304
  176DPPS   C1A 2105  20.281   2.073  16.225  0.4620 -0.0160  0.1429
  176DPPS   C2A 2106  20.321   1.970  16.629 -0.2051  0.4450  0.1752
  176DPPS   C3A 2107  20.257   1.996  17.085 -0.3432 -0.1349  0.0421
  176DPPS   C4A 2108  20.373   2.007  17.590 -0.2844  0.0114 -0.0878
  176DPPS   C1B 2109  20.395   1.572  16.157 -0.0116  0.2466  0.2055
  176DPPS   C2B 2110  20.435   1.456  16.538  0.1184 -0.0223 -0.0375
  176DPPS   C3B 2111  20.416   1.434  17.052  0.0992 -0.1742  0.0532
  176DPPS   C4B 2112  20.371   1.504  17.507  0.0249 -0.0807  0.2597
  177DPPS   CNO 2113  20.024   0.851  15.352  0.2702 -0.2007  0.0365
  177DPPS   PO4 2114  19.726   0.733  15.507  0.0744 -0.0252 -0.1374
  177DPPS   GL1 2115  19.711   0.701  15.901  0.0477 -0.0508 -0.0053
  177DPPS   GL2 2116  19.587   0.940  15.903  0.7256  0.3655  0.1191
  177DPPS   C1A 2117  19.897   0.648  16.189 -0.0998 -0.4010 -0.0323
  177DPPS   C2A 2118  20.113   0.686  16.545 -0.1168 -0.0660 -0.0404
  177DPPS   C3A 2119  20.105   0.741  17.057 -0.1122  0.0147 -0.1435
  177DPPS   C4A 2120  20.113   0.761  17.568 -0.2285 -0.1511 -0.0290
  177DPPS   C1B 2121  19.583   0.925  16.251 -0.2917 -0.0974  0.6577
  177DPPS   C2B 2122  19.634   0.831  16.630  0.2176 -0.1896  0.2797
  177DPPS   C3B 2123  19.609   0.864  17.139 -0.0712  0.0301 -0.1371
  177DPPS   C4B 2124  19.636   0.892  17.622 -0.2354  0.0930  0.0521
  178DPPS   CNO 2125  18.323   0.819  15.519 -0.1978  0.1364  0.4035
  178DPPS   PO4 2126  18.319   0.459  15.708  0.1440 -0.1429 -0.0776
  178DPPS   GL1 2127  18.508   0.532  16.036  0.0511 -0.2848  0.5580
  178DPPS   GL2 2128  18.602   0.800  16.037  0.2025  0.1396  0.4154
  178DPPS   C1A 2129  18.445   0.606  16.373 -0.1539  0.2077 -0.0590
  178DPPS   C2A 2130  18.404   0.485  16.745  0.2307 -0.1137  0.0701
  178DPPS   C3A 2131  18.418   0.532  17.231  0.0133  0.0886  0.0082
  178DPPS   C4A 2132  18.407   0.528  17.704  0.2324 -0.0300  0.1000
  178DPPS   C1B 2133  18.729   0.995  16.306 -0.2893 -0.4344 -0.2787
  178DPPS   C2B 2134  18.748   1.224  16.683 -0.2042  0.0949  0.0628
  178DPPS   C3B 2135  18.703   1.314  17.170  0.1362  0.1713 -0.0684
  178DPPS   C4B 2136  18.740   1.325  17.650 -0.0702  0.3947  0.0624
  179DPPS   CNO 2137  19.731   5.599  15.311  0.0726 -0.1579  0.3682
  179DPPS   PO4 2138  19.700   5.533  15.698 -0.1229 -0.0696  0.0083
  179DPPS   GL1 2139  19.858   5.674  16.028  0.1365  0.0346  0.2295
  179DPPS   GL2 2140  19.886   5.408  16.165 -0.3195  0.1749  0.2291
  179DPPS   C1A 2141  20.058   5.820  16.320 -0.1647  0.2902  0.0373
  179DPPS   C2A 2142  19.857   5.964  16.688 -0.1935 -0.0014  0.3173
  179DPPS   C3A 2143  19.878   6.028  17.170  0.1705  0.2693  0.0116
  179DPPS   C4A 2144  19.905   5.991  17.669 -0.0137  0.0978  0.2398
  179DPPS   C1B 2145  19.680   5.250  16.393  0.0625 -0.0431  0.2462
  179DPPS   C2B 2146  19.632   5.216  16.782 -0.0352  0.4400  0.1248
  179DPPS   C3B 2147  19.551   5.253  17.183 -0.0220  0.2351  0.3541
  179DPPS   C4B 2148  19.499   5.223  17.706  0.0091  0.1483  0.0524
  180DPPS   CNO 2149  17.833   1.975  15.388 -0.0009  0.3902  0.0007
  180DPPS   PO4 2150  17.865   2.282  15.570 -0.1331 -0.3300  0.0327
  180DPPS   GL1 2151  17.831   2.258  15.929  0.2033  0.0916 -0.0464
  180DPPS   GL2 2152  17.902   2.565  16.035  0.1959 -0.2592 -0.0042
  180DPPS   C1A 2153  17.872   2.127  16.267  0.2419  0.2165 -0.2086
  180DPPS   C2A 2154  17.663   2.157  16.643  0.3479 -0.2525  0.3629
  180DPPS   C3A 2155  17.682   2.154  17.117 -0.1522 -0.1422  0.0052
  180DPPS   C4A 2156  17.725   2.149  17.595 -0.0223  0.0769 -0.0270
  180DPPS   C1B 2157  17.945   2.767  16.300  0.1147  0.0253 -0.3122
  180DPPS   C2B 2158  17.970   2.870  16.729  0.2571 -0.0155  0.3829
  180DPPS   C3B 2159  18.021   2.920  17.198 -0.0532  0.0087  0.1445
  180DPPS   C4B 2160  18.075   2.930  17.673  0.2188 -0.0581 -0.2070
  181DPPS   CNO 2161  18.226   1.657  15.250 -0.0534 -0.0332  0.2793
  181DPPS   PO4 2162  18.127   1.519  15.611  0.1820  0.2175 -0.0786
  181DPPS   GL1 2163  18.184   1.508  15.989  0.1398 -0.3434  0.2008
  181DPPS   GL2 2164  18.037   1.363  16.170 -0.4390 -0.1183  0.1834
  181DPPS   C1A 2165  18.325   1.798  16.224 -0.2263  0.1874  0.2034
  181DPPS   C2A 2166  18.158   1.908  16.638  0.1544  0.0188 -0.2709
  181DPPS   C3A 2167  18.173   1.983  17.106 -0.3222  0.2139 -0.2139
  181DPPS   C4A 2168  18.188   1.979  17.575 -0.1274 -0.0029  0.2930
  181DPPS   C1B 2169  17.908   1.582  16.413  0.1766 -0.3622 -0.1955
  181DPPS   C2B 2170  17.754   1.688  16.805 -0.0979 -0.1177 -0.2299
  181DPPS   C3B 2171  17.744   1.664  17.257  0.0122  0.0450 -0.1037
  181DPPS   C4B 2172  17.793   1.639  17.749  0.0505  0.0416  0.0287
  182DPPS   CNO 2173  19.181   6.348  15.302 -0.2267  0.1357 -0.0561
  182DPPS   PO4 2174  19.543   6.452  15.384  0.2033 -0.1151 -0.2210
  182DPPS   GL1 2175  19.540   6.463  15.843  0.0565 -0.0030  0.1773
  182DPPS   GL2 2176  19.575   6.238  15.914  0.0234  0.0005  0.0034
  182DPPS   C1A 2177  19.446   6.493  16.231 -0.0852 -0.0055 -0.0546
  182DPPS   C2A 2178  19.371   6.687  16.609  0.2766  0.0154  0.2065
  182DPPS   C3A 2179  19.426   6.724  17.098  0.4009 -0.0855 -0.0417
  182DPPS   C4A 2180  19.444   6.714  17.595 -0.0477 -0.0617 -0.1890
  182DPPS   C1B 2181  19.608   5.974  16.204 -0.0735  0.2460  0.1386
  182DPPS   C2B 2182  19.530   5.656  16.516  0.2893 -0.1244  0.0117
  182DPPS   C3B 2183  19.469   5.688  16.963 -0.0715  0.0202  0.2317
  182DPPS   C4B 2184  19.498   5.698  17.433 -0.4859 -0.2596 -0.0725
  183DPPS   CNO 2185  20.248   5.477  15.489  0.1503  0.0081 -0.0923
  183DPPS   PO4 2186  20.244   5.721  15.774 -0.0832 -0.1566  0.1922
  183DPPS   GL1 2187  20.494   5.741  16.171  0.1607 -0.0567  0.1933
  183DPPS   GL2 2188  20.576   5.984  16.040  0.1197  0.0893 -0.1063
  183DPPS   C1A 2189  20.422   5.767  16.540 -0.0997  0.0966  0.1000
  183DPPS   C2A 2190  20.351   5.810  16.953 -0.0197  0.0261 -0.0142
  183DPPS   C3A 2191  20.314   5.851  17.418 -0.0938  0.2313  0.3356
  183DPPS   C4A 2192  20.319   5.915  17.905  0.2859 -0.2104  0.3337
  183DPPS   C1B 2193  20.676   6.110  16.360  0.0836  0.2415 -0.0534
  183DPPS   C2B 2194  20.730   6.069  16.807 -0.1267 -0.0127  0.0535
  183DPPS   C3B 2195  20.769   6.113  17.279 -0.2225  0.1243  0.0762
  183DPPS   C4B 2196  20.781   6.151  17.745 -0.0021 -0.1684  0.0217
  184DPPS   CNO 2197  21.076   0.977  15.005  0.3077  0.0413  0.1151
  184DPPS   PO4 2198  20.806   0.781  15.214  0.0900 -0.1229 -0.1974
  184DPPS   GL1 2199  20.840   0.806  15.632 -0.0934  0.2267  0.3503
  184DPPS   GL2 2200  21.016   0.757  15.759  0.2308  0.4005  0.1087
  184DPPS   C1A 2201  20.606   0.881  15.931 -0.1202  0.0832  0.2976
  184DPPS   C2A 2202  20.480   1.027  16.298 -0.1139  0.6553 -0.0645
  184DPPS   C3A 2203  20.509   0.945  16.775  0.0108 -0.1787  0.1562
  184DPPS   C4A 2204  20.504   0.975  17.296  0.0556 -0.0451  0.2870
  184DPPS   C1B 2205  20.968   0.854  16.118  0.0797 -0.2540 -0.3284
  184DPPS   C2B 2206  20.954   0.781  16.531  0.1511 -0.2633 -0.0849
  184DPPS   C3B 2207  21.014   0.817  16.984  0.0634 -0.1695  0.0771
  184DPPS   C4B 2208  20.968   0.817  17.510  0.0414 -0.1966  0.2081
  185DPPS   CNO 2209  17.586   6.128  15.544 -0.0991 -0.1027  0.0951
  185DPPS   PO4 2210  17.572   6.469  15.753  0.2834  0.0827 -0.1398
  185DPPS   GL1 2211  17.395   6.498  16.160 -0.0001 -0.0749  0.4482
  185DPPS   GL2 2212  17.480   6.296  16.262 -0.0289  0.3357  0.2925
  185DPPS   C1A 2213  17.519   6.782  16.374  0.0873  0.1745 -0.3921
  185DPPS   C2A 2214  17.585   6.976  16.757  0.0189 -0.0381  0.1095
  185DPPS   C3A 2215  17.637   6.955  17.271 -0.0133  0.2393 -0.1577
  185DPPS   C4A 2216  17.512   6.862  17.775 -0.0369 -0.1757 -0.2700
  185DPPS   C1B 2217  17.599   6.417  16.576 -0.3349  0.2767  0.2206
  185DPPS   C2B 2218  17.570   6.515  16.982 -0.0056  0.0295  0.1255
  185DPPS   C3B 2219  17.682   6.449  17.494 -0.3113  0.0403  0.0192
  185DPPS   C4B 2220  17.514   6.400  17.939  0.2278  0.1941 -0.2528
  186DPPS   CNO 2221  17.371   2.052  15.594  0.0023  0.1001 -0.1336
  186DPPS   PO4 2222  17.388   2.176  15.963 -0.0337  0.1100  0.1129
  186DPPS   GL1 2223  17.353   1.968  16.273 -0.1225 -0.1667 -0.1109
  186DPPS   GL2 2224  17.222   1.727  16.150 -0.0785 -0.1082  0.0469
  186DPPS   C1A 2225  17.342   1.875  16.646  0.2720 -0.0662  0.0659
  186DPPS   C2A 2226  17.229   1.857  17.066  0.2226 -0.3168 -0.0312
  186DPPS   C3A 2227  17.324   1.839  17.477 -0.1667  0.1213  0.0154
  186DPPS   C4A 2228  17.371   1.815  17.939  0.0700 -0.1837  0.1113
  186DPPS   C1B 2229  17.042   1.482  16.360 -0.1395 -0.1779  0.0340
  186DPPS   C2B 2230  16.910   1.523  16.781  0.1647  0.0303 -0.0907
  186DPPS   C3B 2231  16.947   1.520  17.305  0.1229  0.2559 -0.1264
  186DPPS   C4B 2232  16.983   1.494  17.817 -0.1679  0.2313  0.1565
  187DPPS   CNO 2233  18.632   2.958  15.465  0.0152  0.1630 -0.0441
  187DPPS   PO4 2234  18.899   2.710  15.567  0.0334 -0.0512 -0.0584
  187DPPS   GL1 2235  19.008   2.669  15.939 -0.1453  0.2390 -0.0240
  187DPPS   GL2 2236  19.199   2.426  15.979  0.0866  0.1316 -0.1458
  187DPPS   C1A 2237  18.889   2.835  16.240 -0.0504  0.0228  0.1792
  187DPPS   C2A 2238  18.856   3.045  16.604  0.0876  0.0773  0.3081
  187DPPS   C3A 2239  18.837   3.063  17.111  0.2751 -0.0851 -0.0876
  187DPPS   C4A 2240  18.892   3.126  17.549  0.0491 -0.2705 -0.1204
  187DPPS   C1B 2241  19.352   2.500  16.322 -0.0963 -0.0974 -0.2756
  187DPPS   C2B 2242  19.429   2.382  16.722  0.2296  0.0962 -0.0223
  187DPPS   C3B 2243  19.382   2.405  17.227 -0.0833  0.0928 -0.2444
  187DPPS   C4B 2244  19.494   2.446  17.700 -0.0020  0.2058  0.2636
  188DPPS   CNO 2245  21.563   6.130  15.222 -0.1526  0.0273  0.0433
  188DPPS   PO4 2246  21.814   6.265  15.434 -0.2342  0.1564 -0.0767
  188DPPS   GL1 2247  21.749   6.356  15.809 -0.3560 -0.1620  0.1563
  188DPPS   GL2 2248  22.041   6.429  15.870  0.0293  0.3346  0.1882
  188DPPS   C1A 2249  21.512   6.160  16.048  0.0449 -0.2220 -0.1078
  188DPPS   C2A 2250  21.549   6.155  16.465  0.2575 -0.1547  0.1357
  188DPPS   C3A 2251  21.576   6.266  16.944  0.1674  0.1045  0.0511
  188DPPS   C4A 2252  21.621   6.289  17.437 -0.2018 -0.2343 -0.1749
  188DPPS   C1B 2253  22.104   6.573  16.175  0.2215 -0.0706 -0.1494
  188DPPS   C2B 2254  22.034   6.567  16.549  0.1975  0.1450 -0.2234
  188DPPS   C3B 2255  21.982   6.648  17.037 -0.3074 -0.0084  0.0307
  188DPPS   C4B 2256  21.983   6.632  17.501 -0.2312  0.1895  0.0339
  189DPPS   CNO 2257  16.312   4.334  15.510  0.0248 -0.2736 -0.0489
  189DPPS   PO4 2258  16.434   4.560  15.778  0.0610  0.3144 -0.2039
  189DPPS   GL1 2259  16.234   4.465  16.123  0.0825  0.3445 -0.3838
  189DPPS   GL2 2260  16.448   4.580  16.263 -0.1649 -0.1232 -0.1647
  189DPPS   C1A 2261  16.187   4.291  16.426 -0.2102  0.2530 -0.2724
  189DPPS   C2A 2262  16.152   4.271  16.852 -0.0654 -0.0279 -0.2639
  189DPPS   C3A 2263  16.198   4.179  17.342  0.2753 -0.0962  0.3671
  189DPPS   C4A 2264  16.173   4.173  17.820  0.1250  0.1119 -0.1302
  189DPPS   C1B 2265  16.538   4.619  16.628 -0.1346  0.0224 -0.1489
  189DPPS   C2B 2266  16.536   4.572  17.017 -0.0536  0.0760 -0.0853
  189DPPS   C3B 2267  16.632   4.539  17.503  0.6076  0.1747 -0.0175
  189DPPS   C4B 2268  16.580   4.546  17.986  0.3158 -0.0645  0.0346
  190DPPS   CNO 2269  20.065   0.347  15.710  0.1596 -0.1877  0.0987
  190DPPS   PO4 2270  19.992   0.011  15.694  0.1630 -0.0047  0.1905
  190DPPS   GL1 2271  19.911   0.016  16.106  0.0419  0.1024  0.1093
  190DPPS   GL2 2272  19.734   0.223  16.142  0.4509  0.1679  0.0393
  190DPPS   C1A 2273  19.835  -0.164  16.469  0.4120 -0.1455  0.4609
  190DPPS   C2A 2274  19.808  -0.135  16.887  0.1647 -0.0863 -0.1257
  190DPPS   C3A 2275  19.842  -0.086  17.386  0.2443 -0.1214 -0.0385
  190DPPS   C4A 2276  19.823  -0.089  17.876  0.0558  0.0842 -0.1646
  190DPPS   C1B 2277  19.688   0.341  16.414 -0.0512  0.1438 -0.2693
  190DPPS   C2B 2278  19.784   0.401  16.881 -0.3737  0.0126  0.0676
  190DPPS   C3B 2279  19.774   0.453  17.386 -0.0002 -0.1522  0.1088
  190DPPS   C4B 2280  19.809   0.487  17.861 -0.0682 -0.3357  0.0729
  191DPPS   CNO 2281  19.598   1.589  15.048 -0.4790  0.1950 -0.3646
  191DPPS   PO4 2282  19.539   1.576  15.439 -0.3324  0.0675  0.0537
  191DPPS   GL1 2283  19.594   1.624  15.829  0.2347 -0.3190  0.0213
  191DPPS   GL2 2284  19.370   1.462  15.860  0.0131 -0.1931 -0.0775
  191DPPS   C1A 2285  19.766   1.530  16.108 -0.0152  0.1390  0.2206
  191DPPS   C2A 2286  19.953   1.643  16.490 -0.0084 -0.0195 -0.0811
  191DPPS   C3A 2287  19.937   1.659  16.954 -0.2233  0.0160 -0.0560
  191DPPS   C4A 2288  19.974   1.710  17.392  0.2636  0.1135  0.3281
  191DPPS   C1B 2289  19.385   1.371  16.204 -0.2011  0.0201 -0.0135
  191DPPS   C2B 2290  19.565   1.352  16.572 -0.3995 -0.0491 -0.0955
  191DPPS   C3B 2291  19.580   1.364  17.039 -0.1174 -0.2904  0.0828
  191DPPS   C4B 2292  19.570   1.383  17.540 -0.2944  0.7619 -0.0612
  192DPPS   CNO 2293  16.979   0.539  15.429 -0.1780 -0.0001  0.1565
  192DPPS   PO4 2294  16.728   0.407  15.706 -0.1135 -0.0383 -0.2710
  192DPPS   GL1 2295  16.781   0.538  16.037  0.3200 -0.1924 -0.1433
  192DPPS   GL2 2296  16.851   0.786  16.050  0.5387  0.1281 -0.2327
  192DPPS   C1A 2297  16.803   0.421  16.382  0.0595 -0.0786  0.2888
  192DPPS   C2A 2298  16.662   0.184  16.667  0.0028  0.0656 -0.1795
  192DPPS   C3A 2299  16.756   0.229  17.165 -0.0136  0.1446  0.1821
  192DPPS   C4A 2300  16.696   0.262  17.618  0.0622  0.0883 -0.3171
  192DPPS   C1B 2301  16.846   0.835  16.408 -0.0313  0.3953  0.0068
  192DPPS   C2B 2302  16.703   0.770  16.791 -0.0010  0.2258 -0.1255
  192DPPS   C3B 2303  16.598   0.765  17.262  0.2188 -0.1117  0.0005
  192DPPS   C4B 2304  16.555   0.737  17.707  0.1491  0.2877 -0.0708
  193DPPS   CNO 2305  17.484   4.164  15.373 -0.2206 -0.0591 -0.2374
  193DPPS   PO4 2306  17.748   4.081  15.625 -0.0035  0.1762 -0.1346
  193DPPS   GL1 2307  17.756   4.300  15.999  0.1709 -0.0266  0.0136
  193DPPS   GL2 2308  17.967   4.164  16.165 -0.3470  0.2608  0.1024
  193DPPS   C1A 2309  17.528   4.265  16.297 -0.0470  0.0318 -0.1607
  193DPPS   C2A 2310  17.473   4.234  16.711 -0.0102 -0.0172  0.1066
  193DPPS   C3A 2311  17.484   4.181  17.132 -0.0406  0.2290 -0.2038
  193DPPS   C4A 2312  17.528   4.118  17.604 -0.0030 -0.1972  0.0854
  193DPPS   C1B 2313  17.864   4.023  16.496 -0.1145  0.3175 -0.1687
  193DPPS   C2B 2314  17.914   3.919  16.892  0.3364  0.2273 -0.1734
  193DPPS   C3B 2315  17.962   3.937  17.374 -0.0760 -0.1211  0.0148
  193DPPS   C4B 2316  17.981   3.883  17.828  0.0577 -0.0387 -0.3802
  194DPPS   CNO 2317  20.927   4.947  15.314  0.0173  0.0821  0.0394
  194DPPS   PO4 2318  21.064   4.637  15.510 -0.1719 -0.0971  0.3425
  194DPPS   GL1 2319  21.374   4.785  15.791  0.1305  0.3217 -0.0129
  194DPPS   GL2 2320  21.117   4.613  15.897  0.0870 -0.2326 -0.3296
  194DPPS   C1A 2321  21.390   4.918  16.128 -0.0102  0.0293  0.2800
  194DPPS   C2A 2322  21.382   4.967  16.550 -0.1682  0.0376 -0.0911
  194DPPS   C3A 2323  21.372   4.944  17.057  0.0272  0.2912 -0.3988
  194DPPS   C4A 2324  21.362   4.953  17.563  0.1624 -0.0835  0.2147
  194DPPS   C1B 2325  21.125   4.633  16.287 -0.2944  0.3575  0.1826
  194DPPS   C2B 2326  21.090   4.579  16.710 -0.0383  0.0673  0.0310
  194DPPS   C3B 2327  20.995   4.631  17.180 -0.1066 -0.1367 -0.0366
  194DPPS   C4B 2328  20.952   4.656  17.656 -0.2002 -0.0635 -0.0246
  195DPPS   CNO 2329  16.903   5.315  15.532  0.2408  0.1472  0.0325
  195DPPS   PO4 2330  16.783   4.929  15.624 -0.3067 -0.1586 -0.3929
  195DPPS   GL1 2331  16.621   4.934  15.975  0.0633 -0.1716 -0.1699
  195DPPS   GL2 2332  16.402   4.993  16.039 -0.1396 -0.0939 -0.0966
  195DPPS   C1A 2333  16.794   4.848  16.252 -0.0714  0.0525 -0.2040
  195DPPS   C2A 2334  17.007   4.861  16.615 -0.0220 -0.0406  0.0351
  195DPPS   C3A 2335  17.037   4.881  17.124 -0.0296  0.2704  0.1036
  195DPPS   C4A 2336  17.020   4.804  17.639  0.3275 -0.1224 -0.0211
  195DPPS   C1B 2337  16.383   5.009  16.408 -0.2590  0.4221 -0.1286
  195DPPS   C2B 2338  16.522   5.072  16.764  0.2785  0.1197 -0.1032
  195DPPS   C3B 2339  16.514   5.058  17.281  0.1852 -0.3540 -0.1287
  195DPPS   C4B 2340  16.532   4.992  17.749  0.2106  0.0278 -0.1161
  196DPPS   CNO 2341  21.560   3.966  15.359 -0.1172  0.0207 -0.1511
  196DPPS   PO4 2342  21.557   3.723  15.679 -0.0767  0.1044 -0.3606
  196DPPS   GL1 2343  21.513   3.765  16.065 -0.0173 -0.0506  0.2665
  196DPPS   GL2 2344  21.622   3.552  16.215 -0.0610  0.3902 -0.0238
  196DPPS   C1A 2345  21.277   3.918  16.293 -0.0214 -0.1814 -0.0749
  196DPPS   C2A 2346  21.066   4.033  16.685  0.0985 -0.1498  0.0388
  196DPPS   C3A 2347  20.976   4.114  17.094  0.0294 -0.1559  0.1161
  196DPPS   C4A 2348  21.029   4.208  17.516 -0.0911  0.1155  0.2391
  196DPPS   C1B 2349  21.509   3.518  16.541 -0.3398 -0.2317 -0.0580
  196DPPS   C2B 2350  21.531   3.438  16.941 -0.1519  0.0036  0.0789
  196DPPS   C3B 2351  21.477   3.476  17.450  0.1225 -0.1182  0.1329
  196DPPS   C4B 2352  21.492   3.483  17.893  0.0700 -0.0927 -0.1258
  197DPPS   CNO 2353  16.614   2.805  15.860 -0.3556  0.1103 -0.3003
  197DPPS   PO4 2354  16.440   2.689  16.176 -0.1584  0.2878  0.1371
  197DPPS   GL1 2355  16.287   2.683  16.569  0.0494 -0.0528 -0.0337
  197DPPS   GL2 2356  16.161   2.444  16.515 -0.2603  0.3637 -0.1097
  197DPPS   C1A 2357  16.354   2.728  16.930  0.0961 -0.0938  0.1090
  197DPPS   C2A 2358  16.314   2.798  17.328 -0.3286 -0.1492 -0.0720
  197DPPS   C3A 2359  16.367   2.833  17.786  0.1082 -0.1483  0.1964
  197DPPS   C4A 2360  16.325   2.677  18.276  0.0473 -0.2292  0.1296
  197DPPS   C1B 2361  16.333   2.209  16.807  0.0146  0.0994  0.4056
  197DPPS   C2B 2362  16.353   2.190  17.215 -0.1351  0.1694 -0.0565
  197DPPS   C3B 2363  16.349   2.190  17.713 -0.1856  0.2351  0.1260
  197DPPS   C4B 2364  16.397   2.145  18.250  0.0415  0.0355 -0.0436
  198DPPS   CNO 2365  21.083   1.710  15.457  0.0954  0.1279 -0.0044
  198DPPS   PO4 2366  20.950   1.702  15.790 -0.0774 -0.0560  0.0466
  198DPPS   GL1 2367  20.860   2.064  16.054 -0.1207 -0.1065 -0.1283
  198DPPS   GL2 2368  21.151   2.020  16.199 -0.1607 -0.1440 -0.5265
  198DPPS   C1A 2369  20.715   1.936  16.396 -0.0294 -0.1076  0.3807
  198DPPS   C2A 2370  20.755   1.782  16.789 -0.0163  0.1317 -0.1046
  198DPPS   C3A 2371  20.725   1.794  17.271 -0.0160  0.0666 -0.2347
  198DPPS   C4A 2372  20.754   1.764  17.799  0.1884 -0.2359  0.0024
  198DPPS   C1B 2373  21.205   2.081  16.607 -0.0269 -0.0266  0.3346
  198DPPS   C2B 2374  21.105   2.113  17.069 -0.1729  0.1555 -0.0196
  198DPPS   C3B 2375  21.250   2.150  17.570  0.0072 -0.2366 -0.0595
  198DPPS   C4B 2376  21.116   2.125  18.045  0.3695 -0.2336 -0.2253
  199DPPS   CNO 2377  17.344   0.846  15.315  0.3317 -0.0216 -0.2156
  199DPPS   PO4 2378  17.208   1.154  15.496  0.1480 -0.0614 -0.0720
  199DPPS   GL1 2379  16.992   1.155  15.858  0.4683 -0.0455  0.3174
  199DPPS   GL2 2380  17.228   1.259  16.007 -0.0876  0.2160  0.1408
  199DPPS   C1A 2381  16.753   1.184  16.187 -0.2239  0.4619  0.3305
  199DPPS   C2A 2382  16.619   1.230  16.571 -0.1616 -0.0263 -0.1891
  199DPPS   C3A 2383  16.616   1.225  17.058 -0.0519  0.1345  0.2846
  199DPPS   C4A 2384  16.629   1.204  17.597  0.1997 -0.3241  0.0335
  199DPPS   C1B 2385  17.199   1.083  16.343 -0.1563  0.0862  0.0009
  199DPPS   C2B 2386  17.090   1.080  16.735  0.0911 -0.2833 -0.1825
  199DPPS   C3B 2387  17.053   1.031  17.285  0.1205  0.1246  0.1934
  199DPPS   C4B 2388  17.010   0.940  17.800 -0.1856  0.1094  0.0738
  200DPPS   CNO 2389  16.363   0.166  15.463  0.0155  0.1549  0.1448
  200DPPS   PO4 2390  16.320   0.037  15.808 -0.1581 -0.1678  0.0316
  200DPPS   GL1 2391  16.479   0.240  16.108  0.6290 -0.3612 -0.1634
  200DPPS   GL2 2392  16.797   0.057  16.163 -0.1703 -0.0202 -0.3626
  200DPPS   C1A 2393  16.317   0.475  16.303  0.1435 -0.0138 -0.0877
  200DPPS   C2A 2394  16.231   0.523  16.672 -0.2047 -0.1439  0.1253
  200DPPS   C3A 2395  16.197   0.365  17.123 -0.0929 -0.0039 -0.1728
  200DPPS   C4A 2396  16.136   0.414  17.615 -0.2517  0.1104 -0.1071
  200DPPS   C1B 2397  17.050   0.056  16.462 -0.3782  0.5751  0.3571
  200DPPS   C2B 2398  17.112   0.078  16.879 -0.0557 -0.0205 -0.0542
  200DPPS   C3B 2399  17.167   0.004  17.389  0.0344  0.1688  0.1302
  200DPPS   C4B 2400  17.039  -0.015  17.912  0.1005  0.0499  0.0627
  201W        W 2401  20.074   4.106  24.981 -0.2006  0.0498  0.1485
  202W        W 2402   4.404   6.551  30.091  0.0150  0.2730 -0.1426
  203W        W 2403  12.340   2.481   2.781 -0.0944  0.1646  0.2502
  204W        W 2404   4.517   3.382   0.771 -0.1426 -0.4162 -0.0384
  205W        W 2405  16.933   2.050  15.333  0.1039 -0.2132 -0.1191
  206W        W 2406   3.386   4.516   0.949  0.0573  0.0220 -0.1712
  207W        W 2407  20.889   5.973  26.961 -0.0473  0.2377  0.0093
  208W        W 2408  24.697   1.537  35.720 -0.0585 -0.0695 -0.1942
  209W        W 2409  16.693   2.242  11.912 -0.3183  0.1402  0.4421
  210W        W 2410  13.846   1.738  29.229  0.3874  0.0770 -0.0472
  211W        W 2411  21.068   1.963  12.122  0.5193  0.1414  0.0086
  212W        W 2412  25.431   4.427  11.977 -0.0181  0.1224 -0.0574
  213W        W 2413  18.709   0.284  24.310  0.0805 -0.0540  0.0323
  214W        W 2414  14.975   2.093  35.848 -0.1068  0.0708  0.2882
  215W        W 2415   4.947   1.790  35.494  0.0878 -0.0054 -0.1276
  216W        W 2416  13.407   4.782   4.038  0.1426  0.2835  0.0694
  217W        W 2417  24.609   6.362  13.701 -0.0761  0.0321  0.1034
  218W        W 2418   1.142   4.537   5.307 -0.0418  0.2835 -0.1152
  219W        W 2419  26.265   0.551  29.572 -0.1639 -0.1627 -0.1322
  220W        W 2420  14.763   1.733   3.415 -0.1126 -0.1977  0.2532
  221W        W 2421  12.280   2.220  14.508 -0.2316  0.1192  0.2363
  222W        W 2422   9.472   4.166   6.580 -0.2764  0.0619  0.3593
  223W        W 2423  20.647   5.747  33.902 -0.4387 -0.1582 -0.1617
  224W        W 2424  14.948   5.098  13.232 -0.1667  0.2012 -0.0143
  225W        W 2425  13.888   0.522  28.987 -0.2468  0.2877  0.1218
  226W        W 2426   6.667   6.004   2.859 -0.2729  0.1908  0.1880
  227W        W 2427  21.538   6.595  24.749  0.0403  0.1483 -0.0845
  228W        W 2428  18.311   4.178  24.641 -0.0829 -0.1487 -0.0857
  229W        W 2429  18.695   2.160   1.765 -0.1753  0.1228  0.0813
  230W        W 2430  20.909   5.482  21.527 -0.0618 -0.0395 -0.3005
  231W        W 2431   3.895   0.286  10.595  0.2977 -0.0561 -0.2207
  232W        W 2432   7.341   3.936  22.548 -0.1997 -0.0982  0.0263
  233W        W 2433  14.005   2.353  31.396  0.0821 -0.0642  0.0817
  234W        W 2434  13.047   4.129  12.176 -0.1110  0.0179 -0.2479
  235W        W 2435  14.363   3.121   4.004 -0.0262 -0.0103  0.1301
  236W        W 2436   9.303   6.282  31.486  0.2083  0.0851  0.2729
  237W        W 2437   5.797   5.385   5.190  0.1761  0.0685  0.0102
  238W        W 2438  24.675   1.438   5.774  0.1320 -0.0418  0.0862
  239W        W 2439  11.104   2.619  31.500  0.2902 -0.2894 -0.1716
  240W        W 2440   6.356   2.707   0.949  0.1876 -0.1577  0.1472
  241W        W 2441  12.776   0.050  11.717 -0.1847 -0.4015  0.0478
  242W        W 2442  25.287   4.995  21.953 -0.1232 -0.0787 -0.0242
  243W        W 2443   8.604   0.438   6.700 -0.0763 -0.4002  0.1389
  244W        W 2444  10.181   1.529  24.725 -0.0204 -0.1595 -0.2319
  245W        W 2445  12.748   1.277  23.629  0.1851 -0.0381  0.2515
  246W        W 2446   2.748   4.469  12.056 -0.0615  0.1424  0.0348
  247W        W 2447  21.993   1.627   2.674 -0.0544 -0.0938 -0.0529
  248W        W 2448   2.726   1.088  31.192  0.1889  0.1213 -0.0952
  249W        W 2449  22.431   6.380  35.159  0.0765 -0.1204 -0.1805
  250W        W 2450  20.432   5.030  12.726  0.3195 -0.3295  0.0606
  251W        W 2451  24.224   0.157  27.263 -0.0993 -0.0009 -0.1687
  252W        W 2452  18.780   5.276  31.462 -0.0482 -0.3848 -0.0278
  253W        W 2453  16.610   1.824  15.051  0.0652  0.0912  0.1710
  254W        W 2454  14.377   3.157  22.117 -0.0887  0.5445 -0.1566
  255W        W 2455  24.988   0.011   4.507  0.1032  0.0615  0.3024
  256W        W 2456   6.850   3.126  26.746 -0.0474 -0.0605  0.1391
  257W        W 2457  21.496   3.678  34.293 -0.2151 -0.0411  0.0021
  258W        W 2458  18.027   3.216  36.035 -0.2767 -0.1543 -0.0552
  259W        W 2459  25.852   1.946  20.766 -0.1305  0.2336 -0.1935
  260W        W 2460  20.807   0.524  25.794  0.0939  0.2281  0.0443
  261W        W 2461   2.851   1.734  25.971 -0.0608 -0.0739  0.0752
  262W        W 2462  14.244   6.025   3.284 -0.0084 -0.0559 -0.0678
  263W        W 2463  13.117   1.591  23.200 -0.0929 -0.1112 -0.1261
  264W        W 2464   8.783   1.533  11.072  0.1279  0.1649  0.1649
  265W        W 2465  25.126   0.089  14.644 -0.0423  0.1571 -0.1072
  266W        W 2466  11.736   6.446  33.904  0.0250 -0.1758  0.1283
  267W        W 2467  21.493   2.650  23.526  0.1035  0.2381  0.0395
  268W        W 2468  23.323   6.268   3.002  0.2222  0.1439 -0.0283
  269W        W 2469  23.477   2.366  32.749  0.0864  0.1289  0.1812
  270W        W 2470  22.687   6.525  25.578 -0.0259  0.0330  0.0495
  271W        W 2471  22.594   2.341  25.145 -0.1784  0.1821  0.1044
  272W        W 2472  23.688   0.974  14.859 -0.2963  0.0121  0.0753
  273W        W 2473   2.639   3.598  13.895 -0.0142  0.2539  0.2460
  274W        W 2474  12.052   6.411  26.561 -0.1732  0.0042  0.0670
  275W        W 2475   8.987   5.069   6.417  0.1215 -0.1314 -0.0557
  276W        W 2476  14.900   2.429  13.399  0.0295 -0.1243  0.1579
  277W        W 2477  14.857   6.490   4.474 -0.1597 -0.0194 -0.1443
  278W        W 2478   9.884   1.111  34.943  0.0735  0.0255  0.0904
  279W        W 2479  12.002   5.294   1.051 -0.1077 -0.3347  0.1579
  280W        W 2480  15.917   2.269  26.860  0.2146  0.4025 -0.0675
  281W        W 2481   7.342   6.561  34.139  0.0415 -0.0797  0.0404
  282W        W 2482   4.179   4.669  33.269  0.1550 -0.0999 -0.0346
  283W        W 2483  15.903   2.799  26.242 -0.0262  0.1042 -0.0094
  284W        W 2484   1.868   6.548  22.836 -0.1141 -0.2840 -0.1570
  285W        W 2485   9.836   2.833   5.121 -0.0148 -0.2474  0.1683
  286W        W 2486   9.500   3.069  26.193  0.2438 -0.0815 -0.0261
  287W        W 2487  16.361   6.255   9.754 -0.2505  0.0485  0.1050
  288W        W 2488  15.578   2.285  35.731 -0.2462  0.1249 -0.0390
  289W        W 2489  17.041   2.464  13.559 -0.1866  0.0596 -0.2210
  290W        W 2490   3.969   5.319  12.828  0.0920 -0.1675  0.1775
  291W        W 2491  22.469   4.552   6.381 -0.1432 -0.2277  0.1059
  292W        W 2492  13.640   2.062   9.993  0.0707  0.0319 -0.0511
  293W        W 2493  15.153   1.945  34.437 -0.0912 -0.3626 -0.0109
  294W        W 2494  23.142   6.280  25.646 -0.3896  0.0371 -0.0861
  295W        W 2495   3.668   6.144   5.760  0.0598 -0.1229 -0.0361
  296W        W 2496  20.063   1.906  27.374  0.0233  0.2858  0.1183
  297W        W 2497  21.088   1.474   4.156 -0.0522  0.0986  0.2094
  298W        W 2498  16.969   3.368  32.878  0.2220  0.0160  0.3499
  299W        W 2499  14.247   1.554  34.324  0.0112 -0.1357 -0.0374
  300W        W 2500   0.468   6.332  28.012 -0.0484 -0.0957  0.2540
  301W        W 2501   8.416   3.885  35.672 -0.1266 -0.0266 -0.0963
  302W        W 2502   9.920   2.662   3.044  0.0386 -0.0963 -0.1009
  303W        W 2503   3.386   0.585   1.434  0.0171  0.2296 -0.2133
  304W        W 2504  23.632   5.638  11.669 -0.1076 -0.1569  0.0758
  305W        W 2505   9.984   5.509  15.588 -0.0281  0.1013 -0.0126
  306W        W 2506   1.712   4.180  32.352 -0.1389  0.0809  0.2044
  307W        W 2507   3.786   3.470  24.772  0.4146 -0.0516  0.0809
  308W        W 2508  24.951   5.511  22.939 -0.2588  0.2205 -0.0333
  309W        W 2509  17.411   0.075  13.224 -0.0672  0.1127 -0.0722
  310W        W 2510   2.150   2.480  22.824 -0.1911  0.0552  0.2003
  311W        W 2511  11.892   5.661   5.924  0.0732  0.1952  0.1097
  312W        W 2512  19.869   6.431  30.787  0.0844  0.1298 -0.0571
  313W        W 2513  11.890   5.396  27.035 -0.1093 -0.2467 -0.0844
  314W        W 2514  11.141   0.586   9.929  0.1913 -0.2074 -0.0078
  315W        W 2515  11.396   4.399  28.711  0.0061 -0.0589  0.1076
  316W        W 2516   0.859   4.131   5.293  0.1910  0.2111  0.0532
  317W        W 2517  21.749   3.537  23.443  0.1494 -0.2356 -0.0383
  318W        W 2518  18.121   4.374   2.358  0.2385 -0.1253  0.1290
  319W        W 2519   7.734   6.318   1.094 -0.0894  0.1019 -0.1646
  320W        W 2520  19.237   0.392  34.159  0.0728 -0.1014  0.0050
  321W        W 2521  20.131   1.554   3.782  0.0518  0.1940 -0.1622
  322W        W 2522   7.999   5.713  27.954  0.1807 -0.0354  0.0733
  323W        W 2523   4.712   4.453  11.096  0.2390  0.2029 -0.1561
  324W        W 2524   2.382   6.061   0.110  0.1207 -0.1202  0.0788
  325W        W 2525  17.682   4.799  35.692 -0.1202  0.0010 -0.1450
  326W        W 2526   9.139   3.691  32.839 -0.0444 -0.2523  0.1586
  327W        W 2527   7.896   1.265  36.050 -0.0793  0.4481  0.1312
  328W        W 2528  22.416   4.413   5.443  0.1492 -0.2252 -0.0251
  329W        W 2529   0.058   3.906   6.139  0.1588  0.0330  0.0031
  330W        W 2530  20.936   4.281  30.496 -0.1398 -0.0115  0.2222
  331W        W 2531  19.252   4.914  30.824 -0.0744  0.1598 -0.0120
  332W        W 2532  24.003   2.075  15.672  0.2404  0.0170  0.0486
  333W        W 2533   7.134   4.859   7.722  0.1223  0.2052 -0.0136
  334W        W 2534   8.699   3.881  32.630  0.1190 -0.2177  0.0954
  335W        W 2535   3.734   3.706   9.554  0.2061 -0.1641  0.1800
  336W        W 2536  24.485   2.601   3.175  0.0929 -0.1623  0.1268
  337W        W 2537   5.819   5.997  12.543  0.1783  0.2144  0.1506
  338W        W 2538  18.281   5.383   2.265  0.1311  0.1245 -0.0442
  339W        W 2539   5.543   3.596  29.868 -0.1320 -0.5055 -0.2966
  340W        W 2540  14.226   5.263  28.671 -0.2318  0.0131 -0.3070
  341W        W 2541  14.043   0.359  24.219  0.3100  0.1098 -0.0763
  342W        W 2542  14.797   0.533   2.109  0.0917 -0.2067 -0.4877
  343W        W 2543  14.196   1.026   8.851  0.2343 -0.1305 -0.2757
  344W        W 2544  20.998   1.999   7.838  0.2197  0.2822 -0.1329
  345W        W 2545   5.549   5.374   5.632 -0.0448 -0.1105  0.2154
  346W        W 2546  22.986   4.451  36.065 -0.1821 -0.1798 -0.1635
  347W        W 2547   5.771   4.374  15.484 -0.4152  0.1364 -0.0616
  348W        W 2548  17.283   0.950   5.916  0.0950 -0.2198 -0.0577
  349W        W 2549  14.911   5.629  29.310 -0.1611 -0.1507  0.3851
  350W        W 2550  10.338   3.690  24.212 -0.1232 -0.1225 -0.2132
  351W        W 2551  25.238   2.915  30.569 -0.1811  0.0203  0.3089
  352W        W 2552  25.148   6.472  24.926  0.1230 -0.0537  0.2136
  353W        W 2553  17.751   2.930   0.243 -0.0321 -0.2272  0.2952
  354W        W 2554  22.040   6.206  13.203 -0.0276 -0.0449 -0.2549
  355W        W 2555  25.496   1.423   5.249 -0.2143  0.0423  0.1309
  356W        W 2556  19.621   5.820  33.129 -0.0338 -0.0924 -0.0708
  357W        W 2557  11.555   5.272  12.515  0.3043 -0.0182  0.0951
  358W        W 2558  12.034   4.127  11.832  0.1987 -0.1880 -0.0608
  359W        W 2559  25.924   0.222  11.072  0.0418  0.0575  0.0054
  360W        W 2560  22.480   5.711  10.783 -0.0777 -0.0918 -0.1614
  361W        W 2561  25.516   6.181  32.373  0.0207  0.1019 -0.2693
  362W        W 2562  25.956   5.859  32.339  0.2421 -0.0352  0.0060
  363W        W 2563   5.682   5.840   5.432 -0.1395  0.1686 -0.1482
  364W        W 2564  22.329   5.483   8.636  0.0098  0.1285 -0.1730
  365W        W 2565  25.929   4.123  33.161 -0.0679 -0.1663 -0.0805
  366W        W 2566  24.577   3.623  20.452  0.2262 -0.2781  0.1504
  367W        W 2567   6.745   1.176  27.861 -0.0721 -0.0220 -0.2266
  368W        W 2568   9.333   3.621  14.598  0.3320 -0.3601 -0.0164
  369W        W 2569   1.726   5.479  11.318 -0.1938 -0.3720  0.0461
  370W        W 2570   6.159   2.671   9.703  0.2904  0.0890 -0.5336
  371W        W 2571   9.965   5.332  31.350  0.0130  0.0783 -0.1212
  372W        W 2572  24.897   5.914  27.149 -0.2073 -0.2915  0.3181
  373W        W 2573  19.052   2.856  21.315 -0.2921 -0.0272 -0.0218
  374W        W 2574  24.972   5.032  35.012  0.3709 -0.0170 -0.1378
  375W        W 2575   7.135   2.558  11.901  0.3537 -0.0790 -0.2376
  376W        W 2576  25.221   3.979  22.822 -0.1206  0.2377  0.2554
  377W        W 2577  19.330   1.170  12.034  0.2715  0.0862 -0.0476
  378W        W 2578   9.346   5.489   4.871 -0.0661  0.0615 -0.0825
  379W        W 2579  10.303   4.088  21.470  0.1923 -0.0014 -0.1536
  380W        W 2580   9.301   3.463  33.890  0.0532  0.0009  0.0286
  381W        W 2581   9.856   3.325  25.829  0.0285 -0.2590 -0.1036
  382W        W 2582  16.187   3.879  27.696  0.0515 -0.0490  0.0672
  383W        W 2583   5.069   1.005  27.814 -0.2926 -0.0572  0.0442
  384W        W 2584   5.474   1.885  21.322 -0.2096 -0.2535 -0.1229
  385W        W 2585  25.312   1.819  21.246  0.1454 -0.0365 -0.0357
  386W        W 2586  16.087   6.349  15.088 -0.2312  0.0237  0.3604
  387W        W 2587  24.617   3.055   4.300  0.1056 -0.4024 -0.0510
  388W        W 2588  24.437   1.231  35.996 -0.1244  0.0529  0.0246
  389W        W 2589  26.251   0.366  21.161 -0.1463  0.2655 -0.1796
  390W        W 2590  20.062   6.145  13.521 -0.1625 -0.1408  0.0778
  391W        W 2591  23.216   3.265  21.489 -0.1111 -0.1785  0.3714
  392W        W 2592   0.226   0.957  23.895 -0.1897 -0.1026  0.0071
  393W        W 2593  26.287   2.496  14.940  0.0949  0.0031 -0.2091
  394W        W 2594   3.905   2.702   7.595  0.1066 -0.0455  0.1326
  395W        W 2595  12.843   4.831   7.806 -0.1212 -0.0819 -0.1359
  396W        W 2596  16.167   2.339  10.731  0.0307  0.2355  0.1256
  397W        W 2597  18.691   3.280   6.652  0.3419  0.0572  0.1060
  398W        W 2598  11.879   6.110  12.158 -0.0653 -0.0084 -0.3081
  399W        W 2599   0.360   4.601  10.958  0.3336 -0.0789 -0.2679
  400W        W 2600  18.322   2.730   8.012 -0.0679  0.0976 -0.3484
  401W        W 2601   6.284   2.580  13.655  0.3311 -0.0878  0.2045
  402W        W 2602   0.789   0.239  24.691 -0.0862  0.1766 -0.2158
  403W        W 2603  24.103   0.553   4.834 -0.0290 -0.0183 -0.1708
  404W        W 2604  22.876   1.892  21.716  0.2159  0.0603  0.1510
  405W        W 2605   5.778   4.767  23.285 -0.0957 -0.0171 -0.0183
  406W        W 2606   7.463   6.386  31.403  0.1007 -0.0233  0.0297
  407W        W 2607   9.270   0.955  30.325  0.1056 -0.0431 -0.2224
  408W        W 2608   0.967   6.020  10.111  0.0342 -0.1078 -0.0555
  409W        W 2609  12.514   4.203  11.817  0.0220  0.1406  0.2791
  410W        W 2610  23.554   1.808  34.314  0.2675  0.2249  0.1080
  411W        W 2611   2.599   6.192  30.423  0.0733  0.3106 -0.0442
  412W        W 2612  17.944   5.385   6.178  0.0850 -0.0284 -0.0245
  413W        W 2613  22.021   5.201  21.676  0.0984  0.0885  0.0073
  414W        W 2614  11.734   3.015  13.047  0.0644 -0.1326  0.3015
  415W        W 2615  25.899   1.026  25.197 -0.1302  0.3729 -0.1321
  416W        W 2616  17.027   4.933  21.907  0.1470 -0.1516 -0.2344
  417W        W 2617  12.398   6.282  30.525  0.1619 -0.2674  0.0749
  418W        W 2618  15.801   5.731  31.038  0.2053  0.4371 -0.3391
  419W        W 2619   5.621   2.643   4.319  0.1514  0.0839  0.2054
  420W        W 2620   3.643   5.298   6.563  0.2158 -0.1680  0.1336
  421W        W 2621   5.137   5.025  30.768 -0.1059 -0.2094 -0.2396
  422W        W 2622  13.207   3.529   3.499  0.0803 -0.0001 -0.1472
  423W        W 2623  15.685   6.552   2.042 -0.0446 -0.0739 -0.0435
  424W        W 2624  19.481   5.373  10.560 -0.1749 -0.3140 -0.0812
  425W        W 2625   0.632   1.088  35.098  0.2592 -0.1638 -0.3176
  426W        W 2626   9.763   4.096   3.753 -0.0468 -0.2799 -0.0369
  427W        W 2627  24.263   5.555  26.053  0.0772 -0.0198  0.1858
  428W        W 2628   2.626   1.082  13.545 -0.0900  0.2169  0.2690
  429W        W 2629   1.553   3.249   6.274  0.1048  0.0338 -0.1835
  430W        W 2630   3.859   1.718  26.186  0.2391 -0.0098 -0.0829
  431W        W 2631  26.323   5.086  25.255 -0.5807 -0.0683 -0.0352
  432W        W 2632  24.371   4.606   8.106  0.1669 -0.4065  0.0470
  433W        W 2633  18.488   3.374  25.533  0.0838 -0.0866  0.0344
  434W        W 2634  19.037   2.906  13.482 -0.0669 -0.1961 -0.2141
  435W        W 2635   8.885   2.548  11.089  0.0289 -0.0145  0.3753
  436W        W 2636  16.095   1.250  27.679 -0.2055  0.0354  0.1334
  437W        W 2637   0.562   4.815   4.583  0.0949  0.0324  0.0937
  438W        W 2638  16.595   2.075  33.901  0.2501  0.1271  0.0726
  439W        W 2639   8.003   6.361  34.579 -0.0041  0.0316  0.1376
  440W        W 2640  24.269   2.119  35.850  0.3826 -0.4808 -0.1845
  441W        W 2641  13.588   6.601  26.822  0.2659 -0.2702 -0.1529
  442W        W 2642   9.788   2.133   2.014  0.1274  0.1242  0.1347
  443W        W 2643   7.827   0.173   3.170  0.0598  0.0140 -0.2350
  444W        W 2644   4.744   5.770  23.718 -0.4281  0.1510  0.0345
  445W        W 2645  19.797   6.248   3.524  0.0240 -0.1375 -0.4241
  446W        W 2646  19.257   0.469   0.726 -0.0391 -0.3947 -0.0198
  447W        W 2647  20.618   3.223   5.316 -0.1240 -0.1852 -0.1656
  448W        W 2648   3.204   5.671  13.479 -0.2434 -0.0865  0.2164
  449W        W 2649  16.599   0.916  23.164  0.0113  0.1441  0.1018
  450W        W 2650  12.851   5.487  21.480 -0.0885  0.0738 -0.0715
  451W        W 2651  16.566   3.567   6.425  0.0832  0.0537  0.2436
  452W        W 2652  18.030   4.935   0.808  0.1128 -0.1349  0.0662
  453W        W 2653  19.264   5.693  27.972 -0.2357  0.1911  0.1619
  454W        W 2654   9.034   6.511  33.247 -0.0538  0.0716  0.1102
  455W        W 2655   8.226   1.900  26.184 -0.1268  0.0342  0.1506
  456W        W 2656  23.023   2.431  32.990 -0.1527  0.0909  0.0748
  457W        W 2657  17.401   1.654  26.105 -0.1533 -0.0406  0.1172
  458W        W 2658  15.922   4.158  29.171  0.0314 -0.3193 -0.3929
  459W        W 2659   7.569   1.688  33.188  0.0672 -0.2449  0.0262
  460W        W 2660  15.076   5.547  12.410 -0.2799  0.0398  0.4648
  461W        W 2661  19.900   5.201   7.283 -0.2197 -0.0459  0.0858
  462W        W 2662  16.342   4.621  31.770 -0.1589  0.1385  0.1967
  463W        W 2663   1.317   0.411   3.576  0.1773 -0.0515 -0.0112
  464W        W 2664   9.686   6.097   9.480 -0.0925  0.0295 -0.3252
  465W        W 2665  25.351   0.083   9.747  0.0740  0.0454  0.0604
  466W        W 2666  10.004   5.519  14.495 -0.0873  0.3760  0.1714
  467W        W 2667  13.598   2.968  11.909  0.1028  0.2716 -0.0308
  468W        W 2668  25.627   4.731  34.324  0.1899 -0.1210  0.1701
  469W        W 2669   9.187   3.876  25.979 -0.0317 -0.3259 -0.2996
  470W        W 2670  24.669   0.887  25.572  0.0229  0.3911 -0.2886
  471W        W 2671  10.694   5.172  21.149  0.0777 -0.3082 -0.0772
  472W        W 2672  18.133   5.631  30.182 -0.1284  0.1022  0.0460
  473W        W 2673  23.418   3.064   0.414  0.3571  0.2312  0.2974
  474W        W 2674  15.207   4.962  24.035 -0.1407 -0.1716 -0.0888
  475W        W 2675   5.798   3.175  21.820 -0.2101 -0.0454  0.3787
  476W        W 2676  13.767   4.375  14.918  0.1750 -0.3345 -0.1646
  477W        W 2677   9.274   4.933  24.364  0.1933 -0.1488  0.2088
  478W        W 2678  21.389   1.043   5.826  0.0420  0.0286  0.1410
  479W        W 2679   1.918   3.993   1.490 -0.2214  0.0557  0.0569
  480W        W 2680  23.755   2.308  24.306 -0.0102  0.4090 -0.0134
  481W        W 2681  14.426   5.469  21.097 -0.3849  0.1780  0.0441
  482W        W 2682   0.645   1.481  27.629  0.1198  0.0184  0.1791
  483W        W 2683  12.294   4.605  26.687 -0.2849 -0.1044  0.1978
  484W        W 2684   3.858   1.748  14.235  0.3590  0.4723  0.1742
  485W        W 2685   4.842   4.896  32.390 -0.0408 -0.1875 -0.0432
  486W        W 2686  25.205   2.858  25.503  0.1261  0.0026  0.2300
  487W        W 2687  22.121   5.848  20.852  0.0360  0.0205 -0.1134
  488W        W 2688  15.543   4.110  28.414  0.1492  0.1136 -0.1950
  489W        W 2689  25.564   0.998   7.388  0.0362 -0.2503 -0.1010
  490W        W 2690  21.205   1.894  29.606 -0.0434  0.2536  0.1521
  491W        W 2691  25.596   4.058   5.168  0.0596  0.5292 -0.1994
  492W        W 2692  19.036   2.524  26.237  0.1643 -0.0848  0.0974
  493W        W 2693  25.739   2.376  26.798 -0.0360 -0.0410 -0.1463
  494W        W 2694  25.711   4.071   7.034  0.1056 -0.2161 -0.0374
  495W        W 2695   0.834   6.539   5.203  0.1576  0.3276  0.0378
  496W        W 2696  20.787   2.872  26.192  0.0603 -0.0921  0.2390
  497W        W 2697  10.556   5.904  26.360 -0.1251 -0.0053  0.0923
  498W        W 2698   6.040   2.037   2.634 -0.0311 -0.0224  0.0709
  499W        W 2699  18.818   4.183   3.333  0.3262 -0.0916  0.0177
  500W        W 2700  17.567   4.956  10.306 -0.0992 -0.0920  0.1512
  501W        W 2701  11.488   5.416  25.031  0.1500  0.1073 -0.0803
  502W        W 2702  23.444   5.240   6.390 -0.0997 -0.0136 -0.2337
  503W        W 2703  16.474   5.820  10.597  0.0820  0.1810 -0.1106
  504W        W 2704   9.841   5.589  15.011  0.2801  0.4296 -0.1864
  505W        W 2705   5.217   2.376   6.083  0.0377 -0.2487  0.2849
  506W        W 2706  25.417   5.239   5.991 -0.0481 -0.1522 -0.0474
  507W        W 2707  13.564   0.208  12.926 -0.1771 -0.0387  0.0788
  508W        W 2708  23.516   0.022  21.729 -0.1460 -0.1043  0.0415
  509W        W 2709   9.035   3.380   2.240  0.1394  0.2415  0.1274
  510W        W 2710   3.376   2.779  26.614 -0.1482  0.1016  0.2569
  511W        W 2711  16.204   1.574  23.119  0.0039  0.1601  0.0994
  512W        W 2712  18.009   0.618  23.821 -0.1844 -0.1435  0.2883
  513W        W 2713  20.705   3.974  11.738 -0.1187  0.2080  0.0748
  514W        W 2714   3.316   5.816  27.650 -0.3162  0.2050 -0.1309
  515W        W 2715   3.034   6.235  34.823  0.1757  0.0714 -0.2940
  516W        W 2716  10.713   5.466  13.245  0.0269 -0.0588 -0.3296
  517W        W 2717  22.363   3.328  21.096  0.2398  0.1283 -0.2220
  518W        W 2718   6.899   3.693  30.267 -0.2223  0.2413 -0.0247
  519W        W 2719  11.605   4.683  26.966 -0.5878 -0.3782  0.0109
  520W        W 2720   3.697   2.579  21.852  0.0593  0.0397 -0.0250
  521W        W 2721  14.962   0.570  30.233 -0.1202  0.0310 -0.2959
  522W        W 2722  24.903   2.686  28.733  0.1362  0.1984  0.1538
  523W        W 2723  20.409   4.022  29.468 -0.0229  0.2574 -0.0351
  524W        W 2724   6.452   0.467   7.153 -0.0154 -0.0719  0.1192
  525W        W 2725  11.455   6.098  11.821  0.2042  0.2370 -0.3842
  526W        W 2726   0.436   0.982  27.561 -0.3211  0.0914  0.1730
  527W        W 2727   7.650   1.193   1.829  0.1086 -0.0599  0.0761
  528W        W 2728   5.035   4.159  23.309 -0.2931  0.2280 -0.0455
  529W        W 2729   7.236   3.532  31.083  0.1641 -0.0565  0.1412
  530W        W 2730   4.160   4.043  30.144  0.3598  0.2937  0.1583
  531W        W 2731  12.953   3.419  10.817 -0.1234  0.2144 -0.1174
  532W        W 2732  22.232   2.970  22.851  0.2704 -0.2860  0.1331
  533W        W 2733   5.885   6.524  22.601 -0.0185 -0.1554  0.1718
  534W        W 2734   3.210   3.822  34.189 -0.1711 -0.2167  0.2407
  535W        W 2735   2.930   5.578   2.987 -0.2402  0.1552  0.3932
  536W        W 2736  15.799   0.749  22.421 -0.1929  0.3560  0.1885
  537W        W 2737   2.737   5.463  26.534  0.2003 -0.0556 -0.2985
  538W        W 2738  15.014   0.218  27.177 -0.0031  0.1519  0.1078
  539W        W 2739  13.968   4.161  34.847 -0.1323  0.0948 -0.3670
  540W        W 2740   9.240   1.982  14.060 -0.3350  0.0656  0.3905
  541W        W 2741   6.728   1.924  33.030 -0.0406 -0.1973 -0.0671
  542W        W 2742  15.041   0.546  23.046 -0.0697 -0.2359  0.1188
  543W        W 2743  17.448   0.094  30.889  0.0106  0.3352 -0.3229
  544W        W 2744   1.810   1.138  26.194  0.2254 -0.1486 -0.4184
  545W        W 2745   3.564   6.594  11.133 -0.3295 -0.0991 -0.3527
  546W        W 2746  16.655   0.422  31.393  0.1478 -0.0211 -0.1722
  547W        W 2747  23.393   0.264   7.604 -0.1748 -0.1212  0.1127
  548W        W 2748  17.026   1.514  21.422 -0.3166  0.2051  0.0129
  549W        W 2749  16.239   5.069  12.302 -0.0733 -0.1283 -0.3125
  550W        W 2750  19.087   2.519  28.113 -0.1578  0.2342 -0.2063
  551W        W 2751  24.757   3.077  10.116 -0.1033  0.1678 -0.2818
  552W        W 2752   9.303   4.075  23.362  0.0391  0.1786 -0.1655
  553W        W 2753   3.971   6.475  23.520 -0.4866 -0.2298 -0.0366
  554W        W 2754  18.477   5.142  35.525  0.2039  0.1241 -0.0529
  555W        W 2755  25.122   2.789  13.003  0.0111  0.0034 -0.1418
  556W        W 2756   7.195   4.302  22.974  0.0714  0.1227  0.0488
  557W        W 2757  18.286   6.293  12.314  0.0556 -0.0291  0.2509
  558W        W 2758   3.339   3.371   6.502 -0.0312 -0.0069  0.0613
  559W        W 2759   2.195   5.980  12.070  0.0333 -0.0479 -0.1560
  560W        W 2760  21.432   1.298  11.849 -0.1354 -0.1493  0.2744
  561W        W 2761   1.697   0.285   0.830 -0.0916  0.0452  0.3271
  562W        W 2762  11.776   2.811  10.627  0.2792  0.1425  0.1245
  563W        W 2763  14.711   2.763  25.646 -0.0785  0.1118  0.0032
  564W        W 2764   7.574   2.545  35.110  0.1087 -0.0885 -0.1009
  565W        W 2765   7.543   2.324  30.392 -0.0198 -0.1311  0.1653
  566W        W 2766  17.902   4.557  33.903 -0.0224  0.1960 -0.1845
  567W        W 2767   4.395   4.808  27.701 -0.0523 -0.3456 -0.0695
  568W        W 2768  13.249   4.618  21.178  0.1404 -0.0939 -0.1377
  569W        W 2769   6.999   1.043  34.024 -0.0115  0.0343  0.1865
  570W        W 2770  10.751   0.948  34.212  0.1464 -0.2536  0.1574
  571W        W 2771  12.915   1.900   9.941 -0.0874 -0.0073 -0.1018
  572W        W 2772  17.562   4.923  33.361 -0.0533  0.0420 -0.2802
  573W        W 2773   4.930   2.861   2.146  0.2952  0.2800 -0.0041
  574W        W 2774  13.295   6.260  35.583  0.0842  0.2553  0.2092
  575W        W 2775  16.200   1.196  12.432  0.1299 -0.1259 -0.0574
  576W        W 2776   7.631   3.044  29.841  0.1493  0.0881 -0.1051
  577W        W 2777   0.121   5.473  24.854  0.0222 -0.1655 -0.1850
  578W        W 2778  17.576   0.400  35.055  0.1497  0.0940 -0.1461
  579W        W 2779  12.183   0.557  23.999  0.0074 -0.1751  0.1866
  580W        W 2780  10.475   4.644  31.300 -0.3829  0.2104  0.0636
  581W        W 2781  17.740   3.834  30.223 -0.0355 -0.0933 -0.1044
  582W        W 2782  24.680   1.011   8.464  0.2533  0.0371  0.0845
  583W        W 2783  12.645   2.255   1.190  0.1223  0.0262  0.0897
  584W        W 2784  22.542   5.031  15.808  0.2087 -0.1941  0.0129
  585W        W 2785  16.418   1.828  24.729 -0.1236 -0.0121 -0.1881
  586W        W 2786   1.423   1.150  33.917 -0.2355  0.2884  0.0880
  587W        W 2787  23.707   0.326  21.302  0.3262 -0.0468 -0.2061
  588W        W 2788   5.134   1.766   8.361  0.2826  0.0253  0.0019
  589W        W 2789  16.782   6.579  13.980 -0.1526  0.1795 -0.2028
  590W        W 2790   0.542   0.288  29.202 -0.3158 -0.0739 -0.1748
  591W        W 2791  15.423   4.328  23.015 -0.1749  0.0830  0.2555
  592W        W 2792   2.962   1.984  14.468  0.1201  0.1645 -0.2663
  593W        W 2793   0.128   1.175   8.958  0.2883  0.0750 -0.0165
  594W        W 2794  12.766   2.623  21.692 -0.2950 -0.0202 -0.0451
  595W        W 2795   3.466   5.640  32.924  0.0342  0.2026 -0.1176
  596W        W 2796   2.180   3.315  24.614 -0.0567 -0.2639  0.2857
  597W        W 2797  10.732   2.954  23.939 -0.0232 -0.1156 -0.0193
  598W        W 2798  18.369   4.277   4.963  0.1188  0.0314  0.1392
  599W        W 2799   9.648   4.754  35.840  0.1010  0.1285 -0.2095
  600W        W 2800  10.497   0.076  29.832  0.0962 -0.1210 -0.0537
  601W        W 2801   8.966   1.596  26.498  0.0468  0.1789  0.1081
  602W        W 2802  18.786   0.439  34.293  0.0003  0.1341 -0.1383
  603W        W 2803  20.831   2.932  27.544 -0.0217 -0.1313 -0.0834
  604W        W 2804   0.630   3.119  14.768 -0.3053 -0.2284 -0.2837
  605W        W 2805   7.515   4.174  29.340  0.0801  0.1137 -0.0548
  606W        W 2806  18.936   6.176  24.030  0.2459 -0.0941  0.0373
  607W        W 2807   3.270   2.978  23.539  0.0292  0.2397 -0.0374
  608W        W 2808  21.083   2.739   0.106  0.0405 -0.3499  0.1622
  609W        W 2809   0.468   4.315  23.734 -0.0435  0.1448  0.2182
  610W        W 2810   1.224   0.353  26.466  0.0923  0.1793  0.1678
  611W        W 2811   6.442   5.024   8.677 -0.0325 -0.1088  0.0082
  612W        W 2812  16.071   2.231  34.093  0.0804  0.0721 -0.2718
  613W        W 2813  13.440   2.928  35.085  0.0455 -0.0411  0.0839
  614W        W 2814  17.019   3.933  12.214  0.0110 -0.0656  0.0609
  615W        W 2815  19.107   3.205  34.116 -0.0710  0.1331 -0.1372
  616W        W 2816  14.071   0.874   1.395  0.0294 -0.0259  0.0351
  617W        W 2817   0.005   1.492  29.967  0.2714 -0.0436 -0.4797
  618W        W 2818  11.089   3.079   1.653  0.0059 -0.0777 -0.0924
  619W        W 2819   7.541   0.433  11.920 -0.0142  0.0015  0.0952
  620W        W 2820  13.045   4.109  27.516  0.2582 -0.2871  0.0990
  621W        W 2821  14.468   2.345  28.255  0.0634  0.3010 -0.2368
  622W        W 2822  17.432   2.317  32.656  0.1958  0.0049  0.3010
  623W        W 2823  19.339   3.910   8.644  0.0820 -0.0274  0.0471
  624W        W 2824   4.622   5.822   3.116 -0.0659  0.1851 -0.1559
  625W        W 2825  21.296   0.562  32.052 -0.0697  0.1561  0.0972
  626W        W 2826  20.100   6.518  31.244 -0.0126 -0.1000 -0.1602
  627W        W 2827  24.431   6.364  32.215 -0.1029 -0.3635 -0.1350
  628W        W 2828  10.592   5.520  23.401 -0.2745 -0.0998  0.1710
  629W        W 2829  17.691   3.931   1.197 -0.0614  0.0872 -0.1683
  630W        W 2830   9.014   2.049   3.807 -0.1492 -0.0002  0.2891
  631W        W 2831  23.659   6.338  15.779  0.2416  0.1642  0.1574
  632W        W 2832  19.103   0.166  12.562 -0.0080 -0.0660  0.0355
  633W        W 2833   5.328   5.751  28.024 -0.1615  0.0157  0.4059
  634W        W 2834  16.832   6.509  10.465  0.0044  0.1744 -0.2748
  635W        W 2835   1.144   3.642  30.459 -0.0863  0.2575  0.0730
  636W        W 2836  18.431   1.336  33.630 -0.1952  0.0034  0.0201
  637W        W 2837   3.612   2.430  34.174 -0.0257 -0.0543 -0.0551
  638W        W 2838  23.382   0.607  21.708 -0.2473 -0.0531  0.2208
  639W        W 2839   7.579   4.306   5.999  0.0351 -0.2295  0.1805
  640W        W 2840   1.817   4.309   2.407 -0.2466 -0.0671 -0.3502
  641W        W 2841  14.410   6.033  35.158 -0.0928  0.2720  0.0478
  642W        W 2842  16.324   6.440   0.852 -0.0186  0.0472  0.0682
  643W        W 2843  21.805   4.022  35.448 -0.0051  0.3528  0.2499
  644W        W 2844   4.852   0.436   1.539 -0.0783  0.2436 -0.2352
  645W        W 2845   8.558   5.876  15.114 -0.0223  0.1805 -0.0635
  646W        W 2846   8.201   1.881   5.561  0.0711  0.2479 -0.0547
  647W        W 2847  18.756   0.818  10.634  0.2819  0.0797 -0.1264
  648W        W 2848  12.597   3.814  25.003  0.1611 -0.0316  0.3267
  649W        W 2849  17.715   2.523  30.251  0.0041  0.1470  0.1877
  650W        W 2850  15.797   2.206  28.229 -0.1786 -0.0148 -0.2947
  651W        W 2851  11.549   4.418   0.602  0.0872  0.0228  0.1065
  652W        W 2852   6.306   6.480   7.575 -0.1704  0.1186 -0.0485
  653W        W 2853   3.405   2.059   2.285  0.0226 -0.1559  0.0190
  654W        W 2854  25.541   6.570  28.066 -0.0003  0.0662 -0.1581
  655W        W 2855   6.798   1.711   5.017  0.0993 -0.0123  0.1187
  656W        W 2856   9.920   4.774  31.632 -0.2701 -0.4578 -0.1259
  657W        W 2857  13.229   3.072  14.865 -0.2665 -0.1439  0.0397
  658W        W 2858  16.516   2.471  20.532  0.0426 -0.2502 -0.1829
  659W        W 2859  11.029   3.695   8.588  0.0400 -0.1276 -0.1209
  660W        W 2860  16.893   4.103  12.773  0.1335 -0.1391  0.0880
  661W        W 2861  21.477   3.805   7.318 -0.2039 -0.1177  0.1959
  662W        W 2862   7.330   3.237   1.663  0.2901  0.0507  0.1396
  663W        W 2863   4.626   3.511  29.527 -0.2261  0.2678  0.0890
  664W        W 2864  25.405   1.099   1.993  0.0698  0.0653 -0.1448
  665W        W 2865  10.643   0.162  32.466 -0.0803  0.1255 -0.3717
  666W        W 2866  13.496   0.827  25.266 -0.2099 -0.1122 -0.2458
  667W        W 2867  15.031   2.143   6.974  0.1078 -0.1287 -0.0358
  668W        W 2868  24.435   0.825  20.315 -0.0614  0.2327  0.0341
  669W        W 2869   5.061   1.001  12.506  0.0066 -0.1243 -0.0709
  670W        W 2870  23.667   0.221  14.046  0.0583  0.1036  0.0047
  671W        W 2871  22.233   6.267  10.566  0.0372  0.0043  0.1098
  672W        W 2872  19.213   6.596   0.382 -0.1422 -0.0311 -0.0768
  673W        W 2873  14.305   0.181  34.042  0.3594 -0.1497  0.1095
  674W        W 2874   6.179   0.243  21.342  0.1483 -0.3671  0.1500
  675W        W 2875  23.137   4.762   0.765  0.4945  0.0603 -0.1323
  676W        W 2876   9.597   2.534  15.244 -0.0083 -0.0247  0.0481
  677W        W 2877  11.621   5.691  12.007 -0.3095 -0.0333 -0.0039
  678W        W 2878   7.277   2.148   3.730  0.3723 -0.1574 -0.1268
  679W        W 2879   1.100   2.169  12.441  0.3117  0.1135  0.2784
  680W        W 2880   0.979   5.121   1.702  0.3415 -0.1573  0.0613
  681W        W 2881  13.474   2.636  10.361  0.0002  0.0040 -0.1638
  682W        W 2882  24.701   0.192  10.916 -0.1071 -0.1110  0.0560
  683W        W 2883   1.026   5.805  28.505 -0.1930  0.1442  0.0047
  684W        W 2884  12.239   5.578   4.058 -0.1997  0.0329 -0.2394
  685W        W 2885   0.735   6.540   2.901 -0.0065  0.0314 -0.0754
  686W        W 2886  17.360   3.011   3.429  0.0445 -0.5145  0.3413
  687W        W 2887  17.443   3.271  33.168 -0.0888 -0.2069 -0.1181
  688W        W 2888   6.270   5.921  20.930 -0.3643  0.0415  0.3800
  689W        W 2889  10.474   6.258  30.177  0.1780 -0.1959  0.2164
  690W        W 2890  12.572   1.686  30.679 -0.2523 -0.1675 -0.2704
  691W        W 2891  17.801   5.313   8.987 -0.1974 -0.0830  0.0669
  692W        W 2892  12.648   6.011   3.108 -0.1377 -0.0619 -0.1494
  693W        W 2893  22.108   0.011  13.483  0.0654 -0.5051  0.1883
  694W        W 2894   7.970   4.796   8.504 -0.0366 -0.0070  0.3337
  695W        W 2895   9.941   1.587   8.723 -0.1522  0.0305  0.0482
  696W        W 2896   6.818   6.357  25.454  0.0382  0.2139 -0.1164
  697W        W 2897  24.118   5.451  32.400 -0.1143 -0.1092  0.2473
  698W        W 2898  22.608   1.599   9.511 -0.5122 -0.0253  0.1919
  699W        W 2899  17.513   5.274   2.309 -0.0948  0.0086 -0.3400
  700W        W 2900  11.434   1.939   8.633  0.2236  0.1354  0.3523
  701W        W 2901   6.410   3.238  23.264  0.2257  0.1760 -0.1413
  702W        W 2902  25.779   6.568   9.491 -0.0964  0.3654 -0.0036
  703W        W 2903  14.032   3.603  11.230 -0.0433  0.3779  0.1643
  704W        W 2904  15.665   2.013  34.362  0.1247 -0.0869 -0.1716
  705W        W 2905   4.361   4.669  26.225  0.0914 -0.2633 -0.0024
  706W        W 2906  14.188   1.257   4.026 -0.1748 -0.2519 -0.0649
  707W        W 2907   3.782   2.964   8.814  0.0544 -0.1999 -0.1254
  708W        W 2908  20.637   4.744  27.377  0.2156 -0.1653  0.1163
  709W        W 2909  19.152   1.866   1.539  0.1710 -0.0655 -0.1887
  710W        W 2910   6.577   3.527   9.823 -0.1798  0.1954  0.0025
  711W        W 2911  17.187   0.330  34.524  0.1057  0.0910  0.0296
  712W        W 2912   7.505   2.521   3.416 -0.3176 -0.0104  0.3694
  713W        W 2913  26.245   5.508  13.201  0.0894  0.0069  0.1216
  714W        W 2914  18.012   0.188  25.520 -0.1676  0.0864  0.1851
  715W        W 2915   2.139   1.463  33.416 -0.1649  0.0999 -0.1690
  716W        W 2916   4.573   2.346  11.914 -0.0676  0.1799 -0.0856
  717W        W 2917  13.080   0.227  21.469 -0.0991 -0.0232 -0.0711
  718W        W 2918   4.560   1.926  23.533  0.2374 -0.1448 -0.0090
  719W        W 2919  12.359   0.149   9.163  0.0415  0.1500  0.1522
  720W        W 2920   1.965   0.861  31.619 -0.4102 -0.0200 -0.1139
  721W        W 2921  22.337   3.542  12.172 -0.1467 -0.3796 -0.1607
  722W        W 2922  21.581   1.442   5.555 -0.1845  0.1123 -0.0284
  723W        W 2923  18.588   2.350  34.742 -0.0040  0.0868  0.0786
  724W        W 2924  15.533   4.149  25.214  0.2420 -0.1299 -0.1733
  725W        W 2925  14.478   6.088   1.985  0.1719 -0.0774  0.1639
  726W        W 2926  25.685   2.582  23.524 -0.0708  0.1767 -0.0108
  727W        W 2927  15.234   5.071   1.643 -0.0928 -0.1508 -0.0248
  728W        W 2928  18.742   1.640  26.535 -0.0783  0.0804 -0.0468
  729W        W 2929   5.334   1.213  28.244  0.0732  0.1733  0.0758
  730W        W 2930  21.178   0.796  24.318  0.1836 -0.1215 -0.3222
  731W        W 2931  24.973   1.106  10.402 -0.1581  0.2251  0.2065
  732W        W 2932  25.352   5.972  11.674 -0.1042 -0.2211  0.3551
  733W        W 2933  11.930   1.631  10.622  0.3808  0.0641 -0.0449
  734W        W 2934  14.845   5.754  31.242 -0.1870 -0.0828 -0.0594
  735W        W 2935   6.025   0.038  34.917 -0.2733  0.0655  0.1411
  736W        W 2936   9.122   2.140   5.368  0.0001  0.1839  0.3129
  737W        W 2937   6.420   3.242  23.992 -0.2887 -0.1965 -0.3060
  738W        W 2938  13.513   4.725  22.723 -0.0829  0.0181 -0.0590
  739W        W 2939   6.656   2.260  29.932  0.0688 -0.1588 -0.1400
  740W        W 2940   9.857   3.602  23.904 -0.3952 -0.0366 -0.1007
  741W        W 2941   2.214   4.224  11.325 -0.2316 -0.0261  0.0467
  742W        W 2942  20.803   1.149   7.958  0.0042  0.0051  0.1153
  743W        W 2943  21.362   5.217  20.601  0.1190 -0.2103  0.1183
  744W        W 2944  11.221   6.483  11.499  0.0251  0.1250 -0.1863
  745W        W 2945   7.894   1.111  31.027  0.0076 -0.2244  0.1101
  746W        W 2946  12.568   6.325  32.914 -0.1466 -0.0051 -0.2386
  747W        W 2947  15.519   0.081  27.466  0.0190  0.1417  0.0688
  748W        W 2948  15.450   1.905  33.560  0.0648 -0.1874 -0.1160
  749W        W 2949   1.575   0.807  31.999  0.0310 -0.0490 -0.1394
  750W        W 2950  19.865   4.556   0.159  0.2713  0.0735 -0.0529
  751W        W 2951   9.059   4.729  26.954  0.0176 -0.1138 -0.1697
  752W        W 2952  14.514   5.435   9.317 -0.1781 -0.1487  0.1602
  753W        W 2953  11.145   6.284  21.947  0.0265 -0.0281 -0.0796
  754W        W 2954   6.981   5.767   9.366  0.1624 -0.1454 -0.1193
  755W        W 2955   2.696   4.636   6.522 -0.0749  0.0659  0.0982
  756W        W 2956  15.845   5.061  15.446 -0.2498  0.1268 -0.0711
  757W        W 2957  24.836   1.610   7.577  0.1425  0.0039  0.1702
  758W        W 2958   2.156   2.255   9.506  0.1045 -0.1874 -0.0746
  759W        W 2959  21.010   5.833  14.411 -0.1181  0.0889 -0.0197
  760W        W 2960  22.391   1.627  32.765 -0.0546 -0.2265  0.1120
  761W        W 2961  13.272   2.993  21.811  0.0606  0.3206 -0.1321
  762W        W 2962   6.208   2.993  34.172 -0.1345 -0.1732  0.0868
  763W        W 2963  11.973   6.198   2.405  0.1891  0.2919 -0.3696
  764W        W 2964   5.877   2.737  35.619  0.0635 -0.2444  0.0322
  765W        W 2965   1.794   2.049  14.339  0.0938 -0.0205 -0.1896
  766W        W 2966  11.661   5.023   5.209  0.0777 -0.1651 -0.0104
  767W        W 2967   8.721   0.578  15.362 -0.0375  0.0516 -0.0658
  768W        W 2968   2.656   0.164  27.068  0.1937  0.0498 -0.1437
  769W        W 2969  21.255   2.858  24.043 -0.0216  0.0497  0.1104
  770W        W 2970   6.422   3.213  25.573  0.3256  0.0683  0.0562
  771W        W 2971  18.094   5.820   1.747  0.0883  0.3795 -0.1742
  772W        W 2972   6.128   4.994  28.518 -0.1161  0.1203  0.1240
  773W        W 2973  14.554   6.010  21.040 -0.2782  0.0154  0.0048
  774W        W 2974  12.153   3.281   6.523  0.1916 -0.1837  0.1469
  775W        W 2975   0.572   0.386   5.194 -0.1069 -0.1237  0.1079
  776W        W 2976  24.580   2.065  29.566 -0.0897  0.2607 -0.0804
  777W        W 2977   0.165   2.658   2.180  0.0315  0.2988 -0.1688
  778W        W 2978  20.498   4.091   3.785  0.0113  0.1739  0.0366
  779W        W 2979  11.500   3.445  22.522  0.1425  0.0864 -0.1381
  780W        W 2980  13.876   2.636   6.327 -0.0071 -0.1872  0.0966
  781W        W 2981  13.848   3.467  28.101  0.1165 -0.2334 -0.2373
  782W        W 2982  20.875   6.577  24.191 -0.2505 -0.1597 -0.0267
  783W        W 2983   9.474   5.304  25.671 -0.1126 -0.1981  0.5003
  784W        W 2984   1.821   6.202  10.122 -0.1255  0.1570 -0.0925
  785W        W 2985   5.084   4.165   5.702 -0.0612 -0.0216 -0.4049
  786W        W 2986  18.628   4.085  12.155 -0.1976 -0.3466  0.1241
  787W        W 2987   0.928   1.078  15.285 -0.2489 -0.0375  0.2072
  788W        W 2988   0.015   1.848  27.416  0.1417  0.2769 -0.2274
  789W        W 2989  11.861   1.381  30.291  0.0464 -0.1172 -0.1028
  790W        W 2990   4.402   3.720  15.640  0.0353  0.0442 -0.1475
  791W        W 2991  17.652   6.004  35.687 -0.1549 -0.3741 -0.0722
  792W        W 2992   6.059   4.124  23.693 -0.1062 -0.0988  0.0020
  793W        W 2993  12.856   2.644  24.739 -0.0297 -0.0096 -0.1908
  794W        W 2994  25.033   5.920   7.260  0.0525 -0.2920 -0.0366
  795W        W 2995  24.928   3.676  22.581  0.2779 -0.0007  0.0901
  796W        W 2996  26.021   3.767  12.496 -0.1462  0.2950 -0.1708
  797W        W 2997  16.317   1.214   1.393  0.1308  0.2652 -0.1717
  798W        W 2998   5.718   4.191  32.892  0.2659 -0.0373 -0.1925
  799W        W 2999   5.528   1.499   6.229 -0.3114 -0.0058 -0.2151
  800W        W 3000   3.648   2.847  34.454 -0.1149 -0.3554 -0.1020
  801W        W 3001  20.294   2.469   8.676 -0.1615  0.1456 -0.0028
  802W        W 3002  25.207   5.284   7.700 -0.0847  0.0635 -0.1482
  803W        W 3003  16.128   3.709   3.118 -0.1497  0.2230 -0.1477
  804W        W 3004  10.947   2.212   5.406 -0.2449 -0.3542  0.1658
  805W        W 3005  14.605   2.099  11.020 -0.1696 -0.1186  0.1207
  806W        W 3006   1.380   5.821  15.793  0.0968  0.0625  0.1267
  807W        W 3007  22.993   0.432  13.351  0.0778 -0.0080 -0.0578
  808W        W 3008   9.830   0.551  21.448 -0.0689 -0.3956  0.0500
  809W        W 3009  22.306   6.222  20.620 -0.0470 -0.0870  0.3355
  810W        W 3010  12.527   4.881   6.360 -0.0872  0.1758  0.1467
  811W        W 3011   6.361   0.996   5.838 -0.1023  0.2642  0.0017
  812W        W 3012   4.057   5.708  14.492  0.0944 -0.0752 -0.0344
  813W        W 3013  21.126   4.930   0.815  0.0142  0.1351 -0.1804
  814W        W 3014  19.287   0.469   1.218 -0.0896  0.2408 -0.0950
  815W        W 3015  25.241   6.395  34.544  0.1447  0.3819 -0.0726
  816W        W 3016  19.242   3.953  26.239  0.1061  0.1011  0.2346
  817W        W 3017   6.603   5.112  24.352 -0.2646 -0.1947 -0.1040
  818W        W 3018   8.982   0.972  12.629  0.4509  0.1378  0.1721
  819W        W 3019  14.761   1.371   2.057 -0.0386  0.1424 -0.0770
  820W        W 3020   7.910   2.949  13.527 -0.1184 -0.0165 -0.0463
  821W        W 3021  24.186   3.506  20.040  0.1738 -0.0738 -0.2721
  822W        W 3022   5.715   3.246  31.893 -0.0961 -0.2592  0.0745
  823W        W 3023  22.940   4.195   4.843  0.0619  0.0628 -0.0788
  824W        W 3024  24.599   5.363  32.089  0.0415  0.0329 -0.3107
  825W        W 3025   9.307   5.430   8.322 -0.0087 -0.0780 -0.1022
  826W        W 3026  12.318   4.467  23.221 -0.0136 -0.0205  0.2118
  827W        W 3027  17.288   5.668   3.251  0.2780 -0.0577 -0.0028
  828W        W 3028  17.653   3.099   0.737 -0.1201 -0.1897  0.0121
  829W        W 3029  21.232   0.761  31.588 -0.0602  0.0313 -0.1148
  830W        W 3030  20.695   0.426  35.060  0.4085  0.1362  0.0669
  831W        W 3031   9.765   2.512  24.059 -0.1927 -0.1201 -0.0748
  832W        W 3032  12.042   0.920   9.891  0.1733  0.2006  0.2913
  833W        W 3033  23.762   0.155   8.308 -0.1811 -0.2926 -0.1776
  834W        W 3034   2.289   0.191  27.516  0.1144 -0.0214  0.1166
  835W        W 3035   7.521   0.291   9.511  0.0068 -0.0717 -0.0488
  836W        W 3036   0.508   0.369  14.860  0.1904  0.1972 -0.1108
  837W        W 3037   4.925   5.783  29.564 -0.0911 -0.1884  0.1235
  838W        W 3038  12.549   0.172  34.278  0.2410  0.0079 -0.0788
  839W        W 3039  14.230   6.332  27.784  0.1673 -0.0212  0.1038
  840W        W 3040  10.736   4.958  26.580 -0.1149  0.2141  0.1480
  841W        W 3041  24.681   0.859  30.471 -0.0629  0.1859  0.1429
  842W        W 3042  15.857   0.499  11.779 -0.1431  0.0242 -0.1017
  843W        W 3043  16.249   6.246   7.932 -0.1377  0.0109  0.0045
  844W        W 3044   5.031   2.990  12.503 -0.1990  0.1098 -0.0463
  845W        W 3045  15.041   3.613   9.477  0.1747 -0.1557  0.3033
  846W        W 3046  18.088   0.633  34.242 -0.1916  0.0402  0.2186
  847W        W 3047  20.477   2.161  35.735  0.4430 -0.2594  0.3781
  848W        W 3048  21.325   0.675  33.383 -0.2201  0.0152  0.3010
  849W        W 3049  15.682   2.921   7.881 -0.0822  0.0085 -0.4024
  850W        W 3050   8.058   4.434  27.169 -0.1295 -0.1181 -0.2781
  851W        W 3051   3.029   6.311  13.375 -0.0113 -0.0694 -0.2154
  852W        W 3052   6.860   1.420  29.679  0.0870  0.0430  0.0533
  853W        W 3053  12.495   2.452   0.277  0.0886 -0.1514  0.2611
  854W        W 3054  10.696   5.561  35.478 -0.2033  0.1679  0.3615
  855W        W 3055   6.864   4.351   3.509 -0.0428 -0.0890  0.1384
  856W        W 3056   7.826   2.087  10.227 -0.0611 -0.0946  0.2586
  857W        W 3057   2.316   0.181  32.163  0.0804  0.0150  0.1494
  858W        W 3058  20.561   5.735  11.253 -0.2626  0.0476 -0.3059
  859W        W 3059  20.968   3.855  12.142 -0.1730  0.2173  0.0862
  860W        W 3060   4.460   2.379   0.487 -0.1089  0.1137 -0.0940
  861W        W 3061  21.515   2.341  27.236  0.1208 -0.2249  0.0001
  862W        W 3062  25.139   3.360  32.604  0.0629  0.1978 -0.1247
  863W        W 3063   8.783   5.673   9.225  0.0295 -0.2564 -0.1006
  864W        W 3064  18.280   4.193  22.496  0.1151 -0.0738 -0.2807
  865W        W 3065   6.000   5.392   6.413 -0.0554  0.2693 -0.0558
  866W        W 3066   3.478   0.715   6.980  0.1687 -0.0322  0.1307
  867W        W 3067   5.128   4.256  33.542  0.4189 -0.0298 -0.2366
  868W        W 3068  10.168   4.360  32.589  0.0702 -0.1241 -0.1135
  869W        W 3069  22.410   5.020  26.839 -0.1635  0.2407  0.1720
  870W        W 3070  20.404   3.054  10.674 -0.0550  0.1852  0.2476
  871W        W 3071   1.619   4.385  34.155 -0.0793 -0.0915 -0.1864
  872W        W 3072  11.585   3.771  28.846 -0.1859 -0.0757  0.1856
  873W        W 3073  11.277   4.080   0.942 -0.2435 -0.0466 -0.1373
  874W        W 3074  21.974   0.887  34.592  0.0534  0.0323 -0.0851
  875W        W 3075  11.275   4.070  11.096 -0.0899  0.0608  0.0983
  876W        W 3076   2.432   2.570  30.881  0.0318  0.1116  0.1771
  877W        W 3077  14.898   2.935  13.186  0.2402 -0.2631  0.1429
  878W        W 3078   1.947   4.778  21.085  0.0069 -0.3464  0.1060
  879W        W 3079  20.460   1.406   0.155  0.0239 -0.1363 -0.1244
  880W        W 3080  24.297   2.545  31.272 -0.1588  0.1538 -0.2443
  881W        W 3081  15.317   5.333  32.988  0.0202 -0.2357  0.0122
  882W        W 3082   5.793   2.747  31.843 -0.1237 -0.0192  0.0335
  883W        W 3083   7.495   4.787  29.072  0.0925 -0.2072  0.1183
  884W        W 3084   2.320   2.237  12.403 -0.1728 -0.0606  0.0954
  885W        W 3085  11.975   4.186   9.681  0.0010  0.0218  0.0073
  886W        W 3086   0.417   4.839   3.660  0.0877 -0.0312 -0.0590
  887W        W 3087   2.453   1.889  13.742 -0.0747 -0.2147  0.1707
  888W        W 3088  11.036   4.235   9.751 -0.0133  0.2796  0.2828
  889W        W 3089  15.682   4.173   3.869 -0.3473  0.2069 -0.2824
  890W        W 3090   6.649   3.182  33.989 -0.1776 -0.1276  0.0259
  891W        W 3091   5.430   3.183  24.424 -0.2294  0.2072  0.1344
  892W        W 3092   2.096   3.713  35.239  0.2620  0.0266 -0.2168
  893W        W 3093  11.964   6.226  35.685 -0.1711 -0.0417 -0.1307
  894W        W 3094   3.676   5.183  14.981 -0.0025  0.0474 -0.0218
  895W        W 3095  22.310   4.305   8.272  0.0647  0.2417 -0.3992
  896W        W 3096  23.488   5.771  30.728  0.0045 -0.0469  0.0728
  897W        W 3097  17.962   3.147   7.353  0.0696  0.2239  0.0365
  898W        W 3098   8.651   5.732   5.581  0.3920 -0.3666 -0.3347
  899W        W 3099  11.478   1.079  15.010 -0.2245  0.0995 -0.1023
  900W        W 3100  13.246   0.563  21.893  0.0301 -0.2138  0.3898
  901W        W 3101  20.454   3.724  12.529  0.1014  0.1836  0.1296
  902W        W 3102  11.941   6.211   2.941  0.2360  0.2655 -0.2426
  903W        W 3103   4.911   6.182  33.797 -0.0015  0.1636  0.2783
  904W        W 3104  12.349   4.283  31.457  0.1171 -0.2642 -0.0796
  905W        W 3105   3.992   4.471  24.884  0.3009  0.1843  0.1550
  906W        W 3106  16.624   0.276  29.667 -0.0935 -0.3126 -0.0327
  907W        W 3107  17.622   2.752  30.809 -0.0935  0.2548 -0.0037
  908W        W 3108   3.778   1.269   2.722  0.1858  0.1412 -0.4013
  909W        W 3109   0.569   3.908   6.550 -0.0405  0.1497 -0.0483
  910W        W 3110  20.288   2.280  30.586 -0.0284 -0.2468  0.0374
  911W        W 3111   7.360   4.391   7.468 -0.3215 -0.1443 -0.2108
  912W        W 3112  23.579   0.167   3.018 -0.0053  0.0776  0.2234
  913W        W 3113   6.502   4.945   9.761  0.0953 -0.1215 -0.2121
  914W        W 3114  24.856   6.033   2.199  0.1383  0.1461  0.1327
  915W        W 3115   6.728   1.801   2.403  0.0425 -0.2070 -0.0678
  916W        W 3116  24.772   5.744   6.185  0.1659  0.1646 -0.0782
  917W        W 3117  17.304   4.483  32.254 -0.4915 -0.2126 -0.1893
  918W        W 3118  19.115   3.101  23.007  0.1292 -0.1254  0.0224
  919W        W 3119  19.923   2.821  27.644  0.0066 -0.1805  0.0007
  920W        W 3120  16.226   0.179   8.815  0.1564 -0.3079 -0.0187
  921W        W 3121  20.330   5.643  26.644  0.1440 -0.0065  0.1803
  922W        W 3122  14.189   2.305  12.736 -0.1626  0.1643 -0.0212
  923W        W 3123   2.543   1.549   4.213 -0.0638  0.1574  0.0292
  924W        W 3124  23.934   0.780  25.965 -0.1458  0.0475  0.1455
  925W        W 3125   9.229   6.266  24.828 -0.0074 -0.0456 -0.1881
  926W        W 3126   3.976   5.041   0.063  0.2169 -0.2577  0.1173
  927W        W 3127  12.537   1.892  33.134 -0.0607 -0.0280  0.0055
  928W        W 3128   6.268   3.374  34.482  0.1605 -0.0495 -0.1620
  929W        W 3129   5.263   5.095   0.034  0.1653 -0.1927 -0.0990
  930W        W 3130   1.321   3.578  10.789 -0.0185  0.0400 -0.2741
  931W        W 3131  13.617   2.632  24.418  0.1906  0.0775 -0.1998
  932W        W 3132   6.598   5.250  27.678  0.0255  0.0994  0.0725
  933W        W 3133  26.128   4.993   8.191  0.1615 -0.0080 -0.0234
  934W        W 3134  20.733   1.764   5.389 -0.2209 -0.0678 -0.1437
  935W        W 3135  16.681   2.401  29.826 -0.3156  0.1707 -0.2941
  936W        W 3136  21.546   0.590   3.915 -0.1730  0.2317 -0.2271
  937W        W 3137  19.139   2.370   0.683  0.4981  0.1588 -0.0702
  938W        W 3138  19.624   3.450  11.066  0.1730  0.2056 -0.0417
  939W        W 3139  19.658   2.999   9.591 -0.1678  0.0800  0.0457
  940W        W 3140  18.245   5.678  22.850  0.1367 -0.0618  0.2212
  941W        W 3141   0.529   3.355  21.062  0.3574 -0.1660  0.1206
  942W        W 3142  21.177   1.964  33.160  0.1655  0.0370 -0.2307
  943W        W 3143  10.247   0.150  27.841 -0.1746  0.2934  0.0759
  944W        W 3144  12.252   2.882   0.259 -0.3374  0.1108 -0.0344
  945W        W 3145  16.065   1.559  26.386  0.0649 -0.0179 -0.1935
  946W        W 3146  11.613   4.706  23.642  0.0336  0.1028 -0.0786
  947W        W 3147   8.966   5.238  23.479 -0.1294 -0.1339 -0.1419
  948W        W 3148   8.660   1.687   9.800  0.0086 -0.0635  0.1104
  949W        W 3149   0.781   1.174  10.202  0.1489  0.2777  0.2343
  950W        W 3150   0.814   3.202   9.935 -0.0253 -0.1206  0.3230
  951W        W 3151  19.958   6.183  24.363 -0.1943 -0.3004  0.1718
  952W        W 3152   3.556   2.656  34.979  0.1776  0.2491  0.3075
  953W        W 3153  20.857   6.527  10.201  0.1419 -0.0182 -0.3949
  954W        W 3154  12.355   2.478  13.499 -0.1595  0.1252  0.0246
  955W        W 3155  24.664   5.545  32.583  0.1705  0.0820  0.0921
  956W        W 3156  23.216   5.467  12.981  0.1111  0.1082 -0.3256
  957W        W 3157  11.488   1.636  25.514 -0.2069 -0.1581 -0.1348
  958W        W 3158   6.212   2.102  32.394 -0.1613 -0.1593  0.2817
  959W        W 3159  10.669   1.406  29.488  0.1065 -0.1591 -0.1373
  960W        W 3160  12.052   5.657  33.613 -0.2424 -0.1461 -0.1880
  961W        W 3161   2.852   0.255  25.139  0.2419 -0.0757 -0.0436
  962W        W 3162  12.863   0.558  27.923 -0.0255 -0.1733 -0.4596
  963W        W 3163  20.792   5.581  27.727 -0.0183 -0.1123 -0.0081
  964W        W 3164  13.900   6.511  34.888 -0.2801  0.1441  0.1787
  965W        W 3165  15.404   5.111   3.863 -0.1167 -0.0409 -0.1544
  966W        W 3166   2.758   0.976   7.665 -0.1705 -0.1479 -0.0430
  967W        W 3167  14.271   0.212  13.280  0.0390  0.0494  0.0760
  968W        W 3168   9.158   1.422  35.039 -0.0724  0.0242  0.3412
  969W        W 3169   7.642   3.351   0.266 -0.3523  0.3182 -0.1925
  970W        W 3170   0.606   2.128  22.438 -0.2628 -0.0002  0.0989
  971W        W 3171  16.086   3.586  30.559  0.1209  0.0643  0.1170
  972W        W 3172  23.845   1.920  27.701  0.2787  0.2308  0.1613
  973W        W 3173   8.496   5.111  24.618  0.1578  0.0132 -0.1303
  974W        W 3174  16.129   4.778  26.740 -0.2168  0.0425  0.0212
  975W        W 3175  20.469   4.577  25.852 -0.0443 -0.0405  0.0825
  976W        W 3176  20.702   6.280  12.529  0.1349  0.2042  0.2342
  977W        W 3177   7.680   2.807  30.850 -0.0030  0.2210  0.2280
  978W        W 3178   6.591   2.333  35.389  0.1245 -0.1654  0.0368
  979W        W 3179  16.866   3.383  23.986  0.0658  0.1015 -0.1892
  980W        W 3180  14.168   6.362  33.634 -0.3949 -0.0504 -0.0257
  981W        W 3181   0.643   4.442   3.378  0.1411 -0.1266  0.1869
  982W        W 3182   2.269   2.923  29.888  0.1218  0.1814  0.0799
  983W        W 3183  11.651   5.596  30.556 -0.2503 -0.1544  0.3558
  984W        W 3184  16.583   0.566  12.821 -0.0330 -0.0465  0.0047
  985W        W 3185  13.212   5.436   4.912 -0.4609  0.1202  0.1765
  986W        W 3186  11.361   3.924   0.464 -0.1002 -0.0483  0.2459
  987W        W 3187  25.662   0.591  10.293 -0.0492 -0.0644  0.0912
  988W        W 3188  17.045   2.078   7.565  0.2367 -0.0945  0.0722
  989W        W 3189  18.572   5.631  12.456 -0.0797 -0.1017 -0.0210
  990W        W 3190   9.767   1.026  33.795 -0.1023 -0.0819  0.0990
  991W        W 3191  16.655   4.804  34.480  0.0933 -0.1877 -0.3216
  992W        W 3192  12.242   1.865   6.529  0.0081 -0.4418  0.1813
  993W        W 3193  22.244   4.497  30.517  0.0104 -0.0440 -0.1206
  994W        W 3194   0.412   6.335  25.350 -0.0966  0.2234 -0.1468
  995W        W 3195  25.674   1.013  33.758  0.0984 -0.2079 -0.1243
  996W        W 3196  16.664   3.051   9.894  0.1387  0.4165  0.2379
  997W        W 3197  11.363   0.719  30.571 -0.1103  0.2184 -0.0157
  998W        W 3198  17.274   3.029   1.154  0.0430  0.3015 -0.3420
  999W        W 3199   2.496   0.661  33.048 -0.0545  0.0431  0.2626
 1000W        W 3200   7.000   4.546  11.104  0.3275  0.2078 -0.2436
 1001W        W 3201  21.816   2.327  32.504 -0.0384 -0.1637 -0.3001
 1002W        W 3202  12.909   4.523  34.109 -0.2391  0.2653 -0.4283
 1003W        W 3203  22.648   2.475  27.773  0.2945  0.1340  0.2441
 1004W        W 3204  25.331   3.932   3.442 -0.2019 -0.2356  0.0614
 1005W        W 3205  14.991   1.735  14.269  0.2621 -0.1389 -0.0431
 1006W        W 3206  22.307   3.597  35.931  0.0095 -0.1837  0.0856
 1007W        W 3207   6.875   4.408  26.005  0.2042 -0.3659  0.0195
 1008W        W 3208   4.767   1.112   0.561  0.1216 -0.0002 -0.0820
 1009W        W 3209   0.844   5.395   7.408  0.1875 -0.2869  0.1838
 1010W        W 3210   7.429   1.842  15.248 -0.3804  0.0456 -0.1166
 1011W        W 3211   7.036   5.758  31.430 -0.4513  0.0775 -0.0965
 1012W        W 3212  25.752   4.658  28.668 -0.1562  0.0496 -0.1817
 1013W        W 3213  22.528   5.898   8.228 -0.2277 -0.2709 -0.1385
 1014W        W 3214  15.970   2.770  22.259  0.1574  0.2969 -0.0634
 1015W        W 3215  15.426   4.225   6.925  0.0022  0.0829  0.0122
 1016W        W 3216  20.791   3.435  35.181 -0.3029 -0.4747  0.1385
 1017W        W 3217   3.065   3.799   6.888  0.2544  0.0990  0.0570
 1018W        W 3218   9.102   3.394   4.611  0.1875 -0.2369 -0.1005
 1019W        W 3219  20.056   5.261  26.482  0.1309  0.1118  0.0037
 1020W        W 3220   4.244   4.423  13.639 -0.1138 -0.4541 -0.1291
 1021W        W 3221  26.087   2.137  12.353 -0.0288 -0.0555 -0.3926
 1022W        W 3222  14.411   4.231  34.580  0.1339 -0.0352  0.0748
 1023W        W 3223  22.206   0.213   2.224 -0.0939  0.0666 -0.2808
 1024W        W 3224   3.207   4.659  28.562  0.1602 -0.0443 -0.2171
 1025W        W 3225   2.474   3.215   5.177  0.1797  0.2069 -0.2833
 1026W        W 3226  18.705   1.459  11.170 -0.2486 -0.0761  0.1187
 1027W        W 3227   7.463   4.302  15.515 -0.2405  0.0125 -0.0027
 1028W        W 3228  12.668   5.606  30.881  0.1163 -0.1410 -0.0639
 1029W        W 3229   9.465   2.275  33.734 -0.2159  0.1974  0.0504
 1030W        W 3230   8.030   6.129  23.794  0.1017  0.0168 -0.3604
 1031W        W 3231  24.405   1.756  23.526  0.0335  0.2075  0.0238
 1032W        W 3232   7.314   1.505  29.955 -0.0450  0.2538 -0.0406
 1033W        W 3233  21.775   1.821   7.479 -0.0924 -0.1225 -0.0461
 1034W        W 3234   2.500   0.269   9.819  0.1405 -0.2287 -0.0113
 1035W        W 3235  23.360   3.297   5.563  0.1156  0.0584  0.0591
 1036W        W 3236   7.065   5.047  28.723 -0.0615 -0.0465  0.6257
 1037W        W 3237   6.331   1.808  24.776 -0.3138 -0.0622  0.2155
 1038W        W 3238  25.407   3.789  28.819 -0.0830  0.0139 -0.2464
 1039W        W 3239  10.605   5.941  32.095 -0.2081 -0.1164  0.1693
 1040W        W 3240  23.589   5.933  32.198  0.0291 -0.1354 -0.0717
 1041W        W 3241   6.783   5.197   6.358  0.0289 -0.1302  0.2181
 1042W        W 3242  10.724   2.505  23.679 -0.0995  0.1360  0.1689
 1043W        W 3243   9.190   5.959   3.515  0.1317  0.1522  0.0721
 1044W        W 3244   2.068   0.534  16.056  0.1003  0.0473  0.0136
 1045W        W 3245   8.908   1.835  22.675 -0.0250 -0.0480 -0.1617
 1046W        W 3246   4.209   0.780   4.361 -0.2256  0.0489  0.1012
 1047W        W 3247   1.115   1.709   3.254 -0.0918  0.0833 -0.1567
 1048W        W 3248  21.917   1.050  13.517  0.1364 -0.1637 -0.0727
 1049W        W 3249  20.890   4.460  28.739  0.0295  0.1352  0.1577
 1050W        W 3250   1.099   3.989   9.033  0.2943  0.1014 -0.1790
 1051W        W 3251   9.298   5.583   2.877 -0.0981  0.0027  0.1471
 1052W        W 3252  16.968   3.368   9.463  0.1616 -0.1395 -0.1035
 1053W        W 3253   7.232   5.357   9.421 -0.1152 -0.0760 -0.0244
 1054W        W 3254   4.473   6.389   9.270 -0.3474 -0.1629 -0.2797
 1055W        W 3255  22.755   2.275   1.767  0.0128  0.1582 -0.1915
 1056W        W 3256   5.054   0.629  20.720 -0.2428 -0.1017  0.2323
 1057W        W 3257   7.671   4.513  32.543  0.1798 -0.0299  0.0724
 1058W        W 3258  13.969   0.361   6.002  0.3273 -0.0547  0.1597
 1059W        W 3259   6.426   2.189   5.656  0.1750 -0.3083 -0.1733
 1060W        W 3260  24.172   5.879  23.396  0.2738  0.0354 -0.4131
 1061W        W 3261   1.023   1.506  11.210 -0.1627  0.2027 -0.0617
 1062W        W 3262  18.576   1.824  12.587 -0.0218 -0.6094 -0.0990
 1063W        W 3263   3.528   0.780  13.767 -0.1429  0.1644  0.1408
 1064W        W 3264  23.148   3.714  10.683 -0.2170  0.0066  0.1052
 1065W        W 3265  12.130   6.573   7.588  0.0931  0.0847 -0.0001
 1066W        W 3266  11.893   3.478   1.788  0.2206 -0.0710  0.1513
 1067W        W 3267  20.146   1.515  29.971 -0.1156 -0.1924  0.1716
 1068W        W 3268   8.461   2.212  34.119 -0.0656 -0.0252 -0.1572
 1069W        W 3269   0.620   2.138   2.077  0.0497 -0.3059  0.0108
 1070W        W 3270  17.181   2.862   2.243 -0.3821 -0.1174  0.0167
 1071W        W 3271   1.744   2.539   1.227 -0.0692 -0.2991 -0.3272
 1072W        W 3272  18.657   0.430  27.608 -0.0359  0.1864  0.2550
 1073W        W 3273   4.264   0.997  35.422 -0.0094  0.2968 -0.0596
 1074W        W 3274  10.841   3.490   8.138 -0.0344  0.1641 -0.0599
 1075W        W 3275  21.980   1.215  14.703  0.1274  0.0533 -0.0212
 1076W        W 3276   1.654   2.315   7.808 -0.0563 -0.0651  0.1566
 1077W        W 3277   2.266   5.345   9.359  0.2961  0.0056  0.1758
 1078W        W 3278  14.261   1.219  35.727 -0.3405  0.0229  0.0255
 1079W        W 3279   2.675   0.080  34.689 -0.1040 -0.2379 -0.0566
 1080W        W 3280  21.484   5.999  34.935  0.2380 -0.1826 -0.2033
 1081W        W 3281   6.464   6.167  24.362 -0.0087 -0.1831  0.1291
 1082W        W 3282  18.268   2.400  21.652 -0.3448  0.4710 -0.0898
 1083W        W 3283  21.908   5.244   2.286  0.1728 -0.2392 -0.1292
 1084W        W 3284   6.973   1.975  29.624 -0.3523 -0.0153 -0.3420
 1085W        W 3285  18.824   1.018  28.659 -0.1017 -0.0468 -0.0248
 1086W        W 3286  17.131   2.486   6.484  0.0686 -0.2397 -0.2307
 1087W        W 3287   8.934   3.220   6.606 -0.1683  0.0227 -0.0319
 1088W        W 3288  24.453   3.610  22.359  0.0390 -0.1421 -0.2132
 1089W        W 3289  14.216   4.086  24.502 -0.0549  0.3293  0.1784
 1090W        W 3290  21.987   6.350  14.607 -0.1507 -0.3291  0.2220
 1091W        W 3291  21.648   4.164   0.397 -0.2944 -0.1844  0.0849
 1092W        W 3292  19.405   5.634  35.901  0.0453  0.0093 -0.1102
 1093W        W 3293  13.226   3.212  12.154  0.0098 -0.3581  0.0594
 1094W        W 3294   2.621   4.904  32.271 -0.1607 -0.0934  0.1072
 1095W        W 3295  22.345   3.776   1.166 -0.1274  0.2005  0.0207
 1096W        W 3296  12.742   1.622  31.602 -0.0181  0.1494 -0.1775
 1097W        W 3297   6.605   0.198  22.040  0.5721 -0.0748  0.1251
 1098W        W 3298  25.553   4.458  23.109 -0.0730  0.0588  0.1926
 1099W        W 3299  22.247   1.530  13.627 -0.0632  0.1576  0.2237
 1100W        W 3300  10.245   2.262   6.772  0.0248  0.0866  0.1457
 1101W        W 3301   8.582   4.382   9.220  0.2889  0.0567 -0.0810
 1102W        W 3302   1.605   3.954   1.973  0.1545  0.1163 -0.1643
 1103W        W 3303  22.172   4.670  30.950 -0.1868 -0.0062 -0.0979
 1104W        W 3304  18.985   6.051   1.431  0.2449  0.0074  0.0866
 1105W        W 3305  14.794   3.211  10.608  0.3302  0.1362 -0.0783
 1106W        W 3306  12.643   3.038  35.451  0.0193  0.2689 -0.2450
 1107W        W 3307  16.522   4.885  24.717  0.1710 -0.1968  0.2431
 1108W        W 3308  11.024   6.268   0.207  0.0408 -0.1181  0.1770
 1109W        W 3309  16.207   0.517  13.510  0.1473  0.0229 -0.0821
 1110W        W 3310   0.227   3.558  26.492  0.0589 -0.2011  0.0303
 1111W        W 3311  20.758   6.437  25.227  0.2092  0.0150  0.0907
 1112W        W 3312   3.604   5.117  29.821  0.2642  0.1896 -0.0620
 1113W        W 3313  14.695   1.853   2.127  0.0387  0.3789 -0.0415
 1114W        W 3314   5.867   2.888  10.128  0.1561  0.0682 -0.1386
 1115W        W 3315  22.401   3.992  35.175 -0.0026  0.2303 -0.0958
 1116W        W 3316  16.438   5.919  22.219  0.3109  0.3394 -0.2358
 1117W        W 3317  10.979   3.633   9.149  0.1273  0.2731  0.4741
 1118W        W 3318  24.406   0.801  35.256  0.1264 -0.1692 -0.1723
 1119W        W 3319   9.774   1.284   0.115 -0.0993  0.0245 -0.5575
 1120W        W 3320   2.519   2.769   8.152 -0.0294  0.0911 -0.1295
 1121W        W 3321   1.831   1.841   0.637  0.0433 -0.1147  0.0791
 1122W        W 3322  21.764   3.565  34.683 -0.2501 -0.0624 -0.2340
 1123W        W 3323  14.617   2.082   1.506 -0.1908 -0.2657 -0.0731
 1124W        W 3324  22.642   0.755  33.318 -0.2071 -0.2845 -0.3530
 1125W        W 3325  21.339   0.873   1.178 -0.1531 -0.0907  0.1220
 1126W        W 3326   9.546   5.972  15.302 -0.0914 -0.0839 -0.1716
 1127W        W 3327   9.610   4.937   4.135 -0.1990  0.0617 -0.1263
 1128W        W 3328  17.984   4.453  22.126 -0.2053  0.0834 -0.1757
 1129W        W 3329  18.898   1.762  26.087 -0.1848 -0.1750  0.1909
 1130W        W 3330   5.542   5.646  33.951 -0.1790 -0.0927 -0.1795
 1131W        W 3331  20.243   3.938  13.720  0.1605  0.3099 -0.3287
 1132W        W 3332   5.930   5.026  29.550 -0.2978 -0.0770 -0.0583
 1133W        W 3333   1.467   0.258  32.130  0.2196 -0.4345  0.2653
 1134W        W 3334  13.769   4.636  35.158  0.1745 -0.3281  0.1251
 1135W        W 3335  16.211   3.209  29.439 -0.0674  0.1077  0.0094
 1136W        W 3336  11.430   4.047   4.845 -0.0211  0.3714 -0.0437
 1137W        W 3337   6.117   6.372  32.623 -0.1882 -0.1261  0.1411
 1138W        W 3338   4.259   5.659   7.387 -0.0817 -0.0342 -0.0429
 1139W        W 3339   7.290   2.923   4.213  0.0378 -0.0018  0.0766
 1140W        W 3340  20.340   1.603   0.645  0.1338  0.0706  0.0539
 1141W        W 3341  14.600   4.592  15.285  0.0512  0.2017 -0.0640
 1142W        W 3342  21.438   3.919  10.051  0.1420  0.2500 -0.0483
 1143W        W 3343  20.440   3.497  27.360  0.0142  0.5415 -0.2449
 1144W        W 3344   6.928   5.639  30.441  0.1220  0.3633  0.1797
 1145W        W 3345   9.578   4.257  15.260  0.0891 -0.1737  0.2380
 1146W        W 3346   2.352   0.097  33.058 -0.0545 -0.0813  0.0723
 1147W        W 3347  24.403   2.442  14.030 -0.2928 -0.2793  0.2229
 1148W        W 3348   1.173   5.924  33.119  0.0642  0.2317 -0.0614
 1149W        W 3349   5.043   6.287  15.541 -0.2392  0.1224 -0.0902
 1150W        W 3350   3.016   6.091  10.504 -0.2570 -0.0203  0.0288
 1151W        W 3351  23.179   1.166   2.364  0.1348  0.1950 -0.0173
 1152W        W 3352  11.663   5.193  28.786 -0.2204  0.2149 -0.0958
 1153W        W 3353  21.597   1.124  27.294 -0.1213  0.1118  0.1391
 1154W        W 3354   1.594   2.436  34.809 -0.0337 -0.1402 -0.1688
 1155W        W 3355  25.116   5.037   5.128 -0.1585  0.1584 -0.0179
 1156W        W 3356  19.354   3.381  29.285 -0.1742  0.0619 -0.4525
 1157W        W 3357   0.796   4.892  28.670 -0.0394  0.1132  0.2517
 1158W        W 3358  25.092   4.600   9.713  0.3142  0.3573  0.0604
 1159W        W 3359   3.069   3.845  29.188 -0.0338 -0.0061 -0.3030
 1160W        W 3360   2.794   4.489  32.024 -0.2541  0.2491  0.0058
 1161W        W 3361  13.755   5.522  15.337 -0.0604 -0.1577  0.0250
 1162W        W 3362  11.730   3.745  27.426 -0.0925 -0.0620 -0.0490
 1163W        W 3363   1.221   0.291   9.803 -0.0615  0.2751  0.0686
 1164W        W 3364  16.776   2.954  35.433 -0.0571 -0.3942  0.1115
 1165W        W 3365  20.252   1.487  27.658 -0.2216 -0.3689  0.1220
 1166W        W 3366  18.593   3.598  31.290 -0.0010  0.1925  0.0394
 1167W        W 3367  25.697   3.644   6.555  0.0595  0.0626  0.0678
 1168W        W 3368  25.505   5.308   6.768 -0.2159 -0.0739 -0.0032
 1169W        W 3369   5.417   1.580  25.034  0.1516  0.0086  0.0679
 1170W        W 3370   2.748   3.343  33.613  0.0058  0.1853 -0.1960
 1171W        W 3371  22.324   3.855  26.621 -0.2336  0.0244 -0.1619
 1172W        W 3372  25.610   3.646  23.702  0.1026 -0.1150  0.0689
 1173W        W 3373   6.512   5.792  21.365  0.0669 -0.1151  0.1941
 1174W        W 3374   1.605   4.023  33.346 -0.0806 -0.1004  0.2027
 1175W        W 3375  18.895   0.995   1.099  0.0473 -0.0149  0.0804
 1176W        W 3376   2.246   6.292  29.235 -0.0499  0.2868 -0.2004
 1177W        W 3377  23.450   6.542  13.044  0.1948 -0.0799 -0.3083
 1178W        W 3378  14.484   5.385  10.576  0.0616  0.1809  0.0407
 1179W        W 3379  10.200   3.071  28.052 -0.2413 -0.1586  0.1702
 1180W        W 3380   7.057   4.152   1.768 -0.0469 -0.0300 -0.2218
 1181W        W 3381   9.701   2.938  35.222  0.3577  0.0887  0.1457
 1182W        W 3382  16.987   4.415   7.407  0.4581 -0.2085 -0.2105
 1183W        W 3383  20.858   3.922  22.453 -0.1939  0.0952  0.0503
 1184W        W 3384  19.747   4.138   7.179 -0.1124 -0.1539  0.1510
 1185W        W 3385  11.730   5.489   4.963 -0.4696 -0.1289 -0.2831
 1186W        W 3386   7.180   2.271   1.627  0.2525  0.1863  0.1664
 1187W        W 3387  20.939   6.267  12.053  0.0361  0.2130 -0.0740
 1188W        W 3388  13.976   4.543  11.865  0.0073  0.1244 -0.1814
 1189W        W 3389  14.990   2.553  23.929 -0.1029 -0.3624  0.1373
 1190W        W 3390  23.083   5.876   8.529  0.0440  0.2327 -0.4387
 1191W        W 3391  10.622   3.895  23.881 -0.2142 -0.1066 -0.0225
 1192W        W 3392   8.320   2.163   8.113 -0.1248  0.0515  0.1658
 1193W        W 3393   3.496   3.070  35.513 -0.1252 -0.0489  0.1702
 1194W        W 3394   1.776   3.477  24.390  0.0881 -0.1023  0.1266
 1195W        W 3395  22.919   3.438  15.175 -0.0476  0.1869  0.2597
 1196W        W 3396   4.178   4.376   9.280  0.4258 -0.0580  0.2241
 1197W        W 3397  20.516   1.343  25.950 -0.0120  0.4007 -0.1475
 1198W        W 3398  22.650   4.185  12.050  0.0580 -0.0237  0.1660
 1199W        W 3399   8.821   1.615  14.499 -0.0941 -0.2095  0.3254
 1200W        W 3400  10.134   2.950  24.469 -0.0208 -0.0351  0.1971
 1201W        W 3401  14.354   0.670  34.201  0.2361 -0.1500 -0.0529
 1202W        W 3402   9.461   0.783  33.363 -0.1422  0.0192 -0.0662
 1203W        W 3403  23.131   1.330  11.340  0.2264  0.5091 -0.0404
 1204W        W 3404   2.281   2.232   7.643 -0.2011 -0.0563  0.0802
 1205W        W 3405  18.053   3.584  12.497 -0.0668 -0.3172 -0.2513
 1206W        W 3406  19.252   1.537  14.630  0.1637  0.0199 -0.1711
 1207W        W 3407  13.132   1.151  28.851 -0.1545 -0.3496 -0.0964
 1208W        W 3408  23.459   2.184  13.302 -0.0940 -0.1861  0.1934
 1209W        W 3409  17.671   4.282  13.928  0.0704 -0.1158 -0.1365
 1210W        W 3410  13.936   1.796   1.947  0.0278 -0.0117 -0.0396
 1211W        W 3411  19.439   0.305   2.932 -0.0929 -0.0141 -0.0539
 1212W        W 3412   3.982   0.011   2.585  0.2047 -0.0314 -0.0700
 1213W        W 3413  25.963   3.632  23.265 -0.3311  0.0030  0.2099
 1214W        W 3414  22.257   0.048  27.670  0.0647 -0.0187  0.2582
 1215W        W 3415  25.932   1.449   0.917  0.0821  0.1494  0.4093
 1216W        W 3416   5.634   5.931  34.474 -0.0702 -0.2520  0.0995
 1217W        W 3417  13.997   0.944   2.910 -0.0572  0.1929  0.2477
 1218W        W 3418  16.698   1.963  32.240 -0.1807  0.3575  0.3782
 1219W        W 3419   1.270   1.667  22.479  0.1277  0.1194  0.0386
 1220W        W 3420  13.967   0.493  15.468  0.2208 -0.0525  0.1322
 1221W        W 3421  22.976   2.318   7.905  0.1823 -0.0087  0.0556
 1222W        W 3422   4.528   4.870   6.106  0.3334  0.0374 -0.1977
 1223W        W 3423  25.497   2.425  34.103 -0.3860 -0.0752 -0.1057
 1224W        W 3424  18.514   6.331  35.333 -0.2241 -0.0296  0.2150
 1225W        W 3425   7.281   3.658   0.273  0.0547 -0.0085 -0.4876
 1226W        W 3426  20.718   6.211  29.994 -0.2867 -0.1270  0.1387
 1227W        W 3427  22.715   4.743  30.481  0.0653 -0.1719  0.2043
 1228W        W 3428   0.368   1.013   6.273 -0.0446  0.2415  0.0104
 1229W        W 3429  20.901   2.206  30.430 -0.0709 -0.0679 -0.0536
 1230W        W 3430  15.876   0.038  28.249  0.0569  0.3227  0.1091
 1231W        W 3431   4.836   1.706  31.060 -0.0529 -0.1850 -0.1895
 1232W        W 3432  24.529   5.180  28.681 -0.1462  0.1179  0.3457
 1233W        W 3433   6.799   2.539  26.101 -0.0808 -0.0247  0.3999
 1234W        W 3434  16.462   3.647  15.148  0.4622  0.2508  0.3066
 1235W        W 3435  20.863   5.898  32.157  0.1588  0.1467  0.1171
 1236W        W 3436  20.711   4.598  31.764  0.0676 -0.1300  0.2207
 1237W        W 3437   1.790   5.150   9.306 -0.1312 -0.2732 -0.0651
 1238W        W 3438  12.287   5.769   2.174  0.0020  0.0893 -0.0692
 1239W        W 3439   1.008   4.332  29.449  0.0527  0.0592  0.1333
 1240W        W 3440   0.516   6.284  23.616  0.1347  0.1790  0.0644
 1241W        W 3441   0.823   4.337  10.093  0.0883 -0.3436  0.0695
 1242W        W 3442  25.828   0.248   5.904  0.1538  0.1098 -0.2545
 1243W        W 3443  22.914   4.458  34.527 -0.3552 -0.0828 -0.0327
 1244W        W 3444   5.421   2.693  13.324 -0.2229  0.0680  0.0740
 1245W        W 3445  24.448   5.783  35.010 -0.2106  0.1420 -0.0553
 1246W        W 3446  14.013   4.905   3.167  0.0294 -0.2456  0.2068
 1247W        W 3447  18.776   6.028  12.209 -0.1027 -0.0713  0.0454
 1248W        W 3448   1.813   4.192  21.239 -0.1039  0.1755 -0.2200
 1249W        W 3449  24.984   5.113  24.987 -0.3105 -0.3222 -0.0461
 1250W        W 3450  25.720   5.877  28.728 -0.0699 -0.2895  0.0061
 1251W        W 3451   8.558   0.000   7.980  0.0101  0.0973 -0.2160
 1252W        W 3452   5.327   1.179  33.450  0.3788  0.0556  0.0994
 1253W        W 3453   8.075   4.274  14.733 -0.2635  0.0326 -0.2152
 1254W        W 3454   2.565   1.375  33.665  0.1644  0.1237  0.0504
 1255W        W 3455   7.282   0.873  22.296  0.3347 -0.0028  0.0626
 1256W        W 3456  20.493   0.411  31.155 -0.1714  0.0575 -0.0235
 1257W        W 3457   4.027   5.677  31.433  0.1204  0.0050 -0.0857
 1258W        W 3458   2.754   3.074  28.049 -0.3688  0.0748 -0.1876
 1259W        W 3459   6.897   1.728  30.648  0.0789  0.2135 -0.0473
 1260W        W 3460  20.336   3.412  25.996  0.1669  0.3485  0.2031
 1261W        W 3461  18.562   3.510   4.533 -0.2707  0.2780  0.0879
 1262W        W 3462  17.951   3.966  29.752 -0.1036 -0.1499 -0.2437
 1263W        W 3463  21.170   4.006  26.051  0.1577 -0.0706  0.2609
 1264W        W 3464  19.759   4.836  22.673  0.2426 -0.0141  0.1685
 1265W        W 3465  26.045   3.583   0.673 -0.1718  0.0216 -0.2319
 1266W        W 3466  20.979   3.235   8.432  0.0664 -0.0798 -0.0505
 1267W        W 3467  24.540   0.576   2.948 -0.0462  0.1128  0.3515
 1268W        W 3468   3.429   0.656   9.488  0.1137 -0.0694  0.1033
 1269W        W 3469   3.339   0.422  24.150  0.2971 -0.1432 -0.3286
 1270W        W 3470   5.839   3.025  12.005 -0.1689  0.0814  0.0873
 1271W        W 3471  26.053   4.555  23.775  0.2647 -0.3703  0.1818
 1272W        W 3472  10.126   1.649  22.364 -0.0610  0.1832 -0.3227
 1273W        W 3473  20.411   3.231  24.630 -0.0337  0.1801  0.0464
 1274W        W 3474   1.753   0.621   5.740 -0.0630 -0.1144  0.2137
 1275W        W 3475   2.355   0.973  14.142  0.1468 -0.2274 -0.1072
 1276W        W 3476  19.816   0.716   6.027  0.1266 -0.2542 -0.1171
 1277W        W 3477   7.166   1.058   9.000 -0.0278  0.0952 -0.1289
 1278W        W 3478   7.140   2.328   7.427  0.0332 -0.0001  0.1415
 1279W        W 3479   4.545   4.982  14.568  0.1141 -0.2263  0.1496
 1280W        W 3480  16.333   0.278  14.103  0.1590 -0.4423  0.2737
 1281W        W 3481   5.383   2.823  14.275  0.2368 -0.2509 -0.1370
 1282W        W 3482  14.780   5.307   8.350 -0.4737 -0.0904  0.1336
 1283W        W 3483  10.317   5.790   3.368  0.0488  0.0780 -0.1367
 1284W        W 3484  20.866   5.087  11.437 -0.1032 -0.0734  0.0846
 1285W        W 3485  18.887   1.037  12.225 -0.0517 -0.1001  0.0617
 1286W        W 3486  13.047   1.441  27.779  0.0295 -0.1120 -0.1461
 1287W        W 3487  12.474   1.921  25.402 -0.1455 -0.0357  0.2584
 1288W        W 3488   2.503   4.321  32.849  0.0447  0.3254  0.1601
 1289W        W 3489  17.570   0.461  25.420 -0.2481 -0.1046  0.0358
 1290W        W 3490  16.121   3.116  30.231  0.0128  0.2090 -0.2597
 1291W        W 3491  26.271   3.120  35.516  0.4121 -0.1312  0.2084
 1292W        W 3492   7.289   1.040  35.079 -0.0639 -0.1607 -0.1638
 1293W        W 3493   3.014   4.389  14.824  0.3320 -0.0219 -0.2295
 1294W        W 3494   7.924   4.692  21.529  0.0593  0.2277 -0.0199
 1295W        W 3495  13.486   2.956  23.386  0.0898 -0.2787  0.1975
 1296W        W 3496  19.150   3.738  27.364  0.1582 -0.1446 -0.2011
 1297W        W 3497  10.141   3.035  14.866 -0.0062  0.0062 -0.0350
 1298W        W 3498  19.703   5.014  25.462  0.3056  0.0695  0.0916
 1299W        W 3499   9.384   2.675   6.088  0.3368 -0.2282 -0.2214
 1300W        W 3500  23.078   6.447   6.338 -0.1948 -0.1471  0.0374
 1301W        W 3501  24.349   1.174  25.886  0.0910  0.1746 -0.1633
 1302W        W 3502   1.416   3.120  34.140 -0.2480 -0.0213  0.0810
 1303W        W 3503  25.547   5.129  29.915  0.1483  0.0867  0.1833
 1304W        W 3504   1.816   2.794  29.706  0.2646 -0.1763  0.2587
 1305W        W 3505   9.161   4.335  28.681 -0.1047 -0.0078 -0.1840
 1306W        W 3506  24.125   0.124  10.041  0.1682 -0.3688 -0.0506
 1307W        W 3507  19.602   5.463  25.858  0.0796  0.0594 -0.0731
 1308W        W 3508   0.732   6.376   8.715  0.1222 -0.0173  0.1101
 1309W        W 3509   9.888   2.308   3.450 -0.0933  0.4809  0.1768
 1310W        W 3510  22.838   2.734   2.104 -0.1587  0.1061  0.1035
 1311W        W 3511  11.989   0.921   1.236 -0.1558  0.1544  0.0249
 1312W        W 3512   4.249   3.081  10.178  0.1051 -0.0101  0.3328
 1313W        W 3513   9.506   4.961   7.475 -0.0377  0.0908 -0.1186
 1314W        W 3514  17.152   0.275  24.919  0.2012 -0.1252 -0.2050
 1315W        W 3515  12.804   5.727   6.169  0.2911 -0.3662  0.2331
 1316W        W 3516  25.242   0.757  31.189  0.4030  0.1583  0.3813
 1317W        W 3517  14.260   1.386   4.518 -0.2591 -0.2726 -0.3770
 1318W        W 3518  21.129   2.431   8.022 -0.0438 -0.0898 -0.0568
 1319W        W 3519  21.529   1.921  32.325 -0.0560  0.1739  0.0420
 1320W        W 3520  23.604   0.157   1.773  0.0660  0.1034 -0.1610
 1321W        W 3521  15.960   5.361  20.384  0.0539  0.1492 -0.0262
 1322W        W 3522  11.535   3.576  34.980 -0.0073 -0.1092  0.3272
 1323W        W 3523  24.876   0.600  33.374 -0.0147  0.1879  0.2016
 1324W        W 3524   7.788   0.172  10.225 -0.1206  0.1525 -0.0478
 1325W        W 3525  10.605   6.020   4.213  0.2658 -0.0372 -0.2180
 1326W        W 3526   3.054   2.804  29.542 -0.1156  0.0650  0.1851
 1327W        W 3527  13.500   5.669  24.365 -0.0645 -0.1211 -0.1653
 1328W        W 3528  24.701   1.837  30.507 -0.1045  0.2073 -0.1318
 1329W        W 3529  24.887   1.061  12.085  0.0777 -0.1137  0.3666
 1330W        W 3530   3.988   5.635  10.457 -0.3042 -0.0271 -0.0194
 1331W        W 3531  22.600   5.002  11.518 -0.2436  0.4063  0.1833
 1332W        W 3532  23.727   3.741  25.600 -0.2374  0.1638 -0.2341
 1333W        W 3533  23.701   2.725  10.074 -0.1613 -0.0671  0.1233
 1334W        W 3534  24.120   4.539  10.852 -0.2498 -0.1264 -0.0929
 1335W        W 3535   2.319   0.049  10.201 -0.1294 -0.2618 -0.2664
 1336W        W 3536  23.210   0.111  27.533  0.1670  0.1484 -0.1452
 1337W        W 3537  21.310   3.323  15.361  0.1630  0.0360 -0.1805
 1338W        W 3538   7.268   4.402  10.235  0.0422  0.1192 -0.3125
 1339W        W 3539  13.907   2.363  33.523  0.4091 -0.1015 -0.0887
 1340W        W 3540  15.460   2.825   0.057 -0.2812  0.0882 -0.3087
 1341W        W 3541   9.951   3.187  35.648  0.2983  0.1271 -0.1663
 1342W        W 3542   3.093   4.593  25.422 -0.0023  0.1759 -0.2353
 1343W        W 3543  22.397   1.822  12.779  0.1404  0.1422  0.2270
 1344W        W 3544  14.534   4.494  26.698  0.0525 -0.1779 -0.0087
 1345W        W 3545  20.199   5.069  21.906  0.1376 -0.0367  0.0030
 1346W        W 3546   2.775   0.207  10.311 -0.2798 -0.0197 -0.2161
 1347W        W 3547  23.335   2.961  10.404 -0.1120 -0.0835  0.3113
 1348W        W 3548  13.341   5.226  13.178 -0.1386  0.2541  0.0784
 1349W        W 3549   8.224   2.295  23.768  0.0744  0.1689  0.0686
 1350W        W 3550   5.869   1.644  12.594 -0.0209 -0.0639  0.1664
 1351W        W 3551   2.728   3.009  26.022 -0.0668  0.4200  0.3085
 1352W        W 3552  26.037   2.905  14.902  0.0364 -0.0561 -0.0510
 1353W        W 3553  15.580   1.824   4.973  0.2144 -0.1366 -0.0514
 1354W        W 3554   4.982   2.896  21.588  0.2515  0.0840  0.0871
 1355W        W 3555   4.847   6.554   2.031  0.2819 -0.0679 -0.1493
 1356W        W 3556  20.067   2.651  23.365 -0.0585  0.1923  0.0216
 1357W        W 3557  11.947   6.578  12.290 -0.1067  0.0584 -0.0168
 1358W        W 3558   1.505   4.308  31.738  0.1189  0.0591 -0.1665
 1359W        W 3559   5.180   2.971  33.525  0.0071  0.0577  0.1067
 1360W        W 3560  21.410   1.216  26.810 -0.0980 -0.0593  0.3423
 1361W        W 3561  19.552   0.765   1.917 -0.0158  0.3099 -0.1412
 1362W        W 3562  11.855   5.150  25.893  0.1116 -0.2442  0.0877
 1363W        W 3563  25.927   4.905   5.496 -0.2992 -0.0697 -0.0340
 1364W        W 3564  10.061   6.303   0.278  0.1386 -0.0783  0.0479
 1365W        W 3565  24.977   1.809   8.132 -0.1299  0.0001 -0.2187
 1366W        W 3566  15.823   6.289  24.323 -0.0298  0.3574 -0.1025
 1367W        W 3567   9.230   4.600  10.766 -0.0144  0.1145 -0.1572
 1368W        W 3568  23.825   2.635   4.761  0.0996 -0.2915 -0.1236
 1369W        W 3569  10.347   0.215  20.359 -0.1545 -0.2523  0.0151
 1370W        W 3570  21.000   1.403   3.663  0.2280  0.0169  0.1143
 1371W        W 3571  14.545   3.405   2.015 -0.4047  0.0303 -0.4458
 1372W        W 3572  12.010   3.363  27.953 -0.0204  0.2384 -0.2602
 1373W        W 3573  22.038   0.693   3.709  0.1866 -0.1996  0.0861
 1374W        W 3574  16.882   2.925  21.390 -0.0636 -0.1514 -0.1510
 1375W        W 3575   2.737   4.808   0.842 -0.0402 -0.0958 -0.2792
 1376W        W 3576  21.008   3.575  14.459 -0.1753  0.2378 -0.2325
 1377W        W 3577  18.759   5.454  35.209  0.0023 -0.1652 -0.2867
 1378W        W 3578  11.241   4.484  28.204  0.2424  0.0300  0.1896
 1379W        W 3579  16.452   0.895   9.407 -0.1108  0.1449  0.2343
 1380W        W 3580   2.388   1.879  12.849  0.1053 -0.0838 -0.2569
 1381W        W 3581   4.495   5.239  21.634 -0.0966  0.1855  0.1197
 1382W        W 3582   3.599   0.795  21.214  0.0280 -0.1092 -0.0109
 1383W        W 3583  23.624   1.303  21.862  0.2829 -0.0113  0.0239
 1384W        W 3584   1.237   2.898  31.420  0.4281 -0.0854 -0.0842
 1385W        W 3585   7.549   3.825  34.459 -0.1227 -0.0614 -0.0647
 1386W        W 3586   1.220   2.868  27.049  0.0311  0.0702  0.2034
 1387W        W 3587  25.664   6.006  30.159 -0.0092 -0.4648  0.0978
 1388W        W 3588   1.143   4.817  11.310  0.2705  0.0238  0.1159
 1389W        W 3589  18.223   6.071   1.245  0.1083  0.1301  0.2953
 1390W        W 3590  12.555   2.712   3.826  0.0144  0.2508 -0.0669
 1391W        W 3591   0.866   4.784  30.550 -0.0852 -0.1574 -0.0489
 1392W        W 3592  19.105   1.640  14.185  0.1292  0.0874  0.0964
 1393W        W 3593   9.290   5.224  13.733 -0.1356  0.0446  0.0355
 1394W        W 3594   0.300   0.724  34.230 -0.1332  0.2757 -0.0577
 1395W        W 3595  10.343   0.704  21.656 -0.1662  0.1197 -0.4282
 1396W        W 3596   4.779   3.075  15.785  0.1640  0.2453 -0.1232
 1397W        W 3597  23.096   3.142   9.472 -0.0151 -0.2959 -0.0772
 1398W        W 3598  10.051   6.277   3.811 -0.1474  0.3042 -0.1532
 1399W        W 3599  24.149   5.869  21.466 -0.0684 -0.1818 -0.1956
 1400W        W 3600  23.159   2.391  29.590 -0.0321  0.1329 -0.0557
 1401W        W 3601  17.247   1.036  34.981 -0.0597  0.3112  0.1449
 1402W        W 3602  23.925   1.973  21.113  0.0338  0.2542 -0.1175
 1403W        W 3603   4.646   4.800  29.154 -0.1276  0.3496 -0.0072
 1404W        W 3604  13.640   6.358  28.282 -0.0522  0.0291 -0.0410
 1405W        W 3605  17.590   3.434  25.664 -0.1182 -0.2046  0.0615
 1406W        W 3606  10.247   3.254   8.405 -0.2126  0.1247  0.3632
 1407W        W 3607  24.617   3.028  12.072  0.0351  0.1992 -0.1901
 1408W        W 3608   2.767   1.339   2.017  0.0412  0.3060 -0.0065
 1409W        W 3609   4.561   0.664  22.235 -0.1223  0.0343  0.2694
 1410W        W 3610  17.749   1.721   2.930  0.3678 -0.1571  0.0831
 1411W        W 3611   6.185   3.837  12.370  0.1701 -0.0122 -0.3092
 1412W        W 3612   0.524   3.620  12.063  0.0995  0.0667 -0.2403
 1413W        W 3613  17.559   4.320   2.191  0.2114 -0.0275  0.0165
 1414W        W 3614  15.607   1.951   0.360  0.1432 -0.0900  0.1301
 1415W        W 3615  15.966   0.926  32.081  0.0256  0.1372 -0.4102
 1416W        W 3616   1.926   4.622  27.528  0.0529 -0.1333  0.2722
 1417W        W 3617   3.917   3.261  31.120  0.0411 -0.0082 -0.4186
 1418W        W 3618   1.705   3.810   7.537  0.1427 -0.2570  0.0260
 1419W        W 3619  19.300   4.446   3.237  0.1154 -0.1810  0.1642
 1420W        W 3620   6.926   6.112  30.304 -0.1211 -0.0302  0.0433
 1421W        W 3621  12.845   3.298  11.673 -0.0622 -0.1668  0.2765
 1422W        W 3622  11.604   3.409   7.510  0.2923  0.1998  0.1650
 1423W        W 3623   8.748   6.410   1.946  0.0058 -0.2946  0.0518
 1424W        W 3624   0.275   4.765   4.179 -0.0477 -0.2133 -0.0372
 1425W        W 3625  13.897   5.456  27.834 -0.1110  0.5679  0.1876
 1426W        W 3626   6.603   3.308   8.665  0.0709 -0.1133  0.1510
 1427W        W 3627  12.650   5.766  25.148 -0.2476 -0.2208 -0.1782
 1428W        W 3628   4.019   6.067  33.597 -0.2571 -0.2516  0.1032
 1429W        W 3629   6.638   0.444  23.840  0.1208 -0.0187 -0.0506
 1430W        W 3630   0.257   4.982  12.600  0.1825  0.1724 -0.0177
 1431W        W 3631  14.877   0.335  28.750 -0.1399 -0.0265  0.0222
 1432W        W 3632   2.565   0.644  22.842  0.0185  0.0624  0.1989
 1433W        W 3633  26.019   1.117   2.651  0.1053  0.3718 -0.1293
 1434W        W 3634   6.246   3.943  22.936  0.1942  0.1073 -0.1620
 1435W        W 3635   0.530   1.065   0.986  0.0744  0.1298  0.2470
 1436W        W 3636  10.783   1.014  25.873 -0.3525 -0.1917 -0.0768
 1437W        W 3637  14.778   4.165   8.758 -0.0050 -0.2586  0.5162
 1438W        W 3638  16.271   5.356  35.095  0.1708  0.1075 -0.2079
 1439W        W 3639   4.403   1.439  12.025 -0.1993 -0.1554  0.1376
 1440W        W 3640   0.114   6.420  26.270 -0.1758  0.1421  0.3228
 1441W        W 3641  20.721   6.178   1.778 -0.1115  0.1131  0.1984
 1442W        W 3642  25.642   4.976  26.402  0.3650  0.2554 -0.2577
 1443W        W 3643  16.287   0.411  11.299  0.0190  0.0506  0.0734
 1444W        W 3644   9.605   3.873  27.923 -0.3132  0.1594  0.1308
 1445W        W 3645  24.326   4.022  30.935 -0.1446  0.0891  0.0772
 1446W        W 3646   5.506   6.138  22.595 -0.0417 -0.2573 -0.2764
 1447W        W 3647  19.035   0.982   2.363 -0.1244 -0.3210 -0.1729
 1448W        W 3648   8.375   1.600  31.354  0.1051  0.1949  0.0986
 1449W        W 3649   7.342   0.747  13.016  0.1264 -0.1282  0.1165
 1450W        W 3650   5.630   5.552   8.932 -0.1954 -0.2263  0.1087
 1451W        W 3651  24.901   1.474  26.659 -0.4083 -0.0581 -0.2084
 1452W        W 3652   4.006   5.773  26.743 -0.3222 -0.2647 -0.0428
 1453W        W 3653  21.289   0.827  29.991 -0.1742  0.0802 -0.3663
 1454W        W 3654   5.931   4.669   3.571 -0.1881 -0.0914 -0.2798
 1455W        W 3655   9.681   6.147  35.475  0.0259  0.2497  0.4259
 1456W        W 3656   3.777   4.296  10.199  0.1528 -0.1952 -0.3787
 1457W        W 3657   4.912   0.180  30.122 -0.1927 -0.4267  0.1999
 1458W        W 3658  12.831   5.562  27.677  0.3285  0.2174 -0.1674
 1459W        W 3659  13.481   0.136   0.888  0.0858  0.0250  0.3906
 1460W        W 3660   0.421   0.552  33.416  0.1740  0.1765 -0.2822
 1461W        W 3661  22.668   6.530   3.658  0.1065  0.1295  0.0693
 1462W        W 3662  19.681   2.773  34.991 -0.2118 -0.0274  0.1503
 1463W        W 3663  14.183   1.657   9.683  0.1074 -0.2718 -0.1817
 1464W        W 3664   6.328   0.387  29.439  0.0107  0.2175  0.1398
 1465W        W 3665   1.752   1.591   6.721  0.1073 -0.0123 -0.0301
 1466W        W 3666  16.131   1.700  13.815 -0.2058  0.2303  0.2078
 1467W        W 3667  18.613   2.173  22.264  0.0652  0.2080  0.0265
 1468W        W 3668  10.907   5.254   3.631 -0.1305  0.0074 -0.0948
 1469W        W 3669  24.136   1.821  25.559  0.1939 -0.1663  0.0490
 1470W        W 3670  12.894   3.290   4.790  0.2124  0.0219  0.1403
 1471W        W 3671   6.416   3.883  33.537 -0.2298 -0.2473 -0.0321
 1472W        W 3672  11.710   2.169  30.805 -0.3248  0.0366  0.1634
 1473W        W 3673  22.974   3.235  27.974  0.3642  0.0368 -0.2944
 1474W        W 3674  17.302   0.191  10.528  0.1080  0.1151 -0.1723
 1475W        W 3675  20.666   1.938  33.301  0.0345  0.2103  0.0888
 1476W        W 3676   3.750   0.343  35.635 -0.0938  0.2077  0.1218
 1477W        W 3677  26.173   4.599  28.288  0.0779  0.0219  0.0209
 1478W        W 3678  11.123   2.685  30.082 -0.3624 -0.1319  0.1863
 1479W        W 3679  16.729   1.171   3.797 -0.0936 -0.1201 -0.0117
 1480W        W 3680  25.973   0.619  11.913 -0.3621 -0.1861  0.0836
 1481W        W 3681   9.957   2.131  25.461 -0.2048  0.2343 -0.1796
 1482W        W 3682   4.058   0.243  13.378 -0.2138  0.1749 -0.1653
 1483W        W 3683  17.185   3.002   7.726  0.0164 -0.4014 -0.2426
 1484W        W 3684  20.807   5.967   2.423 -0.2414  0.0538  0.0933
 1485W        W 3685   9.800   3.488   3.277  0.0698 -0.0774  0.2271
 1486W        W 3686   8.039   4.377  12.681  0.4486 -0.0529  0.0322
 1487W        W 3687  14.048   0.609   9.117 -0.2059 -0.0086  0.0675
 1488W        W 3688  13.447   1.345   0.674  0.0573  0.2271  0.2513
 1489W        W 3689  16.504   4.380   9.515  0.1051  0.1182 -0.1422
 1490W        W 3690  23.806   5.442   3.770  0.0820  0.0143  0.0606
 1491W        W 3691  22.217   5.363  29.458  0.2291  0.2998 -0.0187
 1492W        W 3692   4.588   0.828  15.196 -0.0945 -0.2703 -0.0743
 1493W        W 3693  21.367   5.195   8.682  0.3250 -0.1443 -0.0342
 1494W        W 3694  12.458   1.331  24.640  0.3359 -0.0096 -0.0425
 1495W        W 3695  12.237   0.695  12.097  0.0424 -0.0781  0.0952
 1496W        W 3696  25.923   2.288  14.147  0.0153 -0.0231  0.0520
 1497W        W 3697  11.237   3.400   6.474 -0.0451 -0.1898  0.1089
 1498W        W 3698  25.089   1.117   9.890  0.0440 -0.0247  0.0091
 1499W        W 3699  15.997   3.614  35.500  0.0733 -0.0583  0.2913
 1500W        W 3700  12.938   5.636  23.505 -0.0398  0.0679 -0.1856
 1501W        W 3701  20.877   2.946  31.082  0.1428  0.3126  0.0302
 1502W        W 3702  12.302   4.412  29.130 -0.2641  0.0390  0.5964
 1503W        W 3703   9.197   6.280   8.644 -0.2078  0.2478 -0.1179
 1504W        W 3704   3.645   4.121   1.105  0.1843 -0.0983 -0.4377
 1505W        W 3705  22.850   0.062   7.456 -0.0171  0.0068  0.0507
 1506W        W 3706   8.144   0.002   7.579  0.2273  0.1119  0.1013
 1507W        W 3707  25.181   1.876  12.438  0.3240  0.3438  0.2977
 1508W        W 3708  11.589   6.004  31.630  0.0134 -0.1928  0.0847
 1509W        W 3709  26.004   1.329  25.816  0.1365  0.3196 -0.1722
 1510W        W 3710  12.446   5.905  12.177  0.0112  0.2352 -0.1467
 1511W        W 3711   1.473   2.756  26.465  0.1592 -0.2684 -0.4470
 1512W        W 3712  21.301   1.279   2.045 -0.1535  0.3180  0.1157
 1513W        W 3713   7.332   1.286   2.860  0.1026 -0.1592 -0.1297
 1514W        W 3714   1.653   6.166  35.107 -0.2878  0.0340  0.1331
 1515W        W 3715  10.035   2.303  24.477  0.3635  0.0805  0.3186
 1516W        W 3716   5.948   1.446  11.624 -0.0562 -0.1312 -0.3270
 1517W        W 3717   4.649   0.974  12.251  0.3641 -0.1419 -0.1066
 1518W        W 3718  11.732   4.416   4.980  0.1873  0.2234 -0.0545
 1519W        W 3719  14.215   4.266  35.731 -0.2226 -0.1788 -0.2062
 1520W        W 3720   6.983   2.339  32.068 -0.1770 -0.0288  0.1916
 1521W        W 3721  10.498   2.407  11.351  0.3625  0.1132 -0.0478
 1522W        W 3722   0.410   1.001   7.507  0.0884  0.0147 -0.2872
 1523W        W 3723  23.778   5.794  32.725  0.0927 -0.4077  0.0700
 1524W        W 3724  19.892   1.057  31.147  0.3000 -0.0746  0.2966
 1525W        W 3725   2.687   3.570  35.488  0.0657  0.0532 -0.0166
 1526W        W 3726  20.327   2.690  20.662  0.0984  0.1592  0.2632
 1527W        W 3727  17.285   3.797   0.382 -0.0346  0.0530  0.0469
 1528W        W 3728   5.524   1.271  35.485 -0.2435 -0.2850  0.3552
 1529W        W 3729   8.981   4.593   2.101  0.2586 -0.4047 -0.2803
 1530W        W 3730   9.213   5.155  33.024  0.1356 -0.0162  0.0753
 1531W        W 3731  15.508   6.340  12.649  0.0142 -0.1346 -0.2220
 1532W        W 3732   2.104   3.136  12.848  0.0028 -0.0468  0.0084
 1533W        W 3733  13.122   5.211   4.211 -0.2026  0.1557 -0.0761
 1534W        W 3734  21.180   4.473  27.047 -0.0469 -0.1510  0.4009
 1535W        W 3735  24.055   3.881  13.731  0.2764 -0.3119  0.2897
 1536W        W 3736   8.575   4.925  33.666  0.0752  0.3014  0.0688
 1537W        W 3737  16.114   5.048  33.698  0.0850 -0.0488  0.0706
 1538W        W 3738   5.330   0.968   9.118 -0.0209 -0.2838 -0.2069
 1539W        W 3739   3.017   0.695   6.106  0.1569  0.0775  0.0433
 1540W        W 3740   1.915   0.389   2.336 -0.2640 -0.1005 -0.1171
 1541W        W 3741  23.181   3.866   2.946 -0.4002 -0.0153 -0.0566
 1542W        W 3742   0.888   2.470   4.358 -0.0364  0.0926  0.0633
 1543W        W 3743  18.533   6.573   8.521 -0.2044  0.1570 -0.3271
 1544W        W 3744  18.743   1.392  25.661  0.0052  0.3818  0.0175
 1545W        W 3745  14.869   4.645   0.143  0.0513 -0.0305 -0.1826
 1546W        W 3746   6.256   4.695   3.106  0.0178  0.0981 -0.0384
 1547W        W 3747  20.601   2.333   2.836 -0.1614  0.0397  0.0564
 1548W        W 3748  22.989   6.568  21.573  0.2335  0.2560 -0.3240
 1549W        W 3749  20.725   4.216  11.265 -0.2100  0.1688  0.0675
 1550W        W 3750   3.906   5.745  34.993 -0.1959 -0.0295 -0.2613
 1551W        W 3751  18.288   2.485  14.041  0.2587  0.1561 -0.5469
 1552W        W 3752  20.260   5.832  35.976  0.1236  0.1800 -0.2224
 1553W        W 3753  16.076   4.911   4.625  0.3924  0.0751  0.3288
 1554W        W 3754  10.255   2.464  29.048  0.0575 -0.3014  0.0413
 1555W        W 3755  11.561   5.061   4.536  0.1247  0.2342  0.0743
 1556W        W 3756  10.220   2.995  25.082  0.0451  0.0251 -0.0709
 1557W        W 3757   3.007   0.209   3.696  0.2855 -0.1001 -0.0172
 1558W        W 3758   9.460   1.372  26.434  0.1418  0.0348 -0.0967
 1559W        W 3759  23.165   1.890  11.197  0.1289  0.0839 -0.1358
 1560W        W 3760   7.937   0.209  24.235  0.0612 -0.0015  0.3908
 1561W        W 3761  15.229   5.927   2.652  0.2720 -0.1957  0.2507
 1562W        W 3762   4.670   0.460   4.315 -0.0017 -0.0359 -0.0684
 1563W        W 3763   1.594   0.967   1.492  0.2387 -0.0165 -0.2717
 1564W        W 3764   7.838   3.851  28.395  0.1793 -0.0136 -0.0415
 1565W        W 3765  21.159   3.034  24.484  0.0439 -0.0884 -0.3725
 1566W        W 3766   9.838   0.068  21.618  0.0131  0.0909 -0.1162
 1567W        W 3767  22.733   3.841   6.770 -0.2755  0.1133  0.2306
 1568W        W 3768  26.065   3.302  30.903 -0.1722  0.0525  0.3046
 1569W        W 3769  11.533   1.692   7.599 -0.1126  0.2089  0.0282
 1570W        W 3770  18.605   6.344   5.947 -0.3913 -0.3093  0.4095
 1571W        W 3771  24.520   3.204  13.499  0.0214  0.1667 -0.2025
 1572W        W 3772   0.650   4.382   9.251 -0.0281 -0.0197 -0.3533
 1573W        W 3773  16.235   5.413  23.128  0.1434 -0.0789  0.0279
 1574W        W 3774   2.584   5.180  11.580  0.0244  0.1584 -0.2785
 1575W        W 3775   2.001   5.687   0.017  0.1155  0.3433 -0.2490
 1576W        W 3776  25.025   1.619   0.154 -0.0621 -0.2567 -0.4191
 1577W        W 3777  23.825   3.391  35.509  0.0549  0.0430  0.2642
 1578W        W 3778  24.472   2.538  35.599  0.0943  0.0796  0.0501
 1579W        W 3779  20.709   1.889  23.000 -0.4667 -0.0793 -0.0807
 1580W        W 3780  22.663   5.120   0.007  0.0301 -0.1058 -0.0028
 1581W        W 3781  13.863   2.664  14.180 -0.3930 -0.1505 -0.1149
 1582W        W 3782  20.240   1.792   2.132 -0.1793  0.1253 -0.2458
 1583W        W 3783  12.957   1.326   2.344 -0.2316 -0.2650 -0.0400
 1584W        W 3784   1.851   2.922  26.738  0.3284 -0.2143  0.3149
 1585W        W 3785  26.067   0.358  25.283  0.0304  0.1921  0.0607
 1586W        W 3786  13.790   3.121  13.116 -0.0289 -0.2286  0.0114
 1587W        W 3787  13.489   0.961  34.116 -0.0142 -0.4236 -0.0273
 1588W        W 3788   1.338   5.447  35.724 -0.0027  0.1743 -0.3869
 1589W        W 3789  12.366   6.568  14.727  0.0623  0.0625 -0.1317
 1590W        W 3790  10.797   3.073   2.978 -0.2231 -0.1371 -0.0176
 1591W        W 3791  12.175   3.358   9.790 -0.2985  0.2106 -0.1134
 1592W        W 3792   9.915   4.774  22.517 -0.1578  0.2622  0.2622
 1593W        W 3793   6.703   2.195  32.569  0.0480 -0.2887 -0.2554
 1594W        W 3794   3.610   3.907  27.658 -0.2469  0.2387  0.0673
 1595W        W 3795   2.335   2.117  28.238  0.2222 -0.0500  0.2524
 1596W        W 3796  23.694   3.197  29.412 -0.2357 -0.1567  0.1496
 1597W        W 3797  14.538   6.368  27.061  0.1795  0.0134 -0.2350
 1598W        W 3798   6.097   5.828  25.647 -0.3174  0.0168  0.3196
 1599W        W 3799  18.362   5.415   5.842 -0.0338 -0.1192  0.0704
 1600W        W 3800  20.777   0.048   6.932  0.1672  0.0335  0.2356
 1601W        W 3801   9.838   0.772   5.692  0.1019 -0.1491  0.0288
 1602W        W 3802  10.244   1.861  13.253  0.1042  0.2582  0.0061
 1603W        W 3803  24.571   5.481   6.567  0.2289  0.2189 -0.0584
 1604W        W 3804   5.674   2.317  30.805 -0.1937 -0.0721 -0.1361
 1605W        W 3805  24.996   1.182  35.965 -0.0760 -0.1536  0.0476
 1606W        W 3806   2.693   1.581   6.025  0.0992  0.1533  0.0592
 1607W        W 3807  24.519   4.016   2.820 -0.2149 -0.0386 -0.1662
 1608W        W 3808  15.836   0.345  10.180 -0.0689  0.2199  0.0059
 1609W        W 3809   4.985   5.725  28.415 -0.2334  0.1938  0.0296
 1610W        W 3810  11.469   4.009   1.438 -0.0686  0.0312 -0.2174
 1611W        W 3811   4.225   2.674  23.024 -0.0403 -0.0599 -0.2056
 1612W        W 3812   4.648   2.963   6.724 -0.1327 -0.3795 -0.0571
 1613W        W 3813  12.690   3.351   6.896 -0.4492 -0.1205  0.2994
 1614W        W 3814  20.207   5.993  22.858 -0.0463 -0.0230  0.1750
 1615W        W 3815  22.819   1.679  28.152  0.2346 -0.0689  0.1724
 1616W        W 3816  17.197   2.254  29.508  0.3470  0.4883  0.0674
 1617W        W 3817  11.768   2.011   6.760  0.0373  0.2843 -0.2053
 1618W        W 3818   5.922   6.455  15.779  0.2860  0.1451 -0.2512
 1619W        W 3819   4.783   3.072   9.314 -0.0346 -0.1596  0.1378
 1620W        W 3820   8.342   5.943  21.423 -0.0257  0.2164 -0.3565
 1621W        W 3821   7.634   3.702  33.871 -0.0232  0.0430 -0.0198
 1622W        W 3822   4.381   6.211  23.230 -0.3168 -0.3354  0.5323
 1623W        W 3823   0.803   2.645   4.822  0.0393  0.1100 -0.0067
 1624W        W 3824  24.600   4.098   4.536 -0.2618 -0.1438  0.1041
 1625W        W 3825   6.983   6.035   0.287  0.2829 -0.0102 -0.0215
 1626W        W 3826  25.168   0.927  29.130 -0.2086 -0.1044  0.0922
 1627W        W 3827  20.190   5.442   9.288  0.0955 -0.0205 -0.0917
 1628W        W 3828   6.489   4.637   2.565  0.2026  0.0479 -0.3643
 1629W        W 3829   0.844   4.205   6.085 -0.1132  0.4260 -0.2083
 1630W        W 3830  25.224   3.818   6.280 -0.0919 -0.0783  0.1542
 1631W        W 3831   5.577   2.842  31.036 -0.0873  0.1635 -0.4437
 1632W        W 3832  16.021   3.526   9.364  0.1547  0.0137 -0.1542
 1633W        W 3833   6.704   0.241  22.548 -0.2665 -0.0623 -0.0160
 1634W        W 3834  16.229   5.451  22.592 -0.0861  0.1557 -0.0703
 1635W        W 3835   3.560   3.841  33.206 -0.0743 -0.0089  0.0082
 1636W        W 3836   5.623   1.413  34.704  0.0147 -0.0390  0.1531
 1637W        W 3837  15.046   4.569  22.798 -0.1827  0.0419  0.5452
 1638W        W 3838   3.861   5.570  30.831 -0.1718  0.1386 -0.0483
 1639W        W 3839  14.807   1.521  13.138 -0.0429 -0.1162 -0.4599
 1640W        W 3840  25.175   3.441  27.085 -0.0113 -0.0168  0.0330
 1641W        W 3841  17.798   1.199  21.684  0.1003  0.1306  0.0783
 1642W        W 3842  15.256   5.091  32.593  0.0658  0.0427  0.1116
 1643W        W 3843   4.713   1.796  12.768 -0.1743  0.3244  0.0657
 1644W        W 3844  22.071   3.273  14.906  0.2296  0.1091 -0.0633
 1645W        W 3845   4.726   1.401  25.537  0.0028 -0.0229  0.0729
 1646W        W 3846  14.764   3.584  33.980  0.1519  0.0017 -0.1055
 1647W        W 3847  18.184   1.654  24.342 -0.4799  0.2159 -0.0173
 1648W        W 3848  25.643   3.116   1.267 -0.3045 -0.3032 -0.0364
 1649W        W 3849  13.598   5.530  11.233  0.0703 -0.0250 -0.4607
 1650W        W 3850   1.952   6.074  26.407 -0.0104  0.0908  0.1054
 1651W        W 3851  21.141   1.671  23.462 -0.1299  0.1715 -0.0846
 1652W        W 3852  25.201   3.285  14.393 -0.1607 -0.0139 -0.0855
 1653W        W 3853  22.110   5.436  32.502 -0.5670 -0.3045  0.1420
 1654W        W 3854  25.148   4.436   2.251 -0.0668  0.1071 -0.4313
 1655W        W 3855  23.637   3.469   8.962 -0.0860  0.1709 -0.1105
 1656W        W 3856  21.741   5.669  11.746  0.0898  0.0330  0.1206
 1657W        W 3857  20.121   2.563   4.701 -0.1876 -0.0146 -0.2879
 1658W        W 3858   8.189   2.640  25.487 -0.0131 -0.1371 -0.0718
 1659W        W 3859  13.920   2.967   2.438 -0.0600  0.0310 -0.0280
 1660W        W 3860   7.389   3.710  20.449 -0.0676 -0.3434  0.0684
 1661W        W 3861  16.405   4.146  12.807 -0.0524  0.1884  0.1098
 1662W        W 3862   8.046   4.701  21.029  0.2851 -0.2473 -0.4153
 1663W        W 3863   0.598   4.234  32.774 -0.0504 -0.0526 -0.0701
 1664W        W 3864  16.939   0.508   2.833 -0.3123 -0.4318  0.3509
 1665W        W 3865   6.217   4.794   7.954 -0.0444  0.0856  0.1122
 1666W        W 3866   6.336   4.371   3.528 -0.1911  0.0854 -0.3646
 1667W        W 3867  24.391   1.951  21.062 -0.3374 -0.3626 -0.0533
 1668W        W 3868  21.528   0.737  34.757  0.1260 -0.1373  0.0228
 1669W        W 3869  22.323   1.681   2.166 -0.2440  0.0623  0.0771
 1670W        W 3870   8.505   1.143   4.346 -0.2934  0.0445 -0.2188
 1671W        W 3871   7.626   5.229   4.506  0.1133  0.0681  0.0037
 1672W        W 3872  10.383   3.678   6.844 -0.0179  0.0576  0.0237
 1673W        W 3873  24.075   6.330   6.333  0.1217  0.4792 -0.0192
 1674W        W 3874  26.179   4.553  29.564  0.0536  0.1495  0.0244
 1675W        W 3875   8.469   5.219  34.039  0.0572 -0.2665 -0.1703
 1676W        W 3876  21.386   2.775  14.543  0.1312  0.2681  0.2713
 1677W        W 3877   9.915   1.523  28.593  0.0273 -0.0769 -0.0358
 1678W        W 3878  11.558   0.691  33.214 -0.1245  0.0862 -0.0142
 1679W        W 3879  13.337   1.800   1.952 -0.2192 -0.0641  0.0067
 1680W        W 3880  24.326   0.130   8.488  0.0537 -0.0050 -0.1134
 1681W        W 3881  25.313   2.405  14.132  0.0883  0.2109  0.0245
 1682W        W 3882   5.539   6.056   2.066  0.1459  0.0622  0.0603
 1683W        W 3883   6.145   1.326  24.609  0.0712 -0.1109  0.2176
 1684W        W 3884   5.597   0.816  23.316  0.0159  0.1057  0.1174
 1685W        W 3885   4.633   5.523  27.275  0.0152  0.0379  0.2269
 1686W        W 3886   1.647   3.655  30.531  0.0578  0.0127 -0.2140
 1687W        W 3887  11.650   3.847  26.956 -0.2369 -0.2165 -0.1071
 1688W        W 3888  13.013   3.512  31.157  0.0683  0.0049 -0.3782
 1689W        W 3889   3.064   3.196  31.431  0.0495  0.0212 -0.2418
 1690W        W 3890  16.990   0.091   5.630  0.0243  0.1362  0.3258
 1691W        W 3891   6.675   3.947  14.591 -0.2697 -0.1595  0.0690
 1692W        W 3892   4.935   4.124  34.669  0.1691  0.4213 -0.2062
 1693W        W 3893  19.019   2.486   3.022 -0.2991  0.0500  0.0885
 1694W        W 3894  22.543   5.276  32.606 -0.2653  0.0913 -0.4918
 1695W        W 3895   7.333   5.623  20.984  0.2765  0.3421 -0.0073
 1696W        W 3896  12.124   0.927  32.403 -0.0331 -0.1390 -0.1540
 1697W        W 3897  17.233   4.939  28.259  0.0708  0.0716 -0.1534
 1698W        W 3898  14.695   3.636  24.925  0.2220 -0.1580 -0.1114
 1699W        W 3899   3.204   3.251   1.036 -0.0974 -0.1918 -0.0493
 1700W        W 3900   7.812   0.687  22.756  0.2311 -0.0188 -0.0193
 1701W        W 3901   7.059   5.913  15.075  0.3066 -0.2381  0.0268
 1702W        W 3902  16.330   1.227  31.205 -0.0684 -0.0255  0.0755
 1703W        W 3903  10.572   2.610  31.282 -0.2338  0.1159 -0.0273
 1704W        W 3904  12.378   2.499  30.107 -0.1984  0.1502  0.1741
 1705W        W 3905  14.254   3.983  22.527 -0.1369  0.0129 -0.2845
 1706W        W 3906  24.538   1.792   0.101 -0.1190  0.1096  0.2856
 1707W        W 3907  20.512   1.703   1.710 -0.0643 -0.0196 -0.1002
 1708W        W 3908   6.418   6.226  30.232  0.0798  0.0534  0.1495
 1709W        W 3909  19.745   1.369  12.705 -0.0468 -0.3006 -0.3420
 1710W        W 3910   2.530   5.207  29.586  0.1681 -0.1404  0.3255
 1711W        W 3911  13.170   1.525  24.172  0.3442  0.0141  0.1796
 1712W        W 3912   2.140   0.549  22.190 -0.1298 -0.3829  0.2533
 1713W        W 3913   1.033   5.307   2.443  0.1738 -0.0735  0.3572
 1714W        W 3914  17.258   4.492  21.217  0.1844 -0.2539  0.2141
 1715W        W 3915  19.845   0.456  33.471 -0.1659  0.1639  0.1532
 1716W        W 3916   4.067   6.175   9.451  0.1463  0.0430 -0.1382
 1717W        W 3917   4.571   1.301   6.540 -0.1892 -0.0079 -0.0211
 1718W        W 3918   3.283   2.476   4.525  0.0755 -0.0870 -0.3995
 1719W        W 3919  22.839   5.751   2.378 -0.3115  0.1149 -0.0939
 1720W        W 3920   2.540   5.333   5.830 -0.0348  0.0486 -0.0375
 1721W        W 3921   8.637   1.428  30.947  0.0162  0.1648  0.1346
 1722W        W 3922  20.673   2.478   6.464  0.1529  0.3165 -0.1259
 1723W        W 3923  10.218   1.162  25.066  0.0335  0.0357 -0.0563
 1724W        W 3924  19.811   3.754   6.720 -0.0522 -0.0387 -0.1109
 1725W        W 3925  17.189   2.984   0.134  0.2108 -0.0394 -0.0068
 1726W        W 3926  21.931   2.070   4.992 -0.1843  0.1224  0.1739
 1727W        W 3927  20.990   3.391  27.378  0.4302 -0.1172  0.0319
 1728W        W 3928  17.539   1.937  29.780 -0.2357  0.1781  0.2239
 1729W        W 3929   5.059   1.359  35.210  0.2895  0.0092  0.0335
 1730W        W 3930  19.120   2.095   7.407  0.1073 -0.3953 -0.2254
 1731W        W 3931  10.369   3.656  26.887  0.1685 -0.0892 -0.0179
 1732W        W 3932   5.035   5.905  32.257  0.0670 -0.1964 -0.3371
 1733W        W 3933  11.494   3.833  14.373 -0.0424  0.0377  0.0401
 1734W        W 3934  14.619   0.777  22.387  0.0538  0.0408 -0.0410
 1735W        W 3935  13.422   1.010  22.073 -0.1455 -0.2839  0.0468
 1736W        W 3936   7.373   4.662  13.241  0.0768  0.0784 -0.2006
 1737W        W 3937  16.521   0.172   8.418 -0.0627 -0.2521 -0.1614
 1738W        W 3938   5.430   0.184   5.041  0.0738  0.1937 -0.0434
 1739W        W 3939  16.067   2.745  23.724  0.0056 -0.0799  0.1279
 1740W        W 3940  13.208   1.419   9.928  0.1783 -0.0092  0.1518
 1741W        W 3941  10.331   1.957  12.607 -0.0998  0.1817  0.0341
 1742W        W 3942  16.965   5.611   1.327 -0.1672 -0.1766 -0.1119
 1743W        W 3943   4.866   0.213   0.728 -0.0402 -0.0291 -0.0313
 1744W        W 3944  20.711   2.704  32.696 -0.0121  0.1759 -0.2275
 1745W        W 3945  21.957   1.450  34.547 -0.0581  0.0112  0.2008
 1746W        W 3946  12.948   5.919  11.573 -0.3475 -0.1502 -0.1456
 1747W        W 3947  14.201   3.705  34.639 -0.0450 -0.6320  0.3179
 1748W        W 3948  18.525   6.239  27.360 -0.3129  0.1268 -0.2499
 1749W        W 3949  22.143   5.716  32.043 -0.0840 -0.0008 -0.3849
 1750W        W 3950  12.740   5.361  30.045  0.0887 -0.2332  0.4950
 1751W        W 3951  16.555   4.759  27.640 -0.1149 -0.0257 -0.2582
 1752W        W 3952   1.531   4.762  20.530 -0.0771  0.1405  0.0245
 1753W        W 3953   5.671   1.077  11.772  0.1099  0.3866  0.0700
 1754W        W 3954  16.654   1.069  32.791  0.1966 -0.3018  0.1410
 1755W        W 3955   4.168   5.846  35.641  0.1128 -0.2109  0.0695
 1756W        W 3956   8.281   1.518  11.007  0.1119 -0.1107 -0.1493
 1757W        W 3957   2.444   6.256   1.824  0.1371 -0.1222 -0.1187
 1758W        W 3958   4.859   6.257   4.482 -0.5412  0.1381  0.2469
 1759W        W 3959  17.355   5.211  30.490 -0.1425 -0.1634 -0.2228
 1760W        W 3960  21.129   3.164   3.096 -0.1933  0.1700  0.3635
 1761W        W 3961   9.985   1.929   6.461 -0.2406  0.0520  0.1071
 1762W        W 3962  17.420   2.698   8.046  0.1672  0.3634 -0.3828
 1763W        W 3963   9.460   3.923   7.505 -0.0185 -0.0295 -0.0564
 1764W        W 3964  10.997   5.421  25.176  0.2063 -0.0602 -0.0878
 1765W        W 3965   1.739   2.744  12.708  0.3265 -0.0232  0.1244
 1766W        W 3966  13.157   5.781  10.633  0.0583 -0.0624 -0.2353
 1767W        W 3967  17.013   0.168   9.591 -0.1308 -0.2117  0.1715
 1768W        W 3968   2.697   5.608   9.379  0.0161  0.1168  0.4127
 1769W        W 3969  19.555   3.277  11.539  0.1365  0.0878 -0.0710
 1770W        W 3970   6.717   5.226  33.441  0.2363 -0.0844 -0.2167
 1771W        W 3971  10.426   4.304   0.133  0.1732  0.1539  0.2539
 1772W        W 3972  24.530   4.645  28.791  0.2793 -0.3567  0.0622
 1773W        W 3973   3.449   5.605   3.718 -0.2625 -0.0095 -0.3443
 1774W        W 3974   8.118   0.973  13.282 -0.1170 -0.0525  0.2196
 1775W        W 3975  15.755   3.185  34.588  0.1477  0.1727  0.0513
 1776W        W 3976   2.317   4.198  15.193  0.2807  0.0341  0.0817
 1777W        W 3977   1.101   5.984   8.472 -0.3547  0.0456 -0.2508
 1778W        W 3978  20.168   4.084  34.421  0.1021  0.2021  0.2871
 1779W        W 3979   8.519   3.731  27.700 -0.3115 -0.2416 -0.0514
 1780W        W 3980  12.941   4.767   6.603 -0.4031 -0.2519  0.1722
 1781W        W 3981   7.048   2.310  25.699  0.1290 -0.1949  0.0723
 1782W        W 3982   9.142   4.160   9.556 -0.0000 -0.2403 -0.0738
 1783W        W 3983   6.569   5.546  11.406  0.2544 -0.0495 -0.0233
 1784W        W 3984  20.008   6.201   4.335  0.3514  0.1908  0.0514
 1785W        W 3985  23.408   2.377   9.337  0.0140  0.0933 -0.1221
 1786W        W 3986  19.086   6.258  23.323 -0.1343  0.0072 -0.1082
 1787W        W 3987  21.329   3.748  22.367  0.0232 -0.0406 -0.0216
 1788W        W 3988  19.425   5.397  31.600 -0.2086 -0.0705 -0.4214
 1789W        W 3989   2.090   6.508   5.101  0.0463 -0.1693  0.2013
 1790W        W 3990  17.835   5.423  11.417  0.0757 -0.0275  0.0609
 1791W        W 3991   1.118   0.425  35.158  0.1022  0.0101 -0.2490
 1792W        W 3992   0.315   4.884   0.521 -0.1943  0.3917 -0.0825
 1793W        W 3993  15.530   1.538   8.208  0.1421 -0.0827  0.6687
 1794W        W 3994   1.547   0.252  29.275  0.0852  0.0655 -0.0632
 1795W        W 3995  13.471   2.674  25.956 -0.3214 -0.0989  0.1035
 1796W        W 3996   0.125   3.048   3.518 -0.2887 -0.0432 -0.1929
 1797W        W 3997  21.935   3.717  25.085  0.0084  0.4596 -0.0187
 1798W        W 3998  17.949   5.724  33.183  0.0377 -0.2530 -0.0878
 1799W        W 3999   1.976   5.403   8.820  0.1003 -0.0136  0.2527
 1800W        W 4000   0.239   2.349  27.979  0.0448  0.7235  0.0152
 1801W        W 4001  13.452   4.365  27.761  0.0672 -0.1164 -0.1762
 1802W        W 4002  20.400   3.680   5.951 -0.0345 -0.0878  0.0102
 1803W        W 4003  22.010   3.081  21.394 -0.0015 -0.0014 -0.2192
 1804W        W 4004  17.482   4.276  10.629 -0.1238 -0.3625 -0.0209
 1805W        W 4005  25.126   0.686   1.182  0.0781  0.3683  0.0756
 1806W        W 4006  23.918   5.865  22.603  0.2291 -0.2396  0.2473
 1807W        W 4007   4.257   2.083  12.743 -0.0274  0.0481 -0.2228
 1808W        W 4008   2.969   3.388  23.373 -0.2284  0.0735  0.0807
 1809W        W 4009  11.917   2.479   0.162 -0.1079 -0.0494 -0.0306
 1810W        W 4010  14.122   3.836  10.057  0.2433 -0.0468  0.1304
 1811W        W 4011   3.498   6.552   4.548  0.2699  0.0568  0.1355
 1812W        W 4012  16.020   3.585  32.398 -0.0118 -0.0616 -0.1989
 1813W        W 4013   8.507   2.490  35.729 -0.0182  0.2583 -0.0052
 1814W        W 4014  10.756   6.046  10.626  0.0533 -0.0565  0.0874
 1815W        W 4015  10.749   4.654   8.663  0.2978  0.1121 -0.1813
 1816W        W 4016  17.010   5.552  29.535 -0.0534  0.2030 -0.1885
 1817W        W 4017  18.574   0.916  13.237 -0.0523 -0.1179 -0.1530
 1818W        W 4018   8.995   1.275   0.698  0.1506  0.1107 -0.1504
 1819W        W 4019  13.944   1.608   0.920 -0.1985  0.0342 -0.0148
 1820W        W 4020   3.622   3.327  13.978  0.1952 -0.2707  0.1632
 1821W        W 4021   2.356   4.837  28.546 -0.0067  0.3130 -0.0724
 1822W        W 4022  13.301   0.444  34.073 -0.1694  0.1212 -0.0122
 1823W        W 4023   4.870   0.224   9.483 -0.3006  0.1107  0.1171
 1824W        W 4024   5.763   5.519  29.685 -0.0614 -0.3240  0.0079
 1825W        W 4025   6.811   1.595  13.622  0.0263 -0.0915 -0.0479
 1826W        W 4026  22.076   3.494   6.790  0.0363  0.2399  0.1069
 1827W        W 4027  18.202   3.052  13.966 -0.0260  0.1516 -0.1593
 1828W        W 4028   0.754   5.229   9.998 -0.1920  0.4045 -0.1329
 1829W        W 4029   1.884   4.553  25.996 -0.1308 -0.3264  0.0096
 1830W        W 4030   1.589   4.744  27.139 -0.0411 -0.4149  0.2463
 1831W        W 4031   3.980   6.182  12.423  0.0990 -0.3250  0.2238
 1832W        W 4032   4.332   4.265   1.692 -0.1922  0.4085  0.1209
 1833W        W 4033  22.560   0.928   3.762  0.0427  0.1231 -0.1472
 1834W        W 4034  11.027   2.711  29.405  0.1148  0.0805 -0.0622
 1835W        W 4035  20.507   1.048  22.270  0.0135 -0.0249  0.1565
 1836W        W 4036   9.311   3.104  14.820 -0.1306 -0.1672  0.0679
 1837W        W 4037  26.389   1.204  26.655 -0.0322 -0.2743  0.1358
 1838W        W 4038   7.898   3.452  10.684  0.2298  0.0049 -0.0640
 1839W        W 4039  18.819   4.682   8.598 -0.2305 -0.0747  0.1513
 1840W        W 4040   0.088   5.320  27.037  0.2147 -0.1758 -0.0801
 1841W        W 4041  12.784   5.254  35.507  0.1308 -0.2639  0.0373
 1842W        W 4042  18.511   4.034  21.200  0.2655  0.0327 -0.0199
 1843W        W 4043  23.475   2.282   0.630 -0.1677  0.1542  0.0979
 1844W        W 4044   5.700   4.272   1.522 -0.2270 -0.2588  0.1770
 1845W        W 4045  16.919   2.284   5.478 -0.0114  0.0016  0.3910
 1846W        W 4046   0.177   1.520  25.603 -0.2312  0.2979 -0.0107
 1847W        W 4047  15.736   0.029   4.392 -0.0498  0.4317 -0.3598
 1848W        W 4048  10.109   2.159  30.796  0.1242 -0.1738 -0.1327
 1849W        W 4049  17.595   5.932  10.624 -0.1562 -0.1659  0.0722
 1850W        W 4050  16.436   0.874   3.506 -0.1058  0.0494 -0.1761
 1851W        W 4051  18.073   0.623  25.301  0.2374  0.0299 -0.2915
 1852W        W 4052  15.215   3.794  34.846  0.2056  0.2140  0.1704
 1853W        W 4053  26.211   2.684  23.333 -0.1832  0.1629 -0.0543
 1854W        W 4054  13.197   6.426   2.420 -0.0006 -0.1402 -0.0191
 1855W        W 4055  24.664   5.435   7.043  0.0907  0.1461  0.1060
 1856W        W 4056  12.754   3.331   0.569  0.1641  0.5457  0.0492
 1857W        W 4057   3.535   6.171   8.598 -0.4019 -0.0911 -0.2456
 1858W        W 4058  15.919   4.922  28.286  0.2165  0.2237  0.2062
 1859W        W 4059   7.356   4.362  10.830 -0.1642  0.1140 -0.0127
 1860W        W 4060  10.534   0.959  33.757  0.2146  0.0458  0.1830
 1861W        W 4061  21.079   4.693  31.280 -0.2087  0.2019  0.0932
 1862W        W 4062   0.426   2.743  11.226 -0.0177 -0.3288  0.2904
 1863W        W 4063  12.857   6.017  26.401  0.3569  0.0276 -0.0288
 1864W        W 4064  12.339   0.402   7.829 -0.0085  0.0611  0.1681
 1865W        W 4065   1.580   4.153  30.007 -0.0653  0.1515 -0.2453
 1866W        W 4066  14.760   3.891   6.031  0.1668 -0.1984  0.1486
 1867W        W 4067   2.971   0.581  28.255 -0.0282  0.1418  0.1098
 1868W        W 4068  14.167   0.527   2.702  0.0447 -0.3519  0.1729
 1869W        W 4069  12.340   3.849   8.590 -0.1111  0.0750  0.0092
 1870W        W 4070  24.965   0.101  33.415  0.3195  0.0014  0.2086
 1871W        W 4071   2.856   5.761   7.613 -0.0495 -0.0249  0.3610
 1872W        W 4072  11.450   3.648  25.085 -0.2339  0.0219  0.0855
 1873W        W 4073   4.216   3.188  14.568 -0.0416 -0.0077 -0.1227
 1874W        W 4074  20.279   1.361  24.609 -0.1003 -0.0167  0.2780
 1875W        W 4075   7.941   5.772  24.551 -0.2800 -0.0232  0.1598
 1876W        W 4076  11.541   4.532  35.183  0.0038  0.0417 -0.2553
 1877W        W 4077   1.738   6.431   1.128  0.2071  0.0761 -0.0574
 1878W        W 4078  14.106   0.793  34.653 -0.0215 -0.1145 -0.1148
 1879W        W 4079  10.361   0.305  23.586 -0.1876  0.1645 -0.2072
 1880W        W 4080  22.364   5.889  35.184  0.4709 -0.1190  0.1951
 1881W        W 4081  10.382   0.777  34.939  0.0130 -0.0754 -0.0475
 1882W        W 4082   6.514   0.606  34.643  0.1796  0.0950  0.2117
 1883W        W 4083  20.156   0.895   8.177 -0.0021  0.0996 -0.1511
 1884W        W 4084   5.261   0.807   0.348  0.2649  0.1249 -0.1618
 1885W        W 4085  12.077   3.506   5.927  0.0038  0.2688  0.1388
 1886W        W 4086  19.124   3.297  27.181  0.1032 -0.0893  0.3560
 1887W        W 4087  18.939   4.783  31.918 -0.0562  0.1109 -0.1298
 1888W        W 4088  22.753   4.447   3.826 -0.0451  0.1866 -0.2233
 1889W        W 4089  13.489   3.137  28.803 -0.2815  0.1331 -0.0581
 1890W        W 4090   3.492   0.356  26.480  0.0486  0.1434  0.2218
 1891W        W 4091   4.892   2.938  15.229  0.0837  0.1173 -0.1719
 1892W        W 4092  21.302   1.839   3.790  0.0706 -0.1325 -0.0092
 1893W        W 4093  10.857   6.461  24.215  0.2140 -0.0341 -0.1104
 1894W        W 4094  10.031   2.323   5.217  0.3081 -0.1897  0.0897
 1895W        W 4095   8.229   4.171   5.393 -0.0498 -0.2778 -0.1782
 1896W        W 4096  13.458   0.424  24.951 -0.1355 -0.1664 -0.2914
 1897W        W 4097  10.304   4.361  28.828 -0.0285 -0.2950  0.0240
 1898W        W 4098  23.723   3.143  35.901 -0.2076 -0.0663 -0.1183
 1899W        W 4099   0.183   2.564  23.595  0.0733  0.3076 -0.0806
 1900W        W 4100  10.897   3.867  24.328 -0.0698 -0.0096 -0.2665
 1901W        W 4101  16.001   6.513  20.755 -0.2569 -0.0257 -0.2649
 1902W        W 4102   8.937   2.067  11.271  0.3788 -0.0483 -0.1414
 1903W        W 4103   1.272   4.562  29.814  0.2192 -0.0233  0.3159
 1904W        W 4104   1.127   1.177   1.576  0.1893  0.1540  0.0567
 1905W        W 4105  25.219   4.131   8.302 -0.1030  0.2111  0.0977
 1906W        W 4106  18.642   2.203  22.839 -0.0948 -0.0821 -0.1234
 1907W        W 4107  16.320   0.016  28.478 -0.0763  0.1404  0.1100
 1908W        W 4108  12.417   5.969   5.196  0.0822 -0.1414  0.0135
 1909W        W 4109  15.283   1.345  14.083  0.0945  0.2230  0.1986
 1910W        W 4110  24.917   0.935  26.711  0.1967 -0.0043  0.2078
 1911W        W 4111   3.129   5.517  32.548 -0.4485  0.0541 -0.6334
 1912W        W 4112  10.315   3.719   2.292 -0.1436 -0.2055 -0.0385
 1913W        W 4113  19.419   1.773  26.886 -0.1755 -0.0389  0.2156
 1914W        W 4114  21.875   5.312  24.150 -0.1821 -0.3130 -0.1105
 1915W        W 4115  24.537   6.522  31.697 -0.2261 -0.0499 -0.2474
 1916W        W 4116  22.977   4.592  14.107 -0.0051 -0.1715  0.1612
 1917W        W 4117  15.581   3.611  27.180  0.0401  0.0494 -0.3423
 1918W        W 4118  26.116   4.354  24.205 -0.1918  0.1113 -0.0303
 1919W        W 4119   7.493   3.414  10.971 -0.2251 -0.2877  0.2083
 1920W        W 4120  25.534   3.119  10.522  0.1451  0.2273 -0.0802
 1921W        W 4121  26.205   0.871   3.617  0.0377 -0.1564 -0.1983
 1922W        W 4122  19.057   6.367  35.479  0.3030 -0.2019 -0.2626
 1923W        W 4123   5.847   2.950   8.315  0.1086  0.0370  0.1746
 1924W        W 4124  22.958   5.435   1.200 -0.1358 -0.1549  0.0885
 1925W        W 4125   1.357   2.336  32.483 -0.1721 -0.3270 -0.0359
 1926W        W 4126   3.300   2.192  22.083 -0.0610 -0.1709  0.0169
 1927W        W 4127   7.422   6.352  11.131  0.1640 -0.0754 -0.0078
 1928W        W 4128  11.735   1.891  32.518  0.0072 -0.2280  0.2663
 1929W        W 4129  21.955   3.967  34.997 -0.1500 -0.1035 -0.4891
 1930W        W 4130  18.769   5.962  10.155 -0.1741  0.0052  0.1642
 1931W        W 4131  17.666   3.050   7.690  0.4008 -0.1028  0.0496
 1932W        W 4132  12.868   5.267  12.574 -0.0123  0.0038 -0.0106
 1933W        W 4133  11.403   4.618  11.331 -0.0107 -0.0576  0.0505
 1934W        W 4134   1.655   2.317   9.144 -0.1438  0.5061 -0.0398
 1935W        W 4135  16.986   1.051   4.206 -0.0871  0.2308  0.0579
 1936W        W 4136  18.768   2.328  13.105  0.0882 -0.0329 -0.0548
 1937W        W 4137  18.309   4.604  11.052  0.0243  0.0683  0.0541
 1938W        W 4138  22.009   3.707  33.064 -0.0938  0.4873 -0.3509
 1939W        W 4139  25.681   5.271   2.369  0.1159 -0.0563 -0.1928
 1940W        W 4140  16.132   4.691   8.828 -0.0733 -0.0653  0.2487
 1941W        W 4141   8.697   5.614   1.254  0.0613 -0.2728  0.2770
 1942W        W 4142  13.105   5.140   1.598 -0.0460  0.0785  0.2195
 1943W        W 4143  11.978   0.232  29.253 -0.1062 -0.1526  0.1799
 1944W        W 4144   7.019   6.343   0.673 -0.0906 -0.0599  0.2007
 1945W        W 4145  17.076   5.060  23.244  0.1139  0.1556  0.1694
 1946W        W 4146   2.629   1.804   2.190 -0.0186 -0.1551 -0.3350
 1947W        W 4147  20.646   0.101  21.827  0.1286  0.1367 -0.0697
 1948W        W 4148   5.199   4.153  27.379 -0.1029 -0.1307  0.1350
 1949W        W 4149  20.579   2.513  10.857  0.1749 -0.4306  0.3069
 1950W        W 4150  13.738   0.081  14.120  0.4631 -0.0069 -0.2381
 1951W        W 4151   5.862   0.556  20.972 -0.1566 -0.2792  0.1738
 1952W        W 4152  12.911   6.108   8.042  0.1541 -0.0498  0.2527
 1953W        W 4153  25.239   6.483  35.895  0.0653 -0.5089 -0.3626
 1954W        W 4154   3.592   6.417   2.999  0.0110  0.2374  0.2392
 1955W        W 4155   3.061   5.961   5.445  0.0780 -0.2012 -0.1420
 1956W        W 4156  24.532   3.625  10.227  0.3525 -0.1201  0.1246
 1957W        W 4157  13.958   3.146   4.835 -0.1317  0.2701  0.0911
 1958W        W 4158  22.457   0.399  11.705  0.0269 -0.1680 -0.3925
 1959W        W 4159  19.466   3.412   4.362  0.0476  0.3411 -0.1533
 1960W        W 4160  17.544   5.069  29.641  0.1409  0.1912  0.2259
 1961W        W 4161  12.433   2.989   0.710 -0.1423  0.1826 -0.1002
 1962W        W 4162  14.386   1.666   7.397  0.0260 -0.0319 -0.0183
 1963W        W 4163  16.127   4.704  21.512  0.1030  0.0054 -0.2035
 1964W        W 4164   6.368   5.351   3.739  0.0485  0.1158  0.1922
 1965W        W 4165  18.685   2.991  27.246  0.0089 -0.1543 -0.0768
 1966W        W 4166  10.400   2.848  35.380  0.0163  0.0544 -0.3529
 1967W        W 4167  12.424   4.936  29.134  0.0646  0.0356 -0.1550
 1968W        W 4168  26.388   0.975  14.696  0.1475 -0.0171  0.0854
 1969W        W 4169  15.793   4.761  27.151  0.1118  0.1139 -0.0414
 1970W        W 4170  24.121   2.266   4.580 -0.0039  0.2870  0.2802
 1971W        W 4171   8.532   4.226  29.372 -0.1345 -0.0379  0.0823
 1972W        W 4172  20.364   3.960   0.885 -0.0288  0.0263 -0.2564
 1973W        W 4173  23.146   1.129   6.886 -0.1338 -0.1027  0.1175
 1974W        W 4174   3.692   2.726  24.315  0.0155 -0.0835 -0.2892
 1975W        W 4175  16.201   0.348  31.263  0.0243  0.4717  0.1296
 1976W        W 4176  20.836   2.981  11.578 -0.1282 -0.0277 -0.1634
 1977W        W 4177  24.538   2.376   7.083  0.5650  0.2252 -0.1404
 1978W        W 4178  22.831   1.976  14.234 -0.1362  0.2078  0.0878
 1979W        W 4179  17.481   6.107  31.539  0.0140 -0.0531 -0.2697
 1980W        W 4180   6.228   2.124  30.855 -0.2423 -0.0219 -0.0327
 1981W        W 4181   5.106   5.921   4.780 -0.1648 -0.1864 -0.1315
 1982W        W 4182   3.561   5.825  23.483  0.0526 -0.1361 -0.0891
 1983W        W 4183   6.719   3.194   9.110 -0.0363 -0.1219 -0.3278
 1984W        W 4184  25.254   4.171  33.151  0.1795 -0.1469 -0.2535
 1985W        W 4185   7.363   4.034  11.724 -0.0355 -0.1627 -0.0069
 1986W        W 4186  17.996   5.413   6.678 -0.2477 -0.3086  0.1580
 1987W        W 4187   3.277   2.441   2.714 -0.0548  0.0904 -0.1540
 1988W        W 4188   0.291   4.917  22.814  0.0368 -0.1214 -0.1074
 1989W        W 4189   2.067   5.941   8.676 -0.0931  0.1638  0.3347
 1990W        W 4190   6.114   0.758   1.055 -0.5182  0.1408 -0.3080
 1991W        W 4191   6.022   5.986   0.642 -0.1310 -0.4238  0.0206
 1992W        W 4192  17.582   5.061  23.846 -0.3930  0.1663  0.2173
 1993W        W 4193   2.356   4.204   0.999  0.1126  0.1076 -0.0683
 1994W        W 4194  15.429   4.236   4.271 -0.1742 -0.2658 -0.1171
 1995W        W 4195  15.688   5.154  25.700  0.3024 -0.0630 -0.0567
 1996W        W 4196  11.438   0.022  30.067  0.1628  0.3305  0.1247
 1997W        W 4197   7.746   3.098  12.502 -0.2709  0.3830  0.1448
 1998W        W 4198  14.256   2.809   4.636  0.0670 -0.0992  0.0926
 1999W        W 4199  21.319   5.440   7.925 -0.3922 -0.1531 -0.2814
 2000W        W 4200  21.189   6.205  20.669 -0.0203 -0.1736  0.3721
 2001W        W 4201  21.240   0.777  30.526 -0.1808 -0.1034 -0.1741
 2002W        W 4202   2.375   6.171   0.614  0.0694 -0.1608  0.0711
 2003W        W 4203  23.880   3.415   5.933  0.1117  0.3084 -0.2369
 2004W        W 4204   2.764   5.039   5.186 -0.0371 -0.0009  0.0800
 2005W        W 4205   0.431   0.344  26.979  0.2242 -0.4427 -0.1754
 2006W        W 4206   9.225   1.935  12.191 -0.0045 -0.1336  0.1829
 2007W        W 4207  21.387   1.671  12.556  0.0907  0.0649  0.2246
 2008W        W 4208   1.681   2.049  20.993  0.0892 -0.0182  0.0068
 2009W        W 4209  10.412   4.414  21.834 -0.0286 -0.1605 -0.0419
 2010W        W 4210   6.696   4.191  10.125 -0.0316  0.0637  0.1672
 2011W        W 4211  13.186   6.377  11.549  0.3251  0.0718 -0.3060
 2012W        W 4212  17.543   5.234   3.084 -0.1226 -0.0268 -0.0384
 2013W        W 4213   5.411   5.407  28.917  0.3275 -0.2472 -0.1776
 2014W        W 4214  22.024   1.608  26.608  0.1967  0.0351  0.1335
 2015W        W 4215   2.692   2.813   2.499  0.1762  0.0999 -0.0382
 2016W        W 4216   0.547   0.912   5.021  0.0660 -0.3557 -0.0135
 2017W        W 4217  21.254   4.504  14.482  0.1579 -0.2699 -0.1861
 2018W        W 4218   4.185   5.698   8.262 -0.1769  0.0430  0.0089
 2019W        W 4219   7.069   0.107  33.708  0.0840 -0.0474 -0.2179
 2020W        W 4220  16.312   4.485  35.815  0.2887  0.3554 -0.2851
 2021W        W 4221  23.625   0.688  14.447 -0.0550  0.1780 -0.0050
 2022W        W 4222  18.375   5.666  20.697 -0.0741  0.2300  0.3389
 2023W        W 4223  16.910   4.994   1.999 -0.2916  0.0261  0.1355
 2024W        W 4224   9.199   4.385  30.941  0.2205 -0.1204  0.3646
 2025W        W 4225   2.102   0.235  15.213 -0.2188 -0.1052  0.0014
 2026W        W 4226   3.962   6.280  20.553  0.2250 -0.2849  0.0816
 2027W        W 4227  20.151   1.226  29.161  0.1132  0.0270  0.0547
 2028W        W 4228  24.693   3.775   7.222  0.3300 -0.2001  0.0523
 2029W        W 4229   8.849   6.241   6.942  0.1897  0.1955 -0.0098
 2030W        W 4230  24.618   5.444   3.259 -0.2810  0.3400  0.1319
 2031W        W 4231  11.720   4.987   0.747 -0.4549  0.0586 -0.0684
 2032W        W 4232   7.965   0.712  31.309 -0.2012  0.1606 -0.1252
 2033W        W 4233  23.920   5.920   6.141 -0.0771  0.0122  0.1439
 2034W        W 4234  11.010   0.204   6.167 -0.0096 -0.1668 -0.0799
 2035W        W 4235  18.471   5.955  11.871 -0.1077  0.0847  0.2586
 2036W        W 4236  24.776   3.892  29.917  0.0223 -0.0705  0.2139
 2037W        W 4237  19.846   6.423  12.623  0.1465  0.0943  0.1132
 2038W        W 4238   8.060   0.585  22.307 -0.1266  0.0669  0.0146
 2039W        W 4239   1.920   4.551  10.530 -0.0108  0.4270  0.1905
 2040W        W 4240  14.995   4.568  10.902 -0.0032 -0.2047 -0.0784
 2041W        W 4241  12.782   1.360  32.128 -0.1232 -0.0200  0.4123
 2042W        W 4242  21.421   5.824   6.915  0.2502 -0.4072  0.1802
 2043W        W 4243   6.050   2.424  14.593 -0.0114  0.4154  0.0317
 2044W        W 4244  10.142   4.310   1.119 -0.1862 -0.0917 -0.2278
 2045W        W 4245  18.933   1.702  27.043 -0.4095 -0.0222 -0.1009
 2046W        W 4246   6.833   4.039  24.238 -0.2612 -0.2868  0.1235
 2047W        W 4247   0.147   0.583   9.848 -0.0746 -0.0762  0.0971
 2048W        W 4248  11.105   2.628  23.413 -0.0743  0.2049  0.0683
 2049W        W 4249   6.504   1.958  35.822  0.3240  0.0657 -0.0907
 2050W        W 4250  15.681   5.248   1.497 -0.4242 -0.0566  0.2019
 2051W        W 4251   0.683   3.870  30.569  0.1074  0.0018 -0.0574
 2052W        W 4252  20.070   5.962  14.597  0.0191  0.0183  0.1857
 2053W        W 4253   8.431   4.468   2.946  0.0857 -0.2918 -0.0358
 2054W        W 4254  24.408   1.691   7.929  0.2779 -0.1557  0.1768
 2055W        W 4255  20.034   2.737   0.095  0.3568  0.0595 -0.1496
 2056W        W 4256  20.624   1.435  13.416  0.2062  0.0963  0.2164
 2057W        W 4257   1.970   3.709  27.733 -0.0093  0.1694  0.1690
 2058W        W 4258  22.844   3.742  25.256  0.0498 -0.1467 -0.0652
 2059W        W 4259  17.381   0.062   9.158  0.0331  0.0130  0.2371
 2060W        W 4260  18.507   2.360   8.815  0.0309  0.0365  0.0832
 2061W        W 4261  22.444   5.174   7.648 -0.0797 -0.3585 -0.0658
 2062W        W 4262  26.353   4.836  28.810  0.3000  0.0590  0.1179
 2063W        W 4263  11.890   5.466  23.134  0.2214 -0.1517 -0.1278
 2064W        W 4264   0.990   4.716   0.252 -0.3205  0.0984 -0.1108
 2065W        W 4265  22.537   1.572   2.665  0.1302  0.2197 -0.1283
 2066W        W 4266  16.290   3.148  13.141 -0.0573  0.3175  0.2028
 2067W        W 4267   5.456   4.554  35.275 -0.2647  0.0150 -0.2550
 2068W        W 4268  22.254   5.212  28.894 -0.1723  0.0110 -0.2046
 2069W        W 4269  10.801   3.382   6.733  0.0533 -0.2033 -0.1402
 2070W        W 4270   9.238   4.739   3.347 -0.3318  0.0480 -0.3409
 2071W        W 4271  16.610   6.147   2.766  0.1371 -0.0613  0.2631
 2072W        W 4272  21.962   3.659  29.446  0.1754  0.1629  0.0261
 2073W        W 4273   8.273   3.967   1.824  0.0828  0.1159 -0.0697
 2074W        W 4274  13.243   5.418   7.099  0.0503  0.0578  0.0413
 2075W        W 4275  10.622   5.545   5.927  0.2224  0.0337 -0.1164
 2076W        W 4276  24.890   6.399  27.941  0.1393  0.0245  0.4916
 2077W        W 4277  20.814   4.267  25.133  0.2404  0.0191 -0.0733
 2078W        W 4278   8.747   3.841  34.734  0.1409  0.0058 -0.1208
 2079W        W 4279   7.817   4.349  25.379  0.2351  0.2338  0.4130
 2080W        W 4280  19.067   0.758  27.774  0.1952  0.2408  0.1435
 2081W        W 4281  20.990   2.846  23.316  0.3375  0.1109 -0.0527
 2082W        W 4282   9.455   6.595  15.648  0.0531  0.4948  0.2379
 2083W        W 4283  10.908   4.824   3.284 -0.0665  0.0131  0.0436
 2084W        W 4284   8.717   1.279   3.827 -0.0773 -0.0332  0.0078
 2085W        W 4285  26.364   4.579   7.474 -0.2230  0.1699  0.0996
 2086W        W 4286   0.667   1.125  35.607  0.0344  0.1582 -0.0948
 2087W        W 4287   2.234   1.953   6.644 -0.0148 -0.2244  0.1266
 2088W        W 4288  16.896   1.193   3.273 -0.0171 -0.1325  0.1442
 2089W        W 4289   5.745   2.711   6.752  0.0000 -0.0304 -0.0628
 2090W        W 4290   7.165   1.553   2.417  0.2936 -0.0105 -0.2953
 2091W        W 4291  12.188   5.004  32.110  0.1831  0.1690 -0.1314
 2092W        W 4292  13.855   3.096  21.038  0.4572  0.0701  0.0569
 2093W        W 4293  11.881   5.579   1.918  0.0959  0.3427  0.1796
 2094W        W 4294  25.841   3.071  22.125 -0.1055 -0.0146  0.2345
 2095W        W 4295  17.688   6.478  10.386  0.2138 -0.0979 -0.2139
 2096W        W 4296   0.315   1.340  22.243  0.1685  0.0010 -0.2977
 2097W        W 4297   4.852   0.386   2.726  0.0537 -0.3251  0.1847
 2098W        W 4298   8.183   2.165  35.963 -0.1005  0.1089 -0.0837
 2099W        W 4299  11.633   4.075   5.331 -0.2712 -0.2212  0.0152
 2100W        W 4300  14.844   1.940  15.725 -0.0184 -0.0941  0.5729
 2101W        W 4301  20.076   4.743  21.555 -0.1690  0.3594  0.0185
 2102W        W 4302  11.587   6.077   1.658  0.1586  0.0726  0.2252
 2103W        W 4303  15.695   3.140  29.305  0.0852  0.0917 -0.1039
 2104W        W 4304  12.602   3.288  13.418  0.1361 -0.1896  0.2552
 2105W        W 4305  22.522   4.783  12.561  0.0579 -0.2201  0.2007
 2106W        W 4306  21.071   0.606  26.189 -0.2415  0.2953 -0.1948
 2107W        W 4307  17.494   0.019  34.698  0.0357 -0.1323  0.0336
 2108W        W 4308  17.551   3.378   0.155  0.1532  0.2014 -0.0835
 2109W        W 4309  16.636   0.556  31.889 -0.2133 -0.2821 -0.0419
 2110W        W 4310  23.268   3.277  27.414  0.3018 -0.1395 -0.0406
 2111W        W 4311  12.869   5.007   3.776 -0.0422 -0.3515 -0.0253
 2112W        W 4312   1.564   0.261   4.875 -0.0183 -0.2024  0.0724
 2113W        W 4313  24.421   4.264   6.536 -0.0963  0.1268  0.2332
 2114W        W 4314  11.060   0.021   8.723 -0.1452 -0.1912  0.1716
 2115W        W 4315  18.083   2.329   1.015 -0.0335 -0.0766  0.0606
 2116W        W 4316  25.028   5.313  12.002 -0.1497  0.2837 -0.1070
 2117W        W 4317  16.264   6.286  12.176  0.0108 -0.3114 -0.1185
 2118W        W 4318   2.731   2.959  29.999 -0.0621 -0.0893  0.2070
 2119W        W 4319   1.016   0.491  23.178 -0.1077 -0.1296 -0.0966
 2120W        W 4320   7.442   2.087  13.408  0.2901 -0.1830  0.2970
 2121W        W 4321  12.437   2.893  15.072 -0.0102 -0.0553  0.1430
 2122W        W 4322  20.691   0.887   4.680  0.0289  0.2366  0.0991
 2123W        W 4323  11.577   1.261   9.330  0.1484 -0.0179  0.2765
 2124W        W 4324   9.807   2.808   8.825 -0.2093 -0.0914  0.0164
 2125W        W 4325   2.549   5.710  30.236 -0.0985  0.0738 -0.3858
 2126W        W 4326   1.927   1.027   3.586  0.1961 -0.0488  0.1890
 2127W        W 4327  17.650   2.131  32.052 -0.4195 -0.1231  0.0911
 2128W        W 4328  23.022   0.793   0.036 -0.0569  0.1886 -0.0691
 2129W        W 4329   7.446   1.493  23.976  0.1044 -0.0156 -0.2250
 2130W        W 4330  13.068   0.791  31.929 -0.0561 -0.1204  0.0619
 2131W        W 4331   6.943   1.664   5.868  0.1919 -0.1712  0.1278
 2132W        W 4332  23.190   4.867  26.114  0.1870  0.2184 -0.2646
 2133W        W 4333  16.445   3.149  32.988 -0.2947  0.0987  0.1404
 2134W        W 4334  21.752   3.588  32.506 -0.1205 -0.1189 -0.2325
 2135W        W 4335  25.713   5.561  14.653 -0.0964  0.0188 -0.1214
 2136W        W 4336  19.516   4.665  33.632  0.0713 -0.2110  0.1199
 2137W        W 4337   4.586   0.055  33.836  0.1535  0.3436 -0.0799
 2138W        W 4338   3.288   4.278  33.377  0.0387 -0.1477 -0.1947
 2139W        W 4339   5.685   3.137  33.116  0.1905 -0.0459  0.3395
 2140W        W 4340   8.490   0.440  21.954  0.1095 -0.0695  0.1213
 2141W        W 4341  14.990   6.301   0.795 -0.1648  0.0103 -0.1172
 2142W        W 4342   3.511   2.291  24.189 -0.0136  0.3240 -0.0556
 2143W        W 4343   1.127   1.791   7.371 -0.1196 -0.0671  0.0149
 2144W        W 4344  17.606   3.337  30.030  0.1353  0.2602  0.0234
 2145W        W 4345  14.415   4.486   3.174  0.1492  0.0008 -0.0134
 2146W        W 4346  20.899   2.212   0.238  0.0160 -0.3089 -0.2647
 2147W        W 4347  18.605   4.951  11.909  0.0855 -0.0010 -0.2625
 2148W        W 4348   3.213   6.336   2.457 -0.1304 -0.4443 -0.2987
 2149W        W 4349  17.619   4.796  20.562 -0.0871 -0.0400  0.1419
 2150W        W 4350   7.446   2.814   1.921  0.2371  0.0866 -0.4034
 2151W        W 4351   9.557   1.159  13.247 -0.0494 -0.0053  0.0534
 2152W        W 4352   2.433   2.863  22.871  0.0076  0.1565 -0.1991
 2153W        W 4353  14.484   5.872  24.926  0.0460  0.0058 -0.1586
 2154W        W 4354  20.253   6.500  33.124  0.0471  0.3897 -0.1446
 2155W        W 4355  12.635   3.043  10.637  0.0527 -0.1055 -0.1808
 2156W        W 4356  25.087   3.588   0.685  0.0579  0.0174 -0.1644
 2157W        W 4357  25.687   2.763  30.232 -0.1190 -0.0203 -0.0429
 2158W        W 4358   5.635   1.033  22.846  0.1003  0.1460 -0.0786
 2159W        W 4359   8.582   1.054  22.915 -0.1082  0.0410 -0.1197
 2160W        W 4360  13.386   2.501  11.882 -0.0830  0.1521 -0.1297
 2161W        W 4361  17.246   3.443   8.566  0.0949 -0.1152 -0.4215
 2162W        W 4362  13.609   3.500  30.748 -0.0128  0.0004  0.0207
 2163W        W 4363  24.612   1.804  24.126 -0.0785  0.1895 -0.0788
 2164W        W 4364   6.891   5.242   9.957 -0.3421 -0.2789 -0.1447
 2165W        W 4365   5.250   0.170  23.545 -0.2019 -0.0082  0.4167
 2166W        W 4366  17.645   2.919  35.791 -0.1480 -0.0198 -0.2524
 2167W        W 4367   7.638   3.621  11.719  0.0675  0.1090  0.0527
 2168W        W 4368  12.559   4.590   5.430 -0.0301  0.1364 -0.2300
 2169W        W 4369   6.911   4.193   6.516  0.0787 -0.3323 -0.1235
 2170W        W 4370  15.812   1.280  14.898 -0.0052 -0.4176 -0.3278
 2171W        W 4371  24.400   4.048  12.854  0.1195 -0.4264  0.0431
 2172W        W 4372  16.265   5.376  34.083 -0.0593 -0.0914  0.0863
 2173W        W 4373  10.980   2.475  26.372 -0.1997  0.1668 -0.0664
 2174W        W 4374  14.420   0.499  29.104 -0.0632  0.0423 -0.0352
 2175W        W 4375  10.285   5.582   7.083  0.3826  0.1139 -0.1774
 2176W        W 4376  10.239   0.994   5.477 -0.2606 -0.0572  0.0594
 2177W        W 4377  12.847   2.408   4.567  0.1482  0.1887 -0.1065
 2178W        W 4378   0.742   3.042  31.605  0.0908 -0.1778 -0.2648
 2179W        W 4379  16.456   1.740   2.672 -0.0749 -0.0747  0.0876
 2180W        W 4380  12.560   1.680  29.111  0.2537 -0.0080  0.0623
 2181W        W 4381  20.016   3.777  27.474  0.0277 -0.1694  0.1404
 2182W        W 4382  10.341   4.234  31.001 -0.2486 -0.0637  0.0242
 2183W        W 4383   0.709   3.161  11.934 -0.0522 -0.0040  0.1610
 2184W        W 4384  15.393   0.028  27.968  0.1195 -0.0419 -0.2818
 2185W        W 4385  16.446   1.873  30.437  0.1102 -0.1456  0.2197
 2186W        W 4386  18.574   3.130   1.929 -0.0076  0.4216  0.0149
 2187W        W 4387   2.585   0.485  33.959  0.0446  0.3515  0.0197
 2188W        W 4388   6.628   4.352   0.450 -0.0119  0.0551  0.3746
 2189W        W 4389  23.482   4.513  25.795  0.1922 -0.1230  0.0185
 2190W        W 4390  24.032   3.675  25.199 -0.0700 -0.1715  0.0351
 2191W        W 4391  26.353   4.305   5.688  0.0315 -0.0050  0.1877
 2192W        W 4392  13.002   4.982   9.883 -0.0072 -0.3567  0.0196
 2193W        W 4393  14.902   4.956   8.690 -0.2560 -0.1416  0.2430
 2194W        W 4394  16.636   4.675  14.299 -0.0310 -0.1316 -0.3083
 2195W        W 4395   6.116   5.018   1.830  0.1797 -0.1094 -0.2265
 2196W        W 4396  20.566   2.697  33.245  0.0927  0.0075 -0.1711
 2197W        W 4397  11.125   5.919  15.158 -0.1609 -0.1171  0.2977
 2198W        W 4398  16.657   0.969  13.616  0.1115 -0.0582 -0.1613
 2199W        W 4399  26.086   0.213  30.789  0.0769  0.0385  0.3931
 2200W        W 4400  21.907   1.155  26.694 -0.2603 -0.0620  0.0900
 2201W        W 4401  21.355   3.150  34.534 -0.1167 -0.2538 -0.1011
 2202W        W 4402   5.774   2.909  29.726 -0.0443  0.2073 -0.1790
 2203W        W 4403   0.157   4.727   6.317 -0.3013 -0.2823 -0.0726
 2204W        W 4404   0.617   1.555  24.880 -0.1154 -0.0186 -0.0986
 2205W        W 4405  19.725   0.810  12.833  0.1339  0.0896  0.0136
 2206W        W 4406  18.264   2.083  13.367 -0.0003 -0.0570  0.1602
 2207W        W 4407  21.489   5.515  29.958 -0.0832 -0.1694 -0.0901
 2208W        W 4408  26.260   0.211  12.154 -0.2075 -0.1009  0.2529
 2209W        W 4409  14.645   5.604   4.120  0.0069  0.1116  0.1217
 2210W        W 4410  12.364   0.287  14.343 -0.2498 -0.0549 -0.1487
 2211W        W 4411   2.627   0.650  13.831 -0.3161  0.1329  0.0655
 2212W        W 4412  14.214   0.975  32.151  0.1452 -0.3776  0.2272
 2213W        W 4413  23.168   4.522   7.625  0.1797 -0.4015 -0.0886
 2214W        W 4414   1.487   2.065   5.130 -0.0074  0.0349  0.2168
 2215W        W 4415   8.549   0.496  22.932 -0.2166 -0.0635  0.0785
 2216W        W 4416  17.182   0.053  11.456 -0.1068 -0.2347  0.2207
 2217W        W 4417  15.673   1.281  13.201 -0.1995  0.3099 -0.0108
 2218W        W 4418  21.983   2.244   7.327  0.1796 -0.2122  0.1725
 2219W        W 4419   3.829   2.282  10.632 -0.1537 -0.2362  0.1922
 2220W        W 4420  19.528   0.031  22.119 -0.0475 -0.2690  0.0399
 2221W        W 4421  20.350   0.483  24.570 -0.2535 -0.1941  0.1680
 2222W        W 4422   8.996   2.516   9.792  0.1132  0.1463 -0.0643
 2223W        W 4423  11.594   1.603  33.568  0.1397  0.3455  0.0173
 2224W        W 4424   1.312   1.027  26.415  0.1530 -0.1660 -0.2195
 2225W        W 4425   3.893   6.416  34.360 -0.5104  0.3115 -0.0716
 2226W        W 4426  24.065   6.064   0.546  0.3327  0.0383  0.2598
 2227W        W 4427   5.006   0.218  11.786 -0.2423 -0.1483  0.2817
 2228W        W 4428   2.703   5.140  27.829 -0.2263 -0.2184  0.1466
 2229W        W 4429  10.240   1.128  11.559  0.1999  0.2275  0.1436
 2230W        W 4430  14.469   2.926  10.298 -0.1982  0.2474 -0.2715
 2231W        W 4431  13.845   6.165  25.252  0.2376  0.2682 -0.1456
 2232W        W 4432  17.353   1.163  32.157  0.0020 -0.1576 -0.1876
 2233W        W 4433   3.712   4.714  24.094  0.1381  0.3493 -0.1879
 2234W        W 4434   5.821   6.236   3.868  0.2407  0.0108  0.1863
 2235W        W 4435   5.603   1.194  24.701  0.1549  0.2009  0.1455
 2236W        W 4436  10.943   5.699   9.469  0.1710  0.2281  0.0844
 2237W        W 4437   2.174   2.092   3.442  0.1528  0.3614 -0.2794
 2238W        W 4438  22.389   5.321  35.342 -0.1571  0.0473 -0.2612
 2239W        W 4439   7.672   4.761  33.064  0.2560  0.4475 -0.2022
 2240W        W 4440  11.650   5.400  32.851  0.0533  0.2538 -0.0212
 2241W        W 4441  22.595   3.102   9.199 -0.0130 -0.1292  0.0804
 2242W        W 4442  23.733   4.698  31.883 -0.1978 -0.1217  0.0383
 2243W        W 4443  25.482   3.798  21.439  0.4974 -0.0779 -0.2070
 2244W        W 4444  25.666   3.325   0.371  0.0196  0.1078  0.0714
 2245W        W 4445   1.917   4.355   2.949  0.0315  0.1655 -0.0640
 2246W        W 4446  11.400   0.772   9.383 -0.3189 -0.0271  0.0297
 2247W        W 4447   1.168   6.432  14.717  0.3729  0.2664  0.0721
 2248W        W 4448  24.483   1.879  13.883  0.2111  0.2558 -0.0160
 2249W        W 4449   9.887   4.413   6.823  0.2218  0.2151 -0.1664
 2250W        W 4450  24.272   3.835   9.200  0.4056 -0.3966  0.1608
 2251W        W 4451   6.449   4.937  12.098  0.4064  0.0800  0.0648
 2252W        W 4452   4.940   2.177  26.884 -0.0076 -0.0965 -0.1375
 2253W        W 4453  13.763   1.200  30.090 -0.0474  0.0953 -0.0671
 2254W        W 4454  21.139   5.642   4.584  0.1034 -0.1064 -0.1500
 2255W        W 4455  24.714   2.013   1.437  0.1219 -0.3061 -0.1519
 2256W        W 4456   4.626   4.042   6.863 -0.0440  0.0683 -0.0521
 2257W        W 4457  25.171   3.509   0.208 -0.1556  0.0825  0.1425
 2258W        W 4458   4.199   0.534   5.219 -0.0078  0.0827 -0.0076
 2259W        W 4459  22.926   5.182  27.610  0.3554  0.0988  0.1366
 2260W        W 4460  15.357   2.842   4.877  0.0846  0.2648  0.0668
 2261W        W 4461   6.866   0.972  29.989 -0.0126 -0.1557  0.0240
 2262W        W 4462  22.466   2.904   4.532 -0.0745 -0.2228  0.2455
 2263W        W 4463  15.245   4.606  21.969  0.1918  0.0524 -0.1484
 2264W        W 4464  15.747   3.450   3.366  0.0106  0.1011 -0.0549
 2265W        W 4465  17.280   1.019   1.551 -0.0758  0.1195 -0.0952
 2266W        W 4466  22.805   5.991  13.633 -0.1994 -0.1396 -0.1558
 2267W        W 4467  13.960   4.087  21.954 -0.0613  0.1470 -0.0264
 2268W        W 4468  18.524   5.254  12.796  0.5112  0.0252 -0.5216
 2269W        W 4469  25.014   0.546   8.689  0.0279 -0.0233  0.1696
 2270W        W 4470   1.044   0.853  35.359  0.0113  0.0344  0.0301
 2271W        W 4471  20.086   2.794  14.956 -0.1387  0.0945 -0.2545
 2272W        W 4472  23.416   1.626   8.472  0.1612 -0.0434  0.1293
 2273W        W 4473  22.669   4.378  10.202  0.0510  0.0417  0.0594
 2274W        W 4474  17.867   6.204   5.447 -0.1476  0.0687 -0.0811
 2275W        W 4475   8.968   2.035  30.770  0.1907 -0.1171 -0.0382
 2276W        W 4476   6.490   4.133   9.137  0.2032 -0.1779 -0.0639
 2277W        W 4477   9.785   5.878  10.823  0.2275  0.2667  0.3583
 2278W        W 4478   6.380   2.260  33.235  0.1038 -0.1777  0.3616
 2279W        W 4479   0.455   0.033  23.941 -0.0144  0.0884 -0.2075
 2280W        W 4480  12.675   1.913   8.120 -0.0098  0.1327  0.0391
 2281W        W 4481   7.543   4.061   3.730  0.1489  0.1207 -0.1720
 2282W        W 4482  23.272   5.494   2.562  0.1461 -0.0725  0.0979
 2283W        W 4483  21.860   0.650  32.345 -0.1394  0.0362 -0.2212
 2284W        W 4484   9.713   2.761  32.223  0.0872 -0.1747  0.1145
 2285W        W 4485  24.344   1.565  12.610 -0.1858 -0.1974 -0.0727
 2286W        W 4486  18.619   0.719   2.757  0.0010 -0.0634  0.0783
 2287W        W 4487  21.937   4.794   9.855 -0.3921  0.0639 -0.1385
 2288W        W 4488  18.782   2.129   4.939  0.0563 -0.0055  0.0846
 2289W        W 4489  12.515   4.037  11.264  0.0813  0.0154 -0.1628
 2290W        W 4490  11.730   2.668  10.173 -0.1998  0.2600 -0.2573
 2291W        W 4491  12.234   4.937  23.392 -0.2627 -0.1050 -0.0130
 2292W        W 4492  23.944   1.019   4.071 -0.0414  0.1880 -0.2246
 2293W        W 4493  11.766   6.106  32.925 -0.1347 -0.2403 -0.1794
 2294W        W 4494  22.349   1.121  25.045  0.1821  0.3405  0.0524
 2295W        W 4495  21.460   5.791   9.449  0.0427  0.0396 -0.2848
 2296W        W 4496   5.744   0.051   6.897  0.2784  0.1234  0.3665
 2297W        W 4497   5.505   4.599   2.234  0.0573  0.2016 -0.1359
 2298W        W 4498  15.916   5.921  15.376  0.0692 -0.1586  0.1878
 2299W        W 4499  16.323   5.631  14.227 -0.2611  0.1865 -0.2875
 2300W        W 4500  14.305   1.095  11.075 -0.2440 -0.0027  0.1800
 2301W        W 4501  21.145   5.343  29.600 -0.2383 -0.0933 -0.1180
 2302W        W 4502   6.169   3.930   7.951 -0.1441 -0.2534 -0.1207
 2303W        W 4503  15.859   2.292  29.143 -0.2425 -0.3061 -0.1428
 2304W        W 4504  25.132   0.846  28.064 -0.0886  0.1439 -0.1750
 2305W        W 4505  10.991   2.762   2.136  0.0156 -0.0786 -0.4401
 2306W        W 4506  21.325   5.946  13.674  0.0707 -0.0486  0.0559
 2307W        W 4507   5.779   6.350  36.001 -0.1719 -0.1008 -0.0175
 2308W        W 4508  26.080   3.710  22.746 -0.1457 -0.0393 -0.3028
 2309W        W 4509   2.666   5.579  23.281  0.0923 -0.2269  0.0107
 2310W        W 4510  12.827   2.712  34.261  0.0586  0.2736 -0.1596
 2311W        W 4511  18.027   3.534  31.897  0.3694  0.5451 -0.1695
 2312W        W 4512   2.326   4.404  21.994 -0.0467  0.0820 -0.5095
 2313W        W 4513  25.896   1.143   3.276  0.2552 -0.0548  0.0697
 2314W        W 4514  18.559   4.723  29.934  0.3411  0.4063  0.0830
 2315W        W 4515   2.576   4.409  31.214 -0.0898  0.0336  0.1492
 2316W        W 4516  11.525   2.819   5.256  0.2741  0.0015 -0.2640
 2317W        W 4517   7.348   4.508  14.117  0.0826  0.0523 -0.2830
 2318W        W 4518  10.757   2.127  10.756  0.0462 -0.0523  0.0585
 2319W        W 4519   0.214   1.979   6.425 -0.2211  0.0814 -0.0739
 2320W        W 4520  15.302   0.186   2.131  0.2116 -0.1595  0.0436
 2321W        W 4521  23.951   1.768  31.034  0.4295  0.0293 -0.3001
 2322W        W 4522   0.680   5.394  27.897 -0.0418 -0.0718  0.0692
 2323W        W 4523  17.715   2.170  10.135  0.0873  0.2209  0.2410
 2324W        W 4524   1.747   0.110  33.725 -0.2593  0.1993 -0.1745
 2325W        W 4525  12.184   6.186  21.032 -0.0986  0.0495  0.1241
 2326W        W 4526   1.218   2.349  31.209  0.1616 -0.0837  0.2026
 2327W        W 4527  23.189   0.834  30.846  0.2108 -0.1023 -0.0674
 2328W        W 4528  14.009   4.819   5.232  0.0790  0.0325  0.0212
 2329W        W 4529   0.030   5.857  32.532  0.0252 -0.1488 -0.1365
 2330W        W 4530   5.087   1.842  22.481  0.2615  0.0522  0.1924
 2331W        W 4531   3.885   2.209  11.658  0.0393 -0.0482  0.0815
 2332W        W 4532  22.183   0.757   8.595 -0.0865 -0.0309 -0.0396
 2333W        W 4533  22.325   1.828  25.035 -0.2444  0.2064 -0.0428
 2334W        W 4534   1.742   1.504  27.051  0.1439  0.0309  0.1137
 2335W        W 4535  11.088   6.283   8.091 -0.0769  0.0449 -0.3398
 2336W        W 4536   8.569   3.049   9.382  0.2426 -0.0338  0.0439
 2337W        W 4537  21.869   1.472  25.875  0.1948  0.1856 -0.0574
 2338W        W 4538  22.595   0.173  13.297 -0.0755 -0.0651  0.0247
 2339W        W 4539  13.668   4.397   1.530  0.0400 -0.0669  0.1894
 2340W        W 4540  11.946   5.462   4.492  0.1443  0.3419  0.0295
 2341W        W 4541   1.789   3.779   4.101 -0.2520 -0.2421 -0.1826
 2342W        W 4542   0.822   6.419   9.744  0.1161 -0.0223 -0.0166
 2343W        W 4543  24.408   1.850   4.843  0.3427 -0.1026  0.0222
 2344W        W 4544   3.699   4.204  34.157  0.2469  0.1204  0.0555
 2345W        W 4545   2.444   4.943   9.958 -0.0414 -0.0303 -0.0080
 2346W        W 4546  20.088   0.883  20.582 -0.0099  0.1860  0.1839
 2347W        W 4547  18.771   3.101  31.973  0.2550 -0.1078  0.1868
 2348W        W 4548   0.037   1.641   6.079  0.2677 -0.3829  0.2362
 2349W        W 4549  25.382   5.131  34.687  0.1854 -0.0870  0.1804
 2350W        W 4550   0.027   4.074   0.199 -0.2686 -0.1019  0.2690
 2351W        W 4551  26.156   1.053  24.733 -0.2517  0.0034 -0.4619
 2352W        W 4552  24.808   0.764  20.645  0.1795 -0.1646  0.2231
 2353W        W 4553  10.232   4.186   2.498 -0.0368  0.1215  0.2339
 2354W        W 4554  20.365   5.190  11.358  0.0260 -0.0724 -0.2627
 2355W        W 4555   6.746   3.421  34.893 -0.1101 -0.0469  0.3790
 2356W        W 4556  12.906   0.981   4.536 -0.0654  0.0174  0.2786
 2357W        W 4557   5.323   2.980  10.080 -0.0318 -0.2296  0.0102
 2358W        W 4558  19.763   1.416   6.907 -0.1629 -0.0212 -0.1012
 2359W        W 4559  25.783   5.094  34.930 -0.0319 -0.2089 -0.2061
 2360W        W 4560   1.457   5.061   6.763  0.0456 -0.1607  0.2727
 2361W        W 4561  17.660   2.507  12.840 -0.3576 -0.1694  0.0324
 2362W        W 4562   0.700   4.934  21.727 -0.2301  0.0228  0.1792
 2363W        W 4563   7.357   5.207   7.337  0.0344 -0.2887  0.1423
 2364W        W 4564  26.022   6.486   3.585  0.0245  0.2239  0.1227
 2365W        W 4565  15.539   4.938   0.589 -0.3159 -0.0257 -0.1944
 2366W        W 4566   8.156   5.624  25.401  0.1347  0.1252  0.4404
 2367W        W 4567   4.683   5.951  12.036  0.1219  0.0557 -0.3288
 2368W        W 4568  12.263   2.703  10.888 -0.0091  0.0360 -0.0041
 2369W        W 4569  14.719   6.471  27.980 -0.0747  0.1384 -0.0070
 2370W        W 4570  22.401   6.128  36.067  0.1549  0.1600 -0.0097
 2371W        W 4571   7.114   1.516  12.572 -0.1936  0.2408 -0.4060
 2372W        W 4572   5.023   1.488  29.506  0.0007  0.3098  0.1639
 2373W        W 4573   4.297   3.632  22.371  0.3571 -0.1067  0.0614
 2374W        W 4574  20.407   1.127  31.184  0.0456 -0.1192  0.1375
 2375W        W 4575  14.358   2.208  26.504  0.0107 -0.0188  0.3844
 2376W        W 4576   6.683   4.235  25.568 -0.2653  0.2998  0.2776
 2377W        W 4577  25.248   5.911  13.093  0.1419  0.0171  0.1446
 2378W        W 4578  25.772   3.413  27.983 -0.0022  0.1275 -0.0631
 2379W        W 4579   2.471   2.408  24.215  0.0468 -0.1944  0.3774
 2380W        W 4580  23.581   0.709  35.817  0.0271 -0.2359 -0.0835
 2381W        W 4581  16.633   5.542  15.206 -0.1453 -0.2957 -0.0625
 2382W        W 4582  13.064   2.926  33.753  0.0714  0.0243  0.0387
 2383W        W 4583   1.498   3.303   5.035 -0.0515  0.0517 -0.0673
 2384W        W 4584  16.361   3.031  33.782 -0.0861  0.1527 -0.0817
 2385W        W 4585   6.078   5.403   2.319  0.4764  0.2162 -0.0327
 2386W        W 4586  23.813   0.226   4.626  0.1328 -0.0855 -0.0103
 2387W        W 4587  14.399   4.636  30.298  0.0398  0.1464 -0.2701
 2388W        W 4588  14.624   5.846  25.577 -0.0983  0.1316 -0.0494
 2389W        W 4589  26.183   2.927  13.308 -0.1273  0.1198 -0.2798
 2390W        W 4590  21.787   1.772  13.997  0.0963  0.0524  0.3594
 2391W        W 4591  17.508   4.204  27.090  0.1644 -0.1461  0.0541
 2392W        W 4592  19.432   3.641   7.221 -0.1730  0.1780  0.0106
 2393W        W 4593  24.973   5.012  15.138 -0.2129  0.0886 -0.1089
 2394W        W 4594   9.397   0.191   8.664 -0.0210 -0.2261  0.1573
 2395W        W 4595  16.940   4.435   4.437  0.0557 -0.3938  0.0238
 2396W        W 4596  10.783   1.419  30.085 -0.2028 -0.0066 -0.0183
 2397W        W 4597  15.213   1.006  30.009 -0.2098 -0.1818 -0.2315
 2398W        W 4598   1.251   4.322  21.371  0.1222 -0.2379 -0.0188
 2399W        W 4599  10.191   3.122   0.606  0.0677 -0.0312  0.0586
 2400W        W 4600  26.112   1.959  28.517  0.1571  0.2108 -0.0643
 2401W        W 4601  20.078   1.129   2.651 -0.3032  0.0173  0.0877
 2402W        W 4602   9.203   3.959   4.497  0.0258  0.3775  0.1063
 2403W        W 4603   7.415   5.838   9.164 -0.0003  0.2114  0.1297
 2404W        W 4604   1.185   2.376  15.620 -0.1365  0.0107  0.1471
 2405W        W 4605  11.801   1.266  10.351 -0.3536  0.0254 -0.0965
 2406W        W 4606   8.477   3.730   2.920  0.2217 -0.1590  0.1231
 2407W        W 4607   4.163   3.548  32.246  0.0898 -0.0417  0.1014
 2408W        W 4608   4.012   5.545  25.803  0.2465  0.1439 -0.0515
 2409W        W 4609  24.395   1.667  24.615  0.1233 -0.0550 -0.0550
 2410W        W 4610  14.601   1.776   8.069 -0.0225 -0.2365 -0.0136
 2411W        W 4611  22.270   0.828   0.794 -0.0268  0.3263  0.2396
 2412W        W 4612   2.053   0.634  21.669  0.1085  0.1787  0.0046
 2413W        W 4613   7.079   1.185  35.907 -0.1164 -0.0724  0.2669
 2414W        W 4614  23.742   3.529  28.892  0.0682  0.0561  0.0718
 2415W        W 4615   1.691   6.127  13.561 -0.1901  0.0235  0.1941
 2416W        W 4616   9.011   5.702  23.759 -0.2144  0.0699 -0.0126
 2417W        W 4617  18.726   4.963  29.033 -0.3656 -0.0926 -0.1298
 2418W        W 4618  20.552   0.671  35.651  0.0644  0.3597  0.1167
 2419W        W 4619   8.554   5.536   3.978  0.0890  0.0374 -0.0175
 2420W        W 4620   1.569   1.612   5.388 -0.0063  0.1346  0.2521
 2421W        W 4621  15.348   4.561   0.916  0.0478  0.2417  0.1104
 2422W        W 4622  13.121   4.457   7.677  0.3084 -0.1592 -0.1630
 2423W        W 4623  25.621   1.443  11.350 -0.0907 -0.0177 -0.0585
 2424W        W 4624   3.794   5.735  12.154 -0.1805 -0.2116  0.3001
 2425W        W 4625  23.946   0.640  28.756 -0.1781 -0.0192  0.0600
 2426W        W 4626  21.286   5.662  29.120 -0.0959  0.0499 -0.0402
 2427W        W 4627  12.511   1.381   0.346  0.4147  0.0258 -0.0474
 2428W        W 4628  25.936   1.683  12.868  0.0368 -0.2075  0.0214
 2429W        W 4629   6.633   0.865  28.711 -0.0118  0.2039  0.1173
 2430W        W 4630  11.868   3.749   8.930  0.0504  0.0097 -0.0747
 2431W        W 4631   3.295   4.574  22.402  0.1107  0.1899  0.2462
 2432W        W 4632  10.261   1.703  23.757  0.4432 -0.1067  0.2718
 2433W        W 4633   3.362   2.872  11.362 -0.0557  0.1723  0.1064
 2434W        W 4634  23.585   2.816  28.447  0.2115  0.0705  0.1075
 2435W        W 4635  24.546   6.379  12.567  0.1241  0.0445 -0.0583
 2436W        W 4636   4.894   2.036  33.762  0.0705  0.0428  0.2358
 2437W        W 4637   2.522   4.058  12.938 -0.0493 -0.1567 -0.1224
 2438W        W 4638   9.264   4.716  23.806 -0.0009 -0.1009 -0.0232
 2439W        W 4639  22.052   5.764   0.928  0.1572 -0.0049  0.1007
 2440W        W 4640  14.656   2.564   6.983 -0.2780 -0.1281  0.0629
 2441W        W 4641  17.238   2.742   5.448  0.3908 -0.0838  0.1517
 2442W        W 4642  14.189   4.670   3.889  0.0161 -0.2440  0.0282
 2443W        W 4643   7.342   6.044  10.774  0.0049 -0.0763  0.0937
 2444W        W 4644   0.491   2.429  12.800  0.2477 -0.1003  0.3081
 2445W        W 4645  14.043   2.889  32.204 -0.0420  0.3739  0.1457
 2446W        W 4646  15.236   1.735   7.339  0.0603 -0.0721 -0.2216
 2447W        W 4647  23.650   6.026  34.842 -0.0585  0.2312  0.1799
 2448W        W 4648   3.432   5.289  15.912 -0.0850  0.0578 -0.0585
 2449W        W 4649  14.440   5.292  14.897  0.0735 -0.2952  0.0598
 2450W        W 4650  13.671   5.025  14.107  0.0774  0.1938 -0.2637
 2451W        W 4651  10.728   4.359   3.266 -0.1398 -0.0374  0.3089
 2452W        W 4652  19.491   2.517  34.556  0.0673  0.3205 -0.0210
 2453W        W 4653   9.554   3.335  28.694  0.3172  0.3828  0.1625
 2454W        W 4654   0.366   6.580   0.389 -0.1544 -0.2305 -0.0788
 2455W        W 4655   7.090   2.313  22.734 -0.2212 -0.1040  0.5341
 2456W        W 4656  17.778   1.422   7.891 -0.4122 -0.1242 -0.2110
 2457W        W 4657   9.440   4.614  28.239  0.1871 -0.1316 -0.2117
 2458W        W 4658   1.317   2.960  35.392  0.0769 -0.0760 -0.4690
 2459W        W 4659  24.229   1.880  14.631 -0.3085  0.0094 -0.1260
 2460W        W 4660   8.765   0.944   0.406 -0.1041 -0.1545  0.0453
 2461W        W 4661   5.073   5.003  13.840  0.0050 -0.0406 -0.0480
 2462W        W 4662  10.744   0.629  27.079  0.3724  0.1856 -0.2326
 2463W        W 4663  13.822   0.017  14.599  0.2121  0.0127 -0.1045
 2464W        W 4664  17.146   5.567  34.507  0.2035 -0.0813 -0.0314
 2465W        W 4665  25.737   1.213   7.953  0.3191 -0.1361 -0.0611
 2466W        W 4666  12.656   4.939   2.421 -0.1079 -0.0647 -0.0498
 2467W        W 4667   4.478   4.503  10.663 -0.1260  0.1947 -0.0551
 2468W        W 4668   1.403   3.843   9.414 -0.1415 -0.0228 -0.0243
 2469W        W 4669   7.512   3.559   3.766  0.0020 -0.0966 -0.0394
 2470W        W 4670  22.783   4.759  32.512 -0.1446  0.1084  0.2856
 2471W        W 4671   5.178   5.984  24.836  0.0358  0.3496 -0.0390
 2472W        W 4672   7.894   5.121  15.131  0.0506  0.0625  0.4748
 2473W        W 4673  23.458   5.299  28.538  0.0217  0.1328  0.1087
 2474W        W 4674   9.856   6.034  22.288 -0.0098 -0.1974  0.2082
 2475W        W 4675  24.240   2.199   6.599 -0.0124 -0.1509  0.0713
 2476W        W 4676  17.095   0.397   0.977 -0.1711  0.1068  0.0712
 2477W        W 4677   4.650   5.215  28.395  0.0649  0.0589  0.0293
 2478W        W 4678  17.002   0.524   5.355  0.0945 -0.0558 -0.2655
 2479W        W 4679  19.083   1.657  12.156 -0.2430  0.1848 -0.1131
 2480W        W 4680   1.395   5.842  15.303  0.2114 -0.0247  0.0492
 2481W        W 4681   4.354   4.083  24.244  0.2189  0.1850 -0.2612
 2482W        W 4682   3.478   0.863  32.729  0.1610  0.0441  0.0502
 2483W        W 4683  25.244   4.678  28.740  0.3337 -0.1101 -0.3645
 2484W        W 4684   7.208   2.253  29.983  0.0162  0.2997  0.4818
 2485W        W 4685   7.693   5.329  22.182 -0.1378  0.0479  0.0044
 2486W        W 4686  21.421   5.160  25.213  0.3549 -0.0458  0.2296
 2487W        W 4687  23.429   6.371   8.321  0.0612  0.1943  0.0449
 2488W        W 4688  12.244   5.666   4.854 -0.0925 -0.2834 -0.1570
 2489W        W 4689  16.960   6.335   2.372 -0.1886  0.0639 -0.1069
 2490W        W 4690  10.710   3.972   9.376  0.2379  0.1674  0.1207
 2491W        W 4691   9.937   6.558  31.006  0.0048  0.0195 -0.1643
 2492W        W 4692   6.048   4.559  23.988 -0.2355  0.2624  0.0289
 2493W        W 4693   4.852   4.912   2.732 -0.0245  0.0627  0.0002
 2494W        W 4694  20.113   3.657  23.178 -0.0342  0.1020  0.1327
 2495W        W 4695   4.329   1.591  12.482  0.1994 -0.1927 -0.2102
 2496W        W 4696   2.362   5.538  35.419  0.1018 -0.1177  0.3661
 2497W        W 4697  24.388   0.222   3.258 -0.1812  0.2790  0.2757
 2498W        W 4698  20.762   3.576  29.234 -0.2326 -0.1668 -0.1234
 2499W        W 4699   7.725   4.717   6.218 -0.0943 -0.1054  0.2085
 2500W        W 4700  13.515   4.678   0.457  0.1554 -0.1734  0.1049
 2501W        W 4701  22.729   6.170  20.957  0.1896 -0.2311  0.3515
 2502W        W 4702  21.024   4.219  13.017 -0.0937  0.1893  0.1343
 2503W        W 4703  12.249   6.555  33.298  0.1002  0.4937 -0.0376
 2504W        W 4704   0.877   2.733  28.014  0.2523  0.0818  0.2510
 2505W        W 4705  12.728   6.046  27.878  0.0728 -0.0110 -0.0357
 2506W        W 4706   4.776   5.401  26.395 -0.0750 -0.0461  0.2134
 2507W        W 4707  21.279   2.531  33.757  0.1293  0.2439  0.3194
 2508W        W 4708  19.256   1.532  23.819  0.1097 -0.0433  0.2444
 2509W        W 4709  24.054   3.609   6.763  0.3028  0.3463 -0.0196
 2510W        W 4710   5.778   5.073  13.109 -0.3044  0.1411 -0.2047
 2511W        W 4711   2.072   4.588  10.025 -0.0059  0.3018 -0.3805
 2512W        W 4712  16.134   2.672   6.463 -0.1825  0.0932  0.0215
 2513W        W 4713  14.672   2.624  23.541 -0.2639 -0.0148 -0.0558
 2514W        W 4714   0.716   2.581   8.935 -0.0092  0.0721 -0.3922
 2515W        W 4715  10.390   0.026  31.102 -0.2161 -0.0338  0.0260
 2516W        W 4716  20.271   1.353  11.782 -0.1601  0.0593  0.0605
 2517W        W 4717  17.176   2.463  21.297 -0.2093 -0.0580  0.1742
 2518W        W 4718  16.478   1.321   3.037  0.0097 -0.1074  0.0289
 2519W        W 4719  22.400   3.955   7.567 -0.1825 -0.0126  0.0657
 2520W        W 4720  12.927   4.033  32.327  0.1549  0.0463  0.0794
 2521W        W 4721  12.470   6.393  10.915  0.0251  0.0671 -0.0600
 2522W        W 4722   8.365   6.232  25.872  0.2144  0.2562  0.2890
 2523W        W 4723   0.756   0.669  28.338  0.1834 -0.1685 -0.1014
 2524W        W 4724   8.581   4.127  22.231 -0.0519 -0.1022 -0.2444
 2525W        W 4725   5.865   1.011  35.786 -0.0078  0.0099  0.0151
 2526W        W 4726   9.441   3.332  24.135  0.1973  0.0131 -0.1975
 2527W        W 4727  24.797   6.330  27.422 -0.2174 -0.0437  0.1230
 2528W        W 4728  11.037   2.946  34.593 -0.2668  0.4305  0.2015
 2529W        W 4729  13.878   6.149   9.756  0.0370 -0.2968 -0.0026
 2530W        W 4730  13.676   3.898  23.785 -0.0354 -0.0425 -0.0993
 2531W        W 4731  26.344   6.048  10.046  0.0847 -0.1276 -0.1173
 2532W        W 4732   2.138   5.977  30.129  0.0540  0.0158 -0.0238
 2533W        W 4733  11.402   2.832   2.930  0.1266  0.2390  0.0666
 2534W        W 4734  21.051   2.274   9.881  0.1859 -0.1335  0.1326
 2535W        W 4735  11.432   1.117  24.687  0.4800  0.0213  0.1626
 2536W        W 4736  26.359   3.351  33.719  0.1990  0.0660 -0.0615
 2537W        W 4737  14.971   0.490  11.643 -0.0433 -0.0675 -0.1467
 2538W        W 4738  24.368   2.749   7.917  0.0153  0.1997 -0.2278
 2539W        W 4739  12.261   6.502   7.033 -0.0239 -0.0485  0.1608
 2540W        W 4740  16.205   3.962  23.097  0.0294 -0.3231 -0.1662
 2541W        W 4741   5.196   2.575  27.625 -0.1931  0.3708 -0.0411
 2542W        W 4742   7.516   1.629  34.602 -0.0072 -0.0216 -0.0271
 2543W        W 4743  10.816   2.600  10.490 -0.3727  0.0926  0.0408
 2544W        W 4744  16.873   1.468   5.107  0.1342  0.1050  0.2273
 2545W        W 4745  24.321   2.748   2.690 -0.3450 -0.1472 -0.1276
 2546W        W 4746  25.749   1.812   6.679 -0.2873  0.0090 -0.1083
 2547W        W 4747  18.293   0.245   3.769 -0.0800  0.1590 -0.1645
 2548W        W 4748  25.470   3.695  15.308  0.0522  0.0717 -0.2780
 2549W        W 4749   1.795   0.335   8.514  0.0405 -0.1964 -0.0618
 2550W        W 4750  22.817   3.899  30.358  0.1190 -0.2337 -0.2137
 2551W        W 4751   1.292   0.468  30.446 -0.0512  0.0032 -0.0299
 2552W        W 4752  23.660   5.080   8.219  0.1274 -0.0665 -0.2215
 2553W        W 4753   3.541   3.062   1.864  0.2279  0.1406 -0.1767
 2554W        W 4754  21.364   4.688   1.173  0.2579  0.0982 -0.1222
 2555W        W 4755   2.276   3.529  28.625  0.4189 -0.1684  0.1406
 2556W        W 4756  23.069   4.498   3.372  0.4891 -0.0107  0.1203
 2557W        W 4757   5.615   0.561  34.262 -0.1723 -0.0167 -0.0594
 2558W        W 4758   0.108   4.648  22.465 -0.0787 -0.0045  0.0793
 2559W        W 4759  10.945   4.663  21.898  0.0768 -0.1932  0.2074
 2560W        W 4760   5.572   6.540  22.177  0.0554  0.0091 -0.0274
 2561W        W 4761  20.746   4.590  35.674 -0.0426  0.1407 -0.1528
 2562W        W 4762  12.516   2.918  21.290 -0.0741 -0.1905  0.0470
 2563W        W 4763  16.053   2.111  14.227 -0.0155 -0.0169  0.2719
 2564W        W 4764  23.095   1.417  20.914 -0.2057 -0.1100 -0.1836
 2565W        W 4765  17.776   2.714   1.973  0.0282 -0.0914 -0.2078
 2566W        W 4766  21.447   1.376   1.042  0.3015  0.1596 -0.1206
 2567W        W 4767  22.505   3.657  21.986 -0.2499  0.0812  0.0704
 2568W        W 4768  16.203   1.031  10.646 -0.0674 -0.2015  0.1054
 2569W        W 4769   4.260   4.520  32.174  0.1719  0.2219  0.1772
 2570W        W 4770  14.854   0.494  34.120  0.1241  0.2300 -0.0152
 2571W        W 4771  19.083   5.004   9.948 -0.0851  0.1427  0.0155
 2572W        W 4772   0.167   1.219  31.439 -0.0209  0.2016 -0.0110
 2573W        W 4773  11.019   1.412   7.863  0.0480 -0.0730  0.2918
 2574W        W 4774  18.371   6.189   9.380  0.1503 -0.0867  0.1251
 2575W        W 4775  22.834   1.282  27.734  0.0370  0.0588 -0.0781
 2576W        W 4776   2.276   5.751  24.653 -0.1975  0.1850  0.4887
 2577W        W 4777  17.146   2.648  30.968 -0.2161 -0.2265  0.0814
 2578W        W 4778   3.004   1.898   3.374  0.0953  0.2345  0.1911
 2579W        W 4779  25.691   3.914  31.526  0.2343  0.1585 -0.0347
 2580W        W 4780  24.787   3.845  20.836 -0.0994  0.0901 -0.0663
 2581W        W 4781   3.463   0.718  35.926 -0.1510  0.0837 -0.0277
 2582W        W 4782   9.916   5.905  34.487 -0.1205  0.2107 -0.2335
 2583W        W 4783  25.566   6.091  30.619  0.0730 -0.0602  0.1621
 2584W        W 4784   0.498   3.012   4.826  0.3303  0.0058  0.1476
 2585W        W 4785   8.887   0.102  12.333  0.3115 -0.1039  0.1970
 2586W        W 4786  23.069   4.859   8.566 -0.1529  0.0356 -0.2769
 2587W        W 4787  11.728   1.980  28.976 -0.1073  0.0053 -0.1353
 2588W        W 4788  13.638   0.072   3.525  0.1444  0.0392  0.0058
 2589W        W 4789   1.064   4.182  30.107 -0.1573 -0.2266  0.2151
 2590W        W 4790  20.083   5.020   8.961  0.2134 -0.0326  0.2379
 2591W        W 4791   8.013   0.865   1.377  0.4838 -0.0329 -0.3311
 2592W        W 4792   8.289   3.189   9.779 -0.1617  0.1227  0.0428
 2593W        W 4793   0.734   3.255  10.506  0.1707  0.1788  0.1231
 2594W        W 4794   5.026   5.763  21.991 -0.0087 -0.0570  0.2404
 2595W        W 4795  11.893   3.685  14.118  0.0454 -0.0843 -0.1578
 2596W        W 4796   6.665   0.522  26.252  0.2667  0.1935 -0.1146
 2597W        W 4797  14.868   3.674  10.793  0.0315 -0.3880  0.0333
 2598W        W 4798  13.547   0.555   0.686  0.3694  0.0136 -0.0452
 2599W        W 4799  19.760   0.082   4.480 -0.1777 -0.0592  0.0681
 2600W        W 4800  11.270   1.575  13.473 -0.1708  0.3018 -0.1778
 2601W        W 4801  17.590   0.012  10.907 -0.1888 -0.0946 -0.1960
 2602W        W 4802  18.589   0.334  11.630  0.1632 -0.0306  0.1134
 2603W        W 4803  16.253   4.068  23.582 -0.1908 -0.0415  0.0184
 2604W        W 4804  13.758   2.701  30.408 -0.1928 -0.2027  0.1545
 2605W        W 4805  24.771   1.040  33.709  0.1505 -0.1726 -0.2398
 2606W        W 4806   3.841   2.718  33.283 -0.2921 -0.0036 -0.1172
 2607W        W 4807  20.672   1.099  24.900  0.4582  0.1715 -0.2893
 2608W        W 4808  15.852   1.461   4.202 -0.0014 -0.1996  0.4160
 2609W        W 4809   3.647   0.140   0.593 -0.0548  0.0553 -0.1402
 2610W        W 4810  26.195   3.793  11.683  0.0331  0.0956  0.0806
 2611W        W 4811  19.460   0.456  31.029  0.0992 -0.0335 -0.2284
 2612W        W 4812  25.212   2.103   0.169  0.1090 -0.0857 -0.0138
 2613W        W 4813  16.019   1.288  14.098 -0.1359  0.1884 -0.1275
 2614W        W 4814  12.825   0.592  34.984  0.1183 -0.0503 -0.0162
 2615W        W 4815  25.245   4.763  22.386  0.0884 -0.0112  0.1507
 2616W        W 4816  17.427   3.764   1.971 -0.0860  0.1416  0.0697
 2617W        W 4817  12.845   3.683   0.237  0.2401  0.0698 -0.0255
 2618W        W 4818  18.461   0.718  12.287 -0.0715 -0.2512  0.3901
 2619W        W 4819  20.520   0.781  20.320 -0.2625 -0.0674  0.2010
 2620W        W 4820  16.901   3.270  34.970 -0.3444 -0.1105 -0.0218
 2621W        W 4821  22.042   0.689  29.033 -0.0651 -0.1534  0.0444
 2622W        W 4822   1.697   1.893   4.028  0.0101  0.1009 -0.0856
 2623W        W 4823  18.908   0.486  34.969 -0.2621 -0.1093 -0.1940
 2624W        W 4824  13.199   4.726  28.023 -0.3370 -0.2230 -0.1007
 2625W        W 4825   2.880   2.460  28.720  0.1628  0.1240  0.1188
 2626W        W 4826  23.992   5.277  25.174 -0.0074 -0.0515  0.0165
 2627W        W 4827   9.855   2.611  27.017 -0.0388 -0.2718 -0.1361
 2628W        W 4828  21.115   6.318  34.626  0.0517  0.1197 -0.0298
 2629W        W 4829   7.699   4.302  27.538 -0.0680 -0.1197 -0.3229
 2630W        W 4830   4.072   4.966  25.888  0.3853  0.2406  0.2978
 2631W        W 4831   3.593   2.393   6.274  0.0934 -0.0902 -0.3798
 2632W        W 4832  17.201   3.633  11.175 -0.0450 -0.0196 -0.0338
 2633W        W 4833  24.361   1.111  34.076  0.1289  0.2213  0.0783
 2634W        W 4834  21.611   4.865  24.190  0.3129  0.0231 -0.1946
 2635W        W 4835  15.615   5.561   3.911  0.1352 -0.0479 -0.0884
 2636W        W 4836   5.447   0.368  25.233  0.1071 -0.1843  0.0353
 2637W        W 4837   4.410   2.236  10.342  0.0197  0.0221  0.0269
 2638W        W 4838   2.665   5.099   9.471 -0.1425 -0.0005 -0.0712
 2639W        W 4839  10.423   1.655   8.691 -0.0158 -0.0609  0.1802
 2640W        W 4840   7.834   6.069  23.195 -0.1055  0.0815 -0.0702
 2641W        W 4841   3.819   0.125  25.630  0.1157  0.3272  0.1158
 2642W        W 4842  24.294   1.247   8.164 -0.0270  0.0195  0.1053
 2643W        W 4843  13.374   1.229   8.044  0.1746 -0.0791 -0.0568
 2644W        W 4844   6.002   5.239  32.261  0.2502  0.0838  0.1331
 2645W        W 4845  15.096   0.637  12.811 -0.1561 -0.1759  0.2855
 2646W        W 4846   1.849   2.490  25.717  0.1429 -0.0212  0.2585
 2647W        W 4847  12.021   1.860  27.561  0.0335  0.1739  0.0558
 2648W        W 4848  11.177   0.808  27.323 -0.1311  0.1614 -0.1440
 2649W        W 4849  18.251   1.413  22.513  0.1504  0.0702 -0.0287
 2650W        W 4850  24.306   0.571  29.139 -0.2006 -0.1738 -0.2188
 2651W        W 4851  13.821   6.038  29.940  0.0364 -0.0097 -0.1547
 2652W        W 4852  16.722   6.139  30.995  0.0698  0.1018 -0.0031
 2653W        W 4853   8.201   0.121  14.656  0.3037  0.2640  0.2349
 2654W        W 4854   8.224   3.714  22.196 -0.0177 -0.0580  0.3137
 2655W        W 4855  19.009   5.796  21.834 -0.0877  0.0913 -0.1804
 2656W        W 4856  10.597   3.957  29.587  0.1034 -0.0476 -0.3283
 2657W        W 4857  12.361   4.624  28.596  0.0391 -0.1924 -0.2162
 2658W        W 4858  22.526   1.645  23.515  0.1270 -0.2587  0.0876
 2659W        W 4859  21.004   2.399  10.569 -0.0231 -0.0533 -0.3169
 2660W        W 4860   3.704   4.056   5.711 -0.1606 -0.0501 -0.2096
 2661W        W 4861   3.640   0.678  23.845 -0.1444 -0.0081  0.2364
 2662W        W 4862  12.983   5.677  31.815  0.3037 -0.0388  0.1896
 2663W        W 4863   9.285   4.894  11.187  0.1978 -0.3330  0.1671
 2664W        W 4864  23.807   6.403   1.524 -0.2237  0.1025  0.0702
 2665W        W 4865  22.478   3.477  24.086  0.1264 -0.1957  0.1333
 2666W        W 4866   3.957   2.445   5.018 -0.0891  0.2668 -0.0755
 2667W        W 4867   7.419   5.748  32.928 -0.1421 -0.1553  0.1984
 2668W        W 4868  21.507   0.493  26.022 -0.0569 -0.1889  0.2538
 2669W        W 4869  21.055   6.091  22.662  0.1262  0.1642 -0.2527
 2670W        W 4870  10.829   1.358   8.371 -0.0633  0.1531 -0.3726
 2671W        W 4871   1.232   0.090   3.977 -0.1651 -0.0432 -0.2572
 2672W        W 4872  19.745   2.349  33.233  0.0969 -0.0720  0.1948
 2673W        W 4873  14.764   6.328  14.896 -0.1419 -0.2765 -0.1157
 2674W        W 4874  16.989   2.579  34.532  0.0083  0.0333  0.1262
 2675W        W 4875  11.197   3.020  14.383 -0.2272 -0.0995  0.0618
 2676W        W 4876  14.449   6.443  29.508  0.2125  0.3038 -0.0287
 2677W        W 4877  16.645   2.894  34.155 -0.0612 -0.2111 -0.2546
 2678W        W 4878  25.860   4.219  24.636 -0.1260  0.0374 -0.1047
 2679W        W 4879   9.549   0.088  13.845  0.1413  0.5031 -0.0617
 2680W        W 4880  17.688   2.544   8.514  0.0502 -0.0839  0.1053
 2681W        W 4881   7.218   4.530   2.211  0.0182  0.1231  0.0210
 2682W        W 4882  22.639   4.339   9.700  0.0437 -0.1412  0.2948
 2683W        W 4883   4.510   2.506   8.140 -0.2339  0.1287 -0.1533
 2684W        W 4884  17.157   0.703  12.042 -0.0926 -0.2267  0.1865
 2685W        W 4885  10.011   4.063  27.037  0.2203  0.0013 -0.0570
 2686W        W 4886  11.004   2.883  23.044 -0.0664  0.0231 -0.1720
 2687W        W 4887   3.165   3.591  12.954  0.1539  0.2012  0.0686
 2688W        W 4888   4.201   0.947  28.149 -0.0336  0.0912 -0.0343
 2689W        W 4889  17.846   2.237  25.235 -0.0016  0.0587 -0.0025
 2690W        W 4890   2.395   5.840  27.359 -0.1556 -0.3732  0.1657
 2691W        W 4891   6.229   0.297  26.349  0.0028  0.0457 -0.1790
 2692W        W 4892   9.287   6.016   2.481 -0.1155 -0.0903 -0.2034
 2693W        W 4893   2.535   0.199   5.889  0.0500 -0.0290  0.1081
 2694W        W 4894  24.616   2.370   4.788  0.0084 -0.1268 -0.1723
 2695W        W 4895   0.400   4.721  23.266  0.0111  0.1720  0.0273
 2696W        W 4896  12.327   6.437   2.083  0.1909  0.2112  0.0694
 2697W        W 4897  22.186   1.719  26.158  0.0023 -0.1812 -0.0671
 2698W        W 4898  12.577   0.783  24.769  0.1503 -0.1796 -0.0420
 2699W        W 4899  24.924   6.570   2.258 -0.1317 -0.0543  0.0858
 2700W        W 4900   3.496   5.911  22.934  0.3476 -0.0313 -0.0464
 2701W        W 4901  17.485   3.699  27.553  0.0698  0.2247  0.3263
 2702W        W 4902  11.594   3.248  33.936  0.0552  0.0298 -0.1876
 2703W        W 4903  21.286   0.948  23.289  0.4298 -0.1597  0.3082
 2704W        W 4904   3.629   1.639   6.559  0.2364 -0.1274 -0.1577
 2705W        W 4905   5.603   3.157  23.034 -0.1570 -0.0694  0.2335
 2706W        W 4906  14.841   0.771  29.008  0.0010  0.0962 -0.2806
 2707W        W 4907   7.154   0.109   8.597  0.1595 -0.0852 -0.0686
 2708W        W 4908  13.633   5.962  22.944 -0.2203  0.0955  0.0395
 2709W        W 4909  24.207   5.738   3.154 -0.2508 -0.0199  0.1806
 2710W        W 4910   7.549   4.595  22.741  0.0663 -0.0109 -0.0004
 2711W        W 4911  21.881   4.420  32.211 -0.1260 -0.0733 -0.0882
 2712W        W 4912   7.983   3.001  27.434  0.2059 -0.1039 -0.0505
 2713W        W 4913  15.012   5.449  10.754  0.1710 -0.2604 -0.2880
 2714W        W 4914   1.929   3.632  23.958 -0.0427 -0.2149 -0.0818
 2715W        W 4915  25.042   5.407  25.897  0.1198  0.0879 -0.1647
 2716W        W 4916   8.369   2.998  13.855 -0.2599 -0.1526  0.1018
 2717W        W 4917  20.281   3.782  26.436  0.2727 -0.1073  0.0074
 2718W        W 4918  12.109   3.811   9.393 -0.1895 -0.4114 -0.0387
 2719W        W 4919  26.155   0.968  20.487  0.1595 -0.0007  0.0070
 2720W        W 4920   1.930   5.380  34.660  0.0098 -0.0020  0.6075
 2721W        W 4921  24.707   2.711  11.137  0.2587 -0.4108 -0.1536
 2722W        W 4922  17.833   3.110  35.208 -0.1324 -0.1657 -0.0434
 2723W        W 4923  15.788   5.391  13.127 -0.1715 -0.2130 -0.0391
 2724W        W 4924  16.949   6.303  30.139 -0.1369 -0.0218 -0.4136
 2725W        W 4925  20.175   4.113  33.389 -0.1353 -0.1389  0.0879
 2726W        W 4926   1.577   2.589   4.562  0.1847  0.0562 -0.1095
 2727W        W 4927  21.652   3.172   7.284 -0.2891 -0.1557  0.1995
 2728W        W 4928   0.088   2.888  28.046 -0.0012  0.0520  0.1356
 2729W        W 4929   0.077   2.355   5.455 -0.0777 -0.0770  0.0987
 2730W        W 4930   9.865   3.524  23.118 -0.3019  0.1698  0.2260
 2731W        W 4931  26.001   6.482  13.554  0.2786 -0.0118  0.2962
 2732W        W 4932  15.237   4.995  25.572  0.3760 -0.1406  0.2144
 2733W        W 4933  22.700   5.859  11.437 -0.0637  0.3583 -0.0171
 2734W        W 4934  12.015   0.538   2.642  0.4416  0.0000  0.1866
 2735W        W 4935  15.791   0.184   8.578  0.0255 -0.2288 -0.0221
 2736W        W 4936  13.170   2.673  27.999  0.1231  0.1277  0.1679
 2737W        W 4937  14.373   6.512  34.719 -0.2348  0.0112 -0.1479
 2738W        W 4938  19.921   6.255  29.510  0.0114 -0.0999 -0.0428
 2739W        W 4939   5.968   2.433  29.387  0.1781 -0.2036 -0.1898
 2740W        W 4940  21.522   0.243  33.383  0.0892 -0.1446  0.3676
 2741W        W 4941   0.240   1.448   5.270  0.0458  0.0288  0.0353
 2742W        W 4942   4.604   2.824  11.047  0.1349 -0.2008 -0.2589
 2743W        W 4943  12.706   4.078  33.655  0.1788 -0.1858 -0.1300
 2744W        W 4944   5.978   5.944  34.839  0.2335 -0.1275 -0.3249
 2745W        W 4945   4.648   0.935  14.684 -0.1850  0.2285 -0.0742
 2746W        W 4946   8.355   0.990  14.243 -0.1090 -0.1690  0.1724
 2747W        W 4947  10.901   5.449  23.015  0.3343  0.0608  0.1939
 2748W        W 4948  23.591   2.499  21.694  0.1618  0.0560  0.0766
 2749W        W 4949   2.361   0.644  25.837 -0.0080 -0.0949 -0.3077
 2750W        W 4950  25.685   1.097  10.016  0.1608  0.1640 -0.1083
 2751W        W 4951  26.237   2.670  20.863 -0.0063 -0.0685 -0.0722
 2752W        W 4952  20.139   5.012  32.457  0.1201 -0.1138  0.0699
 2753W        W 4953  19.391   4.350  35.503  0.1953  0.0932 -0.3431
 2754W        W 4954   5.012   4.740  20.933 -0.1546  0.3020  0.0214
 2755W        W 4955  21.293   1.261  24.197 -0.0950 -0.0510  0.2698
 2756W        W 4956   5.372   2.798  35.195 -0.2252  0.0138 -0.1472
 2757W        W 4957  17.996   0.017  22.242 -0.2136 -0.0256  0.0332
 2758W        W 4958   5.679   2.333  27.918 -0.2665  0.1971  0.3116
 2759W        W 4959  25.349   1.627  22.292  0.0894 -0.1747 -0.1034
 2760W        W 4960   2.493   4.752  29.010  0.2862 -0.2139  0.1475
 2761W        W 4961   6.674   5.855  34.021 -0.0784  0.3083  0.2262
 2762W        W 4962  13.908   2.621  21.187  0.0095 -0.2868  0.0312
 2763W        W 4963  25.069   5.614  21.419  0.2071  0.2538  0.2559
 2764W        W 4964  17.801   0.545  26.491 -0.3158  0.2386 -0.1899
 2765W        W 4965   1.117   1.232   3.991  0.2518  0.1187  0.0514
 2766W        W 4966  22.725   6.165  14.959 -0.0480  0.1236 -0.1658
 2767W        W 4967  13.003   5.785  12.093 -0.1463 -0.1437 -0.1999
 2768W        W 4968   3.916   5.420  13.971 -0.2118  0.1060 -0.0530
 2769W        W 4969   0.872   0.304  31.696  0.0375  0.3436 -0.0645
 2770W        W 4970   0.096   5.087   6.712 -0.0187 -0.1401 -0.0472
 2771W        W 4971  16.856   1.457  24.784 -0.0663 -0.2234  0.0719
 2772W        W 4972   1.507   3.748  31.110  0.0189 -0.0252  0.0638
 2773W        W 4973  23.746   2.148  33.106 -0.3022 -0.0716  0.1151
 2774W        W 4974  20.597   6.600  25.685 -0.1669  0.1714 -0.0624
 2775W        W 4975  11.735   1.646   4.998  0.0561 -0.1739 -0.0818
 2776W        W 4976  12.505   0.632  26.612  0.0915  0.1767 -0.2771
 2777W        W 4977  11.486   0.645   4.304  0.1646  0.0349 -0.0599
 2778W        W 4978  18.705   2.061  26.804  0.2379 -0.1763  0.1946
 2779W        W 4979  22.782   1.798  10.715  0.1510 -0.2103 -0.3544
 2780W        W 4980  19.832   3.360  25.964 -0.1975  0.4799  0.3688
 2781W        W 4981   0.976   1.306  29.956  0.1668  0.2230 -0.1666
 2782W        W 4982   2.740   0.979  14.430 -0.0379  0.1060 -0.5086
 2783W        W 4983  10.812   0.151  22.875  0.2557 -0.1974 -0.2518
 2784W        W 4984  24.902   4.907  29.038  0.1734  0.2547 -0.0349
 2785W        W 4985  24.317   3.120  19.772 -0.1576  0.0695 -0.2656
 2786W        W 4986   0.145   4.536  21.229 -0.1058 -0.0919  0.2596
 2787W        W 4987  21.307   4.785  13.570  0.0355  0.1441 -0.1420
 2788W        W 4988  11.657   4.884  15.039  0.1509  0.0934 -0.0878
 2789W        W 4989  20.521   2.888  23.092 -0.0945 -0.0181  0.0793
 2790W        W 4990  23.978   2.025  30.218  0.1437 -0.3498 -0.1147
 2791W        W 4991  21.458   0.173   4.268 -0.2389 -0.0975 -0.3464
 2792W        W 4992  12.004   0.329   1.975  0.1357  0.0296 -0.2571
 2793W        W 4993  11.210   3.569   5.990  0.1398 -0.0156 -0.2287
 2794W        W 4994  20.944   2.776  34.445  0.0380 -0.1147 -0.1133
 2795W        W 4995   3.822   6.138  35.408 -0.0047  0.0731  0.0157
 2796W        W 4996  11.898   5.264  11.001  0.0506 -0.0166  0.2381
 2797W        W 4997  14.922   6.506  15.370 -0.1328  0.0090  0.3130
 2798W        W 4998  26.093   2.016   0.964  0.2159 -0.2660 -0.0914
 2799W        W 4999  23.734   0.755   4.443  0.0515  0.2198 -0.0236
 2800W        W 5000  16.868   6.538  35.407  0.2697  0.1962  0.0002
 2801W        W 5001  18.735   6.407  33.026 -0.1096  0.0880 -0.1640
 2802W        W 5002   0.707   6.461  35.158 -0.0366 -0.1101 -0.3814
 2803W        W 5003  22.257   6.567  12.958 -0.2102 -0.1457  0.0579
 2804W        W 5004  15.937   1.523  25.908 -0.0649  0.1014  0.1931
 2805W        W 5005  10.887   5.410   3.084 -0.2315 -0.2432  0.0835
 2806W        W 5006   2.243   4.169  12.123  0.0012 -0.2567  0.2813
 2807W        W 5007  22.593   4.030   0.731  0.0402 -0.0537  0.0492
 2808W        W 5008   2.467   0.740   6.162 -0.0971 -0.0095 -0.0593
 2809W        W 5009  21.593   6.166   1.646  0.3525  0.2501  0.1608
 2810W        W 5010   7.702   2.534  33.691 -0.1063  0.1028 -0.0284
 2811W        W 5011   5.537   2.074  10.428  0.0292  0.1440 -0.3050
 2812W        W 5012  18.567   6.191   4.308 -0.2248 -0.2836  0.1772
 2813W        W 5013   3.484   1.244  13.986  0.1123 -0.0834  0.0340
 2814W        W 5014  13.128   4.062   7.975 -0.1820 -0.0375 -0.0442
 2815W        W 5015  25.000   3.875  25.034 -0.6582  0.1860  0.2544
 2816W        W 5016   8.369   6.039  34.581  0.0034  0.1984  0.2327
 2817W        W 5017  12.980   3.787  15.363 -0.0461 -0.0272 -0.1743
 2818W        W 5018   1.495   3.830   5.956 -0.1844  0.2042 -0.0567
 2819W        W 5019   2.542   6.534  13.462  0.0063 -0.0964 -0.1279
 2820W        W 5020  10.312   6.183  29.530 -0.1210 -0.0662 -0.0911
 2821W        W 5021  14.277   0.994  22.749 -0.3721  0.2165 -0.1963
 2822W        W 5022  24.770   0.562  33.882  0.0608 -0.0377 -0.0350
 2823W        W 5023  22.875   1.383  10.373  0.0103  0.0819  0.3241
 2824W        W 5024  24.640   1.436   9.576 -0.0701 -0.0495 -0.0849
 2825W        W 5025   0.887   5.630  32.786 -0.2977 -0.0897  0.1396
 2826W        W 5026  15.416   5.938  31.973  0.1742  0.0616 -0.4083
 2827W        W 5027  10.901   2.892  26.011 -0.4850 -0.0729  0.1154
 2828W        W 5028  17.263   4.359  13.666  0.2409 -0.0201 -0.1101
 2829W        W 5029   9.602   4.776  29.838  0.2964  0.4964 -0.1637
 2830W        W 5030   7.162   5.051  27.120  0.1340  0.0373 -0.3003
 2831W        W 5031  18.032   0.251  29.230  0.1637  0.0909 -0.1006
 2832W        W 5032  21.148   0.731  11.272 -0.3384  0.1795 -0.1533
 2833W        W 5033  17.903   6.088  12.641 -0.0812 -0.1856  0.1496
 2834W        W 5034   7.249   3.210   2.915 -0.0907  0.0902 -0.1736
 2835W        W 5035  17.188   0.365   6.625 -0.1061 -0.0206 -0.2198
 2836W        W 5036   7.764   5.063   7.051  0.0977  0.1718  0.0021
 2837W        W 5037  21.405   3.674  11.942  0.1695 -0.1074  0.1665
 2838W        W 5038   8.419   2.961   6.206 -0.2342  0.0620  0.0854
 2839W        W 5039  19.664   1.429  33.673 -0.3354 -0.0606  0.2643
 2840W        W 5040  23.175   4.193  23.128 -0.2927 -0.0081  0.3092
 2841W        W 5041  20.037   2.278  20.460 -0.2119 -0.0021 -0.1302
 2842W        W 5042  21.299   6.402  12.505  0.1596  0.0568 -0.2944
 2843W        W 5043  16.939   0.672   3.852  0.1034  0.2670 -0.0707
 2844W        W 5044   6.793   1.289  15.461 -0.0199 -0.1492  0.1244
 2845W        W 5045  16.577   0.614  12.314  0.2039 -0.0715 -0.0897
 2846W        W 5046  12.714   1.533  14.530  0.1743 -0.1831 -0.2201
 2847W        W 5047   0.783   1.733  26.747 -0.1789 -0.0324 -0.0799
 2848W        W 5048  15.944   1.983  30.574  0.1547  0.0857 -0.0446
 2849W        W 5049  18.996   5.132   2.796  0.0192 -0.0896  0.1923
 2850W        W 5050   9.432   3.497   0.483 -0.0207  0.2076  0.0520
 2851W        W 5051  23.193   0.575   5.584 -0.4267 -0.2948  0.2062
 2852W        W 5052  11.051   4.563   9.411  0.2594  0.2032 -0.2616
 2853W        W 5053   4.852   1.018   1.415 -0.1003  0.0800  0.1699
 2854W        W 5054   1.999   2.218  21.374 -0.2008 -0.0019  0.0981
 2855W        W 5055  16.955   6.032  28.454  0.2750  0.2323 -0.3513
 2856W        W 5056   6.563   0.195  13.887 -0.0765  0.0239 -0.1678
 2857W        W 5057  10.954   0.650  28.793 -0.3532  0.0148  0.1827
 2858W        W 5058  24.075   1.076  13.782  0.2881 -0.2151  0.2599
 2859W        W 5059   8.585   1.212  15.450  0.2536  0.2255  0.2800
 2860W        W 5060   3.386   0.341  12.937  0.2818 -0.0981 -0.0965
 2861W        W 5061  12.158   5.412  24.125  0.1516  0.0869  0.1746
 2862W        W 5062   7.704   2.902  28.784  0.0652  0.0988  0.1146
 2863W        W 5063  12.476   0.174  21.692  0.1312 -0.1562  0.0856
 2864W        W 5064  17.268   4.703  23.606 -0.3012 -0.0489 -0.3774
 2865W        W 5065   9.945   2.878  10.960  0.1642 -0.2103 -0.2045
 2866W        W 5066  15.062   1.959  13.301  0.0625 -0.0637 -0.0799
 2867W        W 5067  21.502   1.510  22.478  0.0329 -0.1698  0.2414
 2868W        W 5068   4.072   3.872  10.126 -0.4527 -0.0949  0.0329
 2869W        W 5069   6.135   2.003  12.333 -0.0209  0.1742 -0.2596
 2870W        W 5070  19.609   1.153  10.973 -0.2024 -0.3789  0.0264
 2871W        W 5071  14.480   4.516  11.804  0.0096 -0.2507 -0.2460
 2872W        W 5072  11.887   0.830   5.544  0.2187  0.0906  0.0744
 2873W        W 5073   4.161   0.776  10.700  0.1345  0.2260 -0.1526
 2874W        W 5074  14.840   2.030   4.799  0.1137 -0.0830 -0.0363
 2875W        W 5075   7.160   5.234  26.673 -0.0745 -0.0240 -0.0880
 2876W        W 5076   8.962   1.548   4.274 -0.1849  0.4162  0.0096
 2877W        W 5077  24.502   1.657  31.169 -0.0421 -0.0581  0.5416
 2878W        W 5078  26.226   0.315  23.157 -0.1449  0.0364 -0.0698
 2879W        W 5079   9.695   5.728  23.241 -0.2016  0.0143  0.1257
 2880W        W 5080  11.590   2.593  22.926 -0.0481 -0.0838 -0.0032
 2881W        W 5081  11.912   4.062  12.846  0.0814  0.1405  0.1802
 2882W        W 5082   9.562   2.397  34.234  0.0082  0.0517  0.0593
 2883W        W 5083   3.806   4.388   6.636 -0.0435 -0.0615 -0.1398
 2884W        W 5084   7.444   1.420   5.917  0.2179 -0.1028 -0.1282
 2885W        W 5085  11.898   3.464  35.295 -0.0237  0.1772  0.2313
 2886W        W 5086  18.421   2.885  30.795  0.2892  0.3292  0.0922
 2887W        W 5087  10.579   2.194  12.253 -0.0398 -0.2466 -0.2686
 2888W        W 5088  24.302   1.318  25.347 -0.2160  0.0849  0.1082
 2889W        W 5089  12.418   1.173  29.901  0.0289  0.2768 -0.1909
 2890W        W 5090  25.169   1.218   6.744  0.2121 -0.2217  0.0544
 2891W        W 5091  17.901   4.933  28.696 -0.0655  0.1673 -0.0960
 2892W        W 5092  16.771   3.513   2.010  0.2135  0.0176 -0.2102
 2893W        W 5093  12.414   3.336   4.665  0.1651 -0.3285  0.2092
 2894W        W 5094   5.841   3.211  13.981  0.2327 -0.2074 -0.0459
 2895W        W 5095  22.151   0.271  11.315 -0.3109 -0.3410 -0.3120
 2896W        W 5096  12.735   3.304  21.807 -0.3838  0.1860 -0.2154
 2897W        W 5097  26.081   0.532  12.894  0.1416  0.1913 -0.0611
 2898W        W 5098  17.406   1.328  28.623  0.1331 -0.2265  0.1136
 2899W        W 5099  20.929   5.959   4.135 -0.0903  0.3584  0.2467
 2900W        W 5100   8.289   0.486  31.654  0.0663  0.1418  0.1449
 2901W        W 5101  11.194   5.090   0.892  0.5087 -0.1009 -0.1672
 2902W        W 5102  20.048   2.351   7.708  0.0147  0.4232 -0.1238
 2903W        W 5103   6.042   0.923  24.939  0.0113 -0.0010 -0.2049
 2904W        W 5104  13.786   2.581   6.823 -0.1385  0.0955 -0.1619
 2905W        W 5105   2.449   4.668   8.149  0.4146  0.1661 -0.1757
 2906W        W 5106   7.853   0.038  34.085 -0.0016  0.0117  0.0573
 2907W        W 5107   9.839   1.126  33.155 -0.1577 -0.2216  0.1092
 2908W        W 5108   8.914   2.968  28.695  0.1056  0.2805  0.0537
 2909W        W 5109   8.795   2.057   2.592  0.0829  0.1058 -0.0588
 2910W        W 5110  24.088   0.347  33.213  0.0721 -0.0983 -0.2381
 2911W        W 5111  13.714   1.103  32.393  0.2351 -0.3293  0.0037
 2912W        W 5112   9.312   5.439  22.319 -0.1767  0.2754  0.0015
 2913W        W 5113  11.700   2.464   1.570  0.1655 -0.2139  0.0191
 2914W        W 5114  17.542   2.625  25.107  0.2144  0.0012  0.2171
 2915W        W 5115   5.175   6.318  25.652  0.2886 -0.0521 -0.1448
 2916W        W 5116  16.738   1.064  22.679  0.2786 -0.1784 -0.1640
 2917W        W 5117   9.656   0.355   2.966  0.0315  0.1315 -0.4094
 2918W        W 5118   6.409   5.381   9.970  0.2774 -0.1896  0.1675
 2919W        W 5119  16.624   6.484  14.465  0.1586  0.1696  0.1710
 2920W        W 5120  22.447   1.904   6.097  0.0888 -0.3908  0.0948
 2921W        W 5121   3.780   4.327   8.419  0.1634  0.0893  0.0131
 2922W        W 5122  17.261   2.702  30.444  0.1110 -0.1526 -0.2063
 2923W        W 5123   4.152   1.516   2.501 -0.1426 -0.1461  0.3672
 2924W        W 5124   2.895   5.073  21.235  0.0591  0.0425 -0.1866
 2925W        W 5125  12.504   1.958  27.456  0.2179  0.1564  0.1310
 2926W        W 5126  17.786   0.818   5.766  0.2113  0.2883 -0.1176
 2927W        W 5127   0.254   5.258  24.400  0.1516  0.0222 -0.1320
 2928W        W 5128   6.566   1.224  23.685 -0.0576 -0.0499 -0.4182
 2929W        W 5129  15.124   5.602   5.487  0.1386  0.0475 -0.0218
 2930W        W 5130   0.994   6.133  26.063 -0.1482  0.1434  0.2407
 2931W        W 5131   4.428   6.291  23.754 -0.2614 -0.1088  0.1930
 2932W        W 5132  15.739   2.333  26.266 -0.0639  0.0325  0.4004
 2933W        W 5133   7.794   3.864   9.246 -0.2113 -0.1758  0.0980
 2934W        W 5134  20.403   1.881   0.076  0.2694  0.0602  0.1217
 2935W        W 5135   2.555   2.288  16.001  0.1693 -0.2966 -0.1340
 2936W        W 5136   7.302   4.476  26.185  0.0439  0.0037 -0.0808
 2937W        W 5137  15.257   4.131   5.692  0.1474  0.0955 -0.0165
 2938W        W 5138   0.756   3.374  32.337  0.0814 -0.1028  0.0449
 2939W        W 5139  12.613   6.508  26.870 -0.0907 -0.0775 -0.0467
 2940W        W 5140  20.228   6.326   5.181  0.0407  0.0344  0.1646
 2941W        W 5141   2.976   0.899  22.463  0.1617 -0.1197  0.2080
 2942W        W 5142   5.349   6.323  34.376  0.1200 -0.0084 -0.1896
 2943W        W 5143  14.617   3.827  35.665  0.0190 -0.2147  0.2910
 2944W        W 5144   6.762   5.827  12.212  0.1615  0.1006 -0.0491
 2945W        W 5145  19.262   3.280   5.677 -0.0754  0.0123 -0.1825
 2946W        W 5146  25.929   3.406  12.765 -0.0715  0.0303  0.0982
 2947W        W 5147   6.339   5.303  23.880  0.4913 -0.1200 -0.0012
 2948W        W 5148  12.030   4.993  12.829 -0.1889 -0.1101  0.0057
 2949W        W 5149  19.953   6.149  27.331 -0.1306  0.0566 -0.3640
 2950W        W 5150   1.105   4.455  34.132 -0.0560 -0.1641  0.1057
 2951W        W 5151  20.958   5.792   5.231 -0.3416  0.0598 -0.1795
 2952W        W 5152   9.848   1.027  21.621  0.2725 -0.1286 -0.0044
 2953W        W 5153  11.427   0.568   7.969 -0.1466  0.2486 -0.2299
 2954W        W 5154   0.257   4.026  26.652  0.0583 -0.1037  0.2181
 2955W        W 5155  24.039   1.474   1.058 -0.1790  0.1901 -0.1551
 2956W        W 5156  23.363   3.637   5.967  0.1573 -0.0038 -0.3117
 2957W        W 5157  25.105   6.600  24.037  0.0884 -0.3748 -0.0380
 2958W        W 5158  19.524   2.422   0.191  0.1669  0.0874  0.2471
 2959W        W 5159  20.715   2.511  31.898  0.2678 -0.0895  0.1561
 2960W        W 5160  22.825   4.532  26.352 -0.3840 -0.0301 -0.0973
 2961W        W 5161  12.059   1.631   3.716  0.1453  0.1949  0.1536
 2962W        W 5162  23.838   0.122  11.188  0.2562 -0.2507  0.0038
 2963W        W 5163  16.311   4.882   9.777 -0.1820 -0.1216 -0.1894
 2964W        W 5164  13.220   4.926  14.231  0.1280 -0.0123 -0.1084
 2965W        W 5165   9.833   5.876  29.089 -0.1742  0.3836  0.0731
 2966W        W 5166  25.900   0.141   6.420  0.0149  0.0108 -0.2404
 2967W        W 5167   4.294   5.192  13.687 -0.2420  0.1536 -0.3459
 2968W        W 5168  10.313   5.301  29.041  0.0567  0.0170 -0.0987
 2969W        W 5169   8.842   6.184   5.318  0.2229  0.0275 -0.0801
 2970W        W 5170  21.893   0.661   6.075  0.2271 -0.0637  0.2036
 2971W        W 5171   0.033   3.775   9.514  0.3809 -0.1595  0.1531
 2972W        W 5172  14.249   2.366   8.944 -0.1034 -0.3034 -0.0407
 2973W        W 5173  22.067   4.438  10.700 -0.2679  0.0581 -0.1226
 2974W        W 5174   8.137   6.370   9.451  0.0044  0.1754  0.2170
 2975W        W 5175  20.860   5.987  34.321  0.1356 -0.0996 -0.0232
 2976W        W 5176   1.859   0.920  35.704  0.0869 -0.1048  0.0004
 2977W        W 5177   6.514   3.171  27.164  0.3596 -0.3501  0.2466
 2978W        W 5178   0.072   5.554  13.802  0.0898  0.0366  0.2274
 2979W        W 5179  22.897   0.116  32.540 -0.2372 -0.2455  0.1299
 2980W        W 5180  11.703   2.267  15.251  0.0712  0.0258  0.2210
 2981W        W 5181   8.202   2.059   2.948 -0.1428 -0.0572 -0.3369
 2982W        W 5182   5.247   3.616   3.869  0.2280 -0.0267 -0.0037
 2983W        W 5183   6.140   5.930  29.234  0.0382  0.1136  0.0221
 2984W        W 5184   3.089   0.893   8.080  0.4802 -0.3832  0.0480
 2985W        W 5185  26.366   5.948  30.790 -0.1623  0.1711  0.0449
 2986W        W 5186  18.554   4.783  13.731 -0.0248 -0.0207 -0.1623
 2987W        W 5187  13.693   2.532  26.563 -0.2010  0.0232 -0.1775
 2988W        W 5188  14.045   0.470   9.597 -0.0384 -0.0594 -0.2254
 2989W        W 5189   7.093   5.538   1.060 -0.0369 -0.0629 -0.2086
 2990W        W 5190  21.722   2.736  29.605  0.0392 -0.2328 -0.1297
 2991W        W 5191  14.763   0.570  14.210 -0.0335  0.1934  0.0907
 2992W        W 5192   6.190   0.257  10.894  0.0375  0.1641  0.0179
 2993W        W 5193  14.777   6.259  32.549 -0.1261 -0.0977 -0.0176
 2994W        W 5194  16.062   3.243  10.680  0.0330 -0.2534 -0.2378
 2995W        W 5195  24.173   0.505   7.499  0.2009  0.1586  0.0411
 2996W        W 5196  25.011   6.302   3.473  0.2036  0.2487  0.0052
 2997W        W 5197  17.326   3.331  24.731  0.0319  0.0850 -0.1307
 2998W        W 5198  25.880   3.929  10.118  0.2690 -0.0854 -0.1463
 2999W        W 5199  17.009   4.338  35.049  0.1711  0.2145 -0.3551
 3000W        W 5200  15.709   2.864   1.075  0.3014  0.1459 -0.1781
 3001W        W 5201  26.174   1.043  31.687 -0.2362 -0.0350 -0.0381
 3002W        W 5202   2.960   2.096   1.379 -0.1226  0.2426  0.0622
 3003W        W 5203  15.215   5.435  12.996  0.0524  0.0063  0.1221
 3004W        W 5204   3.191   5.961  13.868  0.1978 -0.1202  0.2593
 3005W        W 5205  24.087   1.575  35.813 -0.0144  0.0039  0.1692
 3006W        W 5206  14.310   2.421  14.295 -0.3378  0.0731 -0.1545
 3007W        W 5207   6.658   2.288   9.670  0.0090  0.2270 -0.5310
 3008W        W 5208  21.799   5.947  30.053 -0.3600  0.1646 -0.0354
 3009W        W 5209  18.612   3.940  33.072 -0.1520  0.0991  0.1666
 3010W        W 5210   1.271   6.180  27.106  0.0196  0.3770 -0.1316
 3011W        W 5211  11.747   4.085  30.827 -0.0177 -0.1388 -0.0241
 3012W        W 5212  24.898   5.803  26.455 -0.1868 -0.1678  0.0811
 3013W        W 5213  23.377   5.371  12.117  0.2648 -0.0940 -0.1239
 3014W        W 5214   2.027   2.908  10.865 -0.1296  0.0266  0.0637
 3015W        W 5215  10.067   6.517   5.854  0.0522  0.1103  0.2986
 3016W        W 5216  13.770   6.170   1.385  0.1100  0.0636 -0.0647
 3017W        W 5217  22.424   3.418  12.657  0.0188  0.1397  0.0695
 3018W        W 5218   6.268   5.823  10.152  0.0278  0.0696  0.1986
 3019W        W 5219  22.585   6.344  34.333 -0.1660 -0.0484  0.1297
 3020W        W 5220  19.678   1.583  31.132 -0.1913 -0.2457 -0.1665
 3021W        W 5221  15.894   4.749  29.888 -0.1110 -0.1678 -0.5581
 3022W        W 5222  22.424   0.072  10.372  0.1809  0.0308  0.0007
 3023W        W 5223  14.409   3.892  21.852 -0.0554  0.1380  0.3466
 3024W        W 5224   7.329   1.932   8.843 -0.1734  0.0577  0.1586
 3025W        W 5225  18.889   0.173   1.251 -0.1619  0.2455 -0.1929
 3026W        W 5226   6.612   5.444   8.395 -0.2863 -0.2166  0.0210
 3027W        W 5227   4.239   4.224  34.165  0.3693  0.2665 -0.1047
 3028W        W 5228   3.599   2.069   7.051 -0.2204  0.1190 -0.0489
 3029W        W 5229   1.795   0.315  11.817 -0.2639  0.2785  0.2906
 3030W        W 5230  17.011   2.218  21.758  0.3100  0.1481  0.0694
 3031W        W 5231  23.911   4.284  30.146 -0.0291 -0.2519 -0.1566
 3032W        W 5232   9.229   3.836   0.784 -0.0089 -0.3004 -0.1048
 3033W        W 5233  15.228   0.760  14.203 -0.0177 -0.0078  0.0661
 3034W        W 5234   3.354   6.353   1.591 -0.1245  0.2549  0.0288
 3035W        W 5235  11.352   3.569  29.974  0.1976  0.1386 -0.1047
 3036W        W 5236  18.622   3.593  13.204 -0.0072 -0.0809  0.1090
 3037W        W 5237  11.584   2.059   1.831 -0.0017 -0.1280 -0.2007
 3038W        W 5238  20.887   0.557   9.458 -0.0059  0.0001 -0.0564
 3039W        W 5239   2.678   5.756  31.241  0.0538 -0.0946  0.0450
 3040W        W 5240   0.558   2.592  31.814  0.1340 -0.1122  0.0174
 3041W        W 5241  22.604   1.268  28.292  0.1974 -0.0537  0.2187
 3042W        W 5242   1.222   3.615  28.231  0.1514 -0.1660 -0.0998
 3043W        W 5243   4.659   4.932   6.702 -0.2292  0.1246 -0.2581
 3044W        W 5244  17.604   3.359  33.852 -0.0559 -0.5022  0.0863
 3045W        W 5245   9.109   2.142  33.361  0.0004  0.3687  0.1327
 3046W        W 5246  10.297   0.302  34.831 -0.1113 -0.0396 -0.2427
 3047W        W 5247  15.706   6.175  14.435  0.0663  0.1721 -0.0079
 3048W        W 5248   6.918   5.255   3.639  0.1480 -0.0092 -0.2738
 3049W        W 5249  14.059   5.903  22.203 -0.0416  0.1118  0.1596
 3050W        W 5250  12.431   4.032   4.738  0.0057 -0.0020 -0.0068
 3051W        W 5251   9.176   2.546   8.669 -0.3194 -0.2961  0.3820
 3052W        W 5252  11.351   4.248  25.486  0.0532  0.0237 -0.1561
 3053W        W 5253   8.144   0.140  11.262  0.1332  0.3668 -0.1019
 3054W        W 5254  20.782   6.128  13.076  0.2585 -0.2015  0.1486
 3055W        W 5255  13.051   5.391  33.560  0.1785 -0.2104  0.0408
 3056W        W 5256   5.681   6.218   2.507 -0.0681  0.3290 -0.3165
 3057W        W 5257   8.577   2.676  10.153 -0.1126 -0.0863  0.0311
 3058W        W 5258  17.425   5.578   4.224  0.2329 -0.0041 -0.0750
 3059W        W 5259   2.444   1.469  30.954 -0.0284  0.1990 -0.0788
 3060W        W 5260  16.382   4.752  20.883  0.1832 -0.0977  0.0572
 3061W        W 5261  11.777   3.065   2.607 -0.3317  0.2056  0.0652
 3062W        W 5262  17.975   3.841  22.318  0.1564 -0.0009 -0.2159
 3063W        W 5263  14.672   3.749   9.919  0.0667  0.0991 -0.1531
 3064W        W 5264  16.985   4.852  33.161  0.2274  0.0069  0.0916
 3065W        W 5265  23.041   2.119   0.315 -0.1122 -0.1429 -0.1002
 3066W        W 5266   8.907   3.693   5.677  0.1697  0.0657 -0.1214
 3067W        W 5267   7.423   4.839  24.734 -0.1514 -0.0172  0.0409
 3068W        W 5268  20.380   6.339  30.377 -0.1019 -0.0748  0.0597
 3069W        W 5269  14.384   1.591   1.726  0.0297 -0.1005  0.0419
 3070W        W 5270   4.768   0.855   3.588 -0.0942 -0.1858  0.1141
 3071W        W 5271  17.620   1.354  33.598  0.1476  0.0828  0.0159
 3072W        W 5272  24.437   3.923  14.453 -0.0792  0.1403  0.1592
 3073W        W 5273  12.520   5.160  26.404 -0.0899 -0.1235  0.3844
 3074W        W 5274  12.115   6.472  32.714  0.0649 -0.0838  0.0129
 3075W        W 5275   1.989   4.209  35.358 -0.1634 -0.0585 -0.0529
 3076W        W 5276   4.342   2.096  20.768 -0.0829 -0.0461  0.2417
 3077W        W 5277   4.319   2.461  32.382  0.0248  0.0537 -0.0098
 3078W        W 5278  14.951   3.362  23.010 -0.2370  0.0737  0.1662
 3079W        W 5279  12.847   4.442  25.702 -0.2517  0.1141  0.0111
 3080W        W 5280   8.867   2.561   2.279  0.0060  0.1613 -0.2756
 3081W        W 5281   7.311   5.209  29.200 -0.3307  0.0416 -0.2540
 3082W        W 5282   2.266   2.877  24.420  0.0501 -0.0482  0.0210
 3083W        W 5283  18.050   5.107  11.053  0.0207 -0.0184  0.0850
 3084W        W 5284  17.700   4.344   7.610  0.1264 -0.0075  0.1184
 3085W        W 5285   6.996   0.743  25.297 -0.0865  0.0594 -0.1459
 3086W        W 5286  22.329   5.436  34.340 -0.0311 -0.1098  0.2459
 3087W        W 5287   6.668   0.087  24.154  0.1303  0.1719  0.0139
 3088W        W 5288   8.206   1.801  10.024 -0.0551 -0.0962 -0.0524
 3089W        W 5289  17.910   0.251  15.512 -0.0129 -0.1805  0.1493
 3090W        W 5290  17.298   0.284  22.842 -0.2374 -0.1294 -0.0306
 3091W        W 5291   3.165   2.318  22.590  0.3667 -0.0023  0.1469
 3092W        W 5292  24.759   4.838  21.948  0.0793  0.1191 -0.0494
 3093W        W 5293  16.591   4.188  15.077 -0.3936  0.1599 -0.4440
 3094W        W 5294   3.375   3.312  31.120 -0.2154  0.0065  0.0281
 3095W        W 5295  24.183   4.497   0.569  0.1761  0.3428  0.2515
 3096W        W 5296  17.988   2.573  23.802 -0.1574 -0.1367 -0.1038
 3097W        W 5297  10.638   2.103  25.239  0.1617  0.0474 -0.2949
 3098W        W 5298  20.839   2.690  20.675 -0.0100 -0.0804  0.1346
 3099W        W 5299  17.451   3.549  31.073  0.2094  0.0981 -0.2159
 3100W        W 5300  16.213   0.419  32.867  0.2463  0.0413  0.3023
 3101W        W 5301  25.809   2.047  21.696 -0.1791 -0.0807 -0.0875
 3102W        W 5302   8.819   2.509   5.110  0.0723  0.0005  0.1856
 3103W        W 5303   2.262   4.713  29.886 -0.1493 -0.2787  0.2135
 3104W        W 5304   1.782   5.466  10.375  0.1860  0.0141  0.2139
 3105W        W 5305   0.411   4.505  21.793 -0.1169  0.0529  0.0043
 3106W        W 5306   9.694   6.146  21.813  0.0867  0.1457 -0.0390
 3107W        W 5307   6.671   4.585  12.397  0.0215  0.1675 -0.0858
 3108W        W 5308   7.136   1.825   4.632  0.0557  0.0586 -0.2174
 3109W        W 5309  21.518   5.082  25.881  0.0306 -0.2898 -0.0408
 3110W        W 5310   3.374   1.919  25.981  0.1764 -0.0877  0.0346
 3111W        W 5311  18.183   6.093   4.594 -0.0355 -0.1758 -0.1435
 3112W        W 5312  12.879   3.874   4.924  0.1253  0.2839 -0.0296
 3113W        W 5313  15.743   0.101  34.329 -0.2331 -0.1221  0.0958
 3114W        W 5314  13.018   2.249  14.089  0.1286  0.0635  0.0025
 3115W        W 5315   8.668   3.693  11.090  0.3593  0.0829 -0.0534
 3116W        W 5316  19.845   2.019  33.642  0.3204 -0.0653  0.3652
 3117W        W 5317   8.886   1.673  23.487 -0.0017  0.2278  0.1256
 3118W        W 5318  20.903   2.277  31.387  0.0152  0.1247  0.0666
 3119W        W 5319  19.749   3.119  28.007 -0.2810 -0.0215  0.1822
 3120W        W 5320   7.647   3.628   1.906  0.2271 -0.5233 -0.1870
 3121W        W 5321  18.019   6.524   7.757 -0.2968  0.2067  0.0755
 3122W        W 5322   2.748   1.173   6.357 -0.1006  0.1306  0.3001
 3123W        W 5323  23.691   2.429  28.815  0.1085 -0.3062  0.0502
 3124W        W 5324   7.238   0.650  29.743  0.3306  0.0994  0.0231
 3125W        W 5325   6.141   3.571  21.990 -0.1415 -0.0793  0.3151
 3126W        W 5326  18.433   5.005   6.129 -0.0207 -0.2088  0.1155
 3127W        W 5327  13.468   5.052   2.111 -0.2643 -0.2601  0.3973
 3128W        W 5328  18.341   2.203  25.067  0.1325 -0.0594  0.2768
 3129W        W 5329  26.213   5.408  14.578  0.0284 -0.2346 -0.0370
 3130W        W 5330   8.911   6.305   0.128 -0.2705 -0.0118  0.1684
 3131W        W 5331   4.575   0.955   4.644 -0.0181  0.0929 -0.0145
 3132W        W 5332  15.532   5.000  14.303  0.2520  0.1909  0.0331
 3133W        W 5333   4.575   2.556  15.090  0.1169  0.1447 -0.0411
 3134W        W 5334  17.784   4.657  15.139  0.1234  0.0358 -0.1885
 3135W        W 5335  20.282   0.367  35.385  0.1141  0.3643 -0.0479
 3136W        W 5336  24.417   1.568  20.677  0.2174  0.0127  0.1318
 3137W        W 5337  14.886   0.375  26.668 -0.2580 -0.0219  0.2223
 3138W        W 5338   8.057   2.933  31.583  0.1242  0.0783 -0.2744
 3139W        W 5339  12.316   0.950  33.509  0.0286 -0.2871  0.0742
 3140W        W 5340  21.647   6.152  11.540  0.0728 -0.1602  0.0392
 3141W        W 5341  17.693   3.201   8.590 -0.1311 -0.1044  0.4432
 3142W        W 5342  23.155   6.493  10.716  0.2170 -0.2031  0.1443
 3143W        W 5343  22.788   0.194  14.309 -0.1985 -0.2949 -0.0826
 3144W        W 5344   6.570   0.450  11.649  0.2081 -0.1880 -0.0094
 3145W        W 5345   0.927   5.865   6.445 -0.2245 -0.2743  0.0357
 3146W        W 5346   0.165   2.033  12.759  0.0299 -0.0084 -0.1071
 3147W        W 5347  18.709   2.302   0.989 -0.2253 -0.2498  0.0120
 3148W        W 5348  10.101   5.954  27.768 -0.0547 -0.2641 -0.0064
 3149W        W 5349   8.306   0.054  26.756  0.2351  0.3474  0.1672
 3150W        W 5350  24.459   0.264  10.470  0.0963  0.3552 -0.0395
 3151W        W 5351   6.695   0.364  25.576 -0.0277 -0.1220 -0.2843
 3152W        W 5352  20.362   2.126  24.358  0.1706 -0.0627  0.3031
 3153W        W 5353   8.242   3.080  26.551  0.1706  0.1231  0.0498
 3154W        W 5354   5.186   1.122   1.784 -0.1758  0.0429  0.0089
 3155W        W 5355  11.310   6.572  28.293 -0.1429 -0.0172  0.0840
 3156W        W 5356   8.802   2.662   0.612 -0.1095 -0.2164 -0.0045
 3157W        W 5357  21.883   3.981   4.743 -0.1377  0.2896 -0.0769
 3158W        W 5358  25.143   2.285   2.640  0.2881 -0.0901 -0.0481
 3159W        W 5359  24.620   2.525   7.555 -0.2216 -0.2619  0.0693
 3160W        W 5360  25.689   2.531  32.216 -0.0161  0.1528  0.2455
 3161W        W 5361   5.783   4.738   5.466 -0.1707 -0.1295 -0.2568
 3162W        W 5362  22.068   0.411  31.367  0.3578  0.1104  0.0008
 3163W        W 5363  22.585   1.481   4.558 -0.1183 -0.0661  0.0248
 3164W        W 5364  18.931   4.859   7.393 -0.0839 -0.0247 -0.2067
 3165W        W 5365  26.164   0.190  32.759 -0.0363  0.1846  0.0661
 3166W        W 5366  22.677   2.017  21.251  0.0811 -0.1898  0.3100
 3167W        W 5367  16.093   6.142  28.164  0.0663 -0.1962 -0.0029
 3168W        W 5368  21.638   5.544  32.104 -0.0320  0.1673  0.4051
 3169W        W 5369  23.430   3.144  34.543 -0.1707  0.0423  0.0852
 3170W        W 5370   9.965   6.282  34.919  0.1189  0.3346  0.2554
 3171W        W 5371  12.431   5.572  35.298 -0.0924 -0.1711  0.1019
 3172W        W 5372  11.266   4.962  27.257  0.0222 -0.3950 -0.0896
 3173W        W 5373  21.546   6.504   7.287 -0.3796  0.0394  0.2491
 3174W        W 5374   3.242   2.223  10.730 -0.1334  0.1114 -0.1084
 3175W        W 5375   1.205   6.470   5.761  0.0229 -0.1679 -0.0601
 3176W        W 5376  25.570   2.048  14.506  0.0251  0.2554 -0.1537
 3177W        W 5377  14.228   5.090  27.715  0.1336  0.0398 -0.2654
 3178W        W 5378   4.843   4.549  30.660 -0.0031 -0.2468  0.2445
 3179W        W 5379   3.926   1.807   5.776  0.1364 -0.2159  0.1046
 3180W        W 5380   8.568   0.950  11.608  0.3206  0.0668  0.0559
 3181W        W 5381  23.702   0.647  11.638  0.1079  0.1499  0.3601
 3182W        W 5382   6.925   4.319  12.783  0.1171  0.1291 -0.0404
 3183W        W 5383  22.029   2.357   0.883 -0.0424  0.2816 -0.0241
 3184W        W 5384   7.101   5.227  30.199 -0.2650 -0.3733 -0.1696
 3185W        W 5385   3.285   3.140   3.047  0.0818  0.1707  0.1425
 3186W        W 5386  18.558   5.370   3.699  0.2478  0.1170 -0.0168
 3187W        W 5387  20.881   2.608  22.049  0.0674  0.2786  0.2668
 3188W        W 5388  10.920   0.667   1.183  0.0950 -0.2005  0.1303
 3189W        W 5389   3.741   5.756  22.193 -0.2467  0.0052  0.0279
 3190W        W 5390  10.103   1.334   3.658  0.0187 -0.1860 -0.0595
 3191W        W 5391  25.300   6.512   1.365  0.2786  0.0626  0.0723
 3192W        W 5392   5.984   5.964  25.035 -0.1838  0.0172  0.0564
 3193W        W 5393   6.696   2.518  15.302 -0.0500  0.1303 -0.2556
 3194W        W 5394  20.402   0.080   8.759  0.0712  0.2158  0.3653
 3195W        W 5395  15.268   1.960   8.640  0.1643  0.2026  0.3405
 3196W        W 5396   4.587   2.267  31.082 -0.0357  0.2530 -0.2647
 3197W        W 5397   0.253   0.109   4.258 -0.0322 -0.1719 -0.0113
 3198W        W 5398  23.989   0.137   5.576  0.4854  0.1978  0.2637
 3199W        W 5399  12.469   3.850   7.497  0.1739  0.0268  0.0359
 3200W        W 5400  14.636   3.037   4.425 -0.0153 -0.2338  0.0802
 3201W        W 5401  23.631   5.444  21.862 -0.0030  0.1280  0.2060
 3202W        W 5402  21.856   2.565  21.204  0.5659 -0.3512 -0.0578
 3203W        W 5403  11.360   6.151  32.091 -0.0211 -0.0466  0.2335
 3204W        W 5404  21.439   5.120   2.443 -0.0880 -0.0547  0.0006
 3205W        W 5405   0.286   5.234   9.901 -0.0175  0.0310  0.0521
 3206W        W 5406   0.134   1.689   6.951 -0.2986  0.2545  0.2287
 3207W        W 5407   4.811   5.513  30.697  0.1197  0.1178  0.1960
 3208W        W 5408  20.125   6.122   1.733  0.0710  0.3484 -0.0056
 3209W        W 5409  26.329   1.775   1.846  0.1769 -0.0388  0.0787
 3210W        W 5410  10.951   2.337  21.469 -0.1282  0.0267  0.1703
 3211W        W 5411   9.527   2.513  28.374  0.1561 -0.1881 -0.1550
 3212W        W 5412   8.584   2.497  10.678 -0.0901  0.2321 -0.1203
 3213W        W 5413   5.841   0.694  14.359 -0.0329 -0.1051  0.0435
 3214W        W 5414  24.472   6.508   4.327  0.0464 -0.1052 -0.0212
 3215W        W 5415  11.879   1.942   2.259 -0.1674  0.1707 -0.3191
 3216W        W 5416   6.728   1.837  12.431 -0.0234 -0.0107  0.1563
 3217W        W 5417  10.267   2.660  27.811  0.1817 -0.1763 -0.3133
 3218W        W 5418   8.690   0.445  35.303 -0.2788 -0.0310  0.0506
 3219W        W 5419   6.157   6.441  13.189 -0.0393 -0.1680 -0.0348
 3220W        W 5420   0.709   2.188  30.479  0.1140 -0.2632 -0.1331
 3221W        W 5421  11.948   1.486  31.550  0.0300  0.3382  0.2043
 3222W        W 5422  17.678   2.160   9.552 -0.1198  0.0590 -0.1371
 3223W        W 5423  17.244   6.159   7.492 -0.1317  0.1376  0.2578
 3224W        W 5424   9.440   6.098  14.799  0.0609  0.0903 -0.1901
 3225W        W 5425  16.584   4.438  26.726  0.2314  0.5448 -0.0389
 3226W        W 5426  17.870   1.287  26.035 -0.0520 -0.0403 -0.2890
 3227W        W 5427  12.549   0.585  10.894  0.1045 -0.1106 -0.1991
 3228W        W 5428  23.760   0.473  29.180 -0.3570 -0.2247  0.0105
 3229W        W 5429   7.060   5.556   5.657 -0.0982  0.0905 -0.1896
 3230W        W 5430  22.538   1.553  29.766 -0.1395  0.1009  0.2917
 3231W        W 5431  10.929   1.711  32.955  0.0542 -0.0345 -0.1942
 3232W        W 5432   7.765   0.445   7.743 -0.2176  0.0867  0.0332
 3233W        W 5433  22.449   3.974   9.450 -0.1518 -0.2135  0.0612
 3234W        W 5434  24.544   5.963  31.525 -0.1978 -0.1866 -0.1447
 3235W        W 5435  16.859   4.838  21.122 -0.0925 -0.1200  0.2571
 3236W        W 5436   6.149   3.919  15.427  0.1105 -0.2178 -0.2747
 3237W        W 5437  15.125   4.583   8.003 -0.2333 -0.0564  0.0187
 3238W        W 5438   9.069   4.346  26.079  0.2300 -0.0494  0.4829
 3239W        W 5439  10.176   2.438  13.759 -0.2131 -0.0287  0.1358
 3240W        W 5440   4.714   4.968   3.240 -0.0246 -0.0517 -0.1124
 3241W        W 5441  25.893   5.841   3.768 -0.2913 -0.0286 -0.0286
 3242W        W 5442   9.480   1.352  23.432  0.2488  0.1680 -0.1281
 3243W        W 5443   4.660   0.747  13.788 -0.1611  0.0532  0.2114
 3244W        W 5444  24.582   0.294  21.390 -0.0062  0.0008 -0.0761
 3245W        W 5445  16.190   2.619   7.849  0.2713 -0.2131  0.2476
 3246W        W 5446  15.100   4.339   0.539 -0.0098  0.2497  0.0273
 3247W        W 5447   7.363   0.384   6.093 -0.0493  0.1494 -0.1490
 3248W        W 5448   7.402   1.908  11.643  0.2530  0.0915 -0.2997
 3249W        W 5449   2.635   1.842  11.622  0.3305  0.1139  0.0970
 3250W        W 5450   7.605   4.833  23.497 -0.1707 -0.1146 -0.0737
 3251W        W 5451   4.228   3.606  35.558 -0.0079  0.0750  0.2397
 3252W        W 5452  11.770   2.764   8.805  0.1391  0.0406 -0.2920
 3253W        W 5453  17.347   5.090  32.812  0.2063  0.6012 -0.1678
 3254W        W 5454  13.975   2.886  10.304  0.2881  0.0327  0.1945
 3255W        W 5455  24.754   1.698  31.651 -0.4425 -0.0259 -0.1181
 3256W        W 5456   0.497   0.297  34.458  0.0914  0.2179  0.2143
 3257W        W 5457  20.176   2.234  11.652 -0.0509 -0.0405  0.0379
 3258W        W 5458   4.380   1.499  24.849  0.1568  0.0031 -0.0373
 3259W        W 5459  11.407   0.947  28.592 -0.1654 -0.0833 -0.0130
 3260W        W 5460   1.564   0.812  10.659 -0.0772  0.2194  0.0382
 3261W        W 5461  15.083   2.676   3.587  0.1407 -0.0874 -0.0879
 3262W        W 5462   4.453   3.500   9.421 -0.0706  0.2260  0.1836
 3263W        W 5463   1.316   5.450  21.427 -0.1157 -0.1718 -0.0922
 3264W        W 5464  25.927   5.583   1.019  0.2302 -0.0645 -0.1774
 3265W        W 5465  25.970   1.251  24.250  0.2466  0.3601 -0.2231
 3266W        W 5466  17.409   3.991   3.394  0.1113  0.0247  0.0197
 3267W        W 5467  16.206   5.710   1.197 -0.1377  0.0395  0.0897
 3268W        W 5468   7.547   2.170  22.214 -0.1978 -0.2090 -0.0810
 3269W        W 5469  19.820   0.357  13.467  0.1801 -0.2304 -0.2745
 3270W        W 5470  13.995   3.395  29.755  0.3929  0.0555 -0.0353
 3271W        W 5471  22.259   2.391   3.116  0.0009  0.2677 -0.0356
 3272W        W 5472  24.274   2.874   7.397 -0.1000 -0.1748  0.3218
 3273W        W 5473  14.437   3.609   5.589 -0.0175  0.1503 -0.1563
 3274W        W 5474  23.182   1.676   0.022 -0.0671 -0.6714  0.0198
 3275W        W 5475  10.295   5.086  31.045 -0.0534 -0.0433  0.0465
 3276W        W 5476  19.479   6.545   7.044 -0.0219 -0.0300  0.1414
 3277W        W 5477  16.858   1.767  23.420  0.0464 -0.1769 -0.0924
 3278W        W 5478   5.457   5.563  13.311  0.0046  0.4154 -0.1662
 3279W        W 5479  24.682   4.724   5.275  0.1946  0.0867  0.4077
 3280W        W 5480   4.266   5.066  22.045  0.2694 -0.2407  0.2320
 3281W        W 5481   6.412   3.053   8.223 -0.0220 -0.0685 -0.1112
 3282W        W 5482  10.097   2.618  31.102  0.0028  0.0696 -0.0409
 3283W        W 5483  12.527   3.106  30.278  0.1740 -0.1029 -0.0483
 3284W        W 5484  22.723   4.507   2.189 -0.1787 -0.2705  0.1415
 3285W        W 5485  12.891   2.028  20.455  0.1110  0.1119 -0.0352
 3286W        W 5486  15.639   5.363  29.243  0.1484  0.1270 -0.0745
 3287W        W 5487  12.898   2.385  23.908  0.0845 -0.1226  0.0373
 3288W        W 5488  22.036   5.947   5.319 -0.1773 -0.3679 -0.0106
 3289W        W 5489   4.706   3.482  35.458  0.2890 -0.1232 -0.0802
 3290W        W 5490  13.093   1.604   5.645 -0.4464  0.3074 -0.0255
 3291W        W 5491  14.754   6.551  22.195 -0.1749  0.1966  0.2212
 3292W        W 5492  16.923   3.343  33.878 -0.1014  0.1954 -0.1655
 3293W        W 5493   6.695   4.098   8.708 -0.0579 -0.0047  0.1085
 3294W        W 5494   8.813   6.170   2.351 -0.3091 -0.0801  0.0812
 3295W        W 5495  20.560   2.891  10.032 -0.1849  0.1369 -0.0424
 3296W        W 5496  10.306   0.089  15.297 -0.1074  0.1584  0.2097
 3297W        W 5497  17.534   5.372  21.215 -0.1318  0.1595 -0.1659
 3298W        W 5498   4.870   2.349  14.721 -0.0376  0.2549 -0.0640
 3299W        W 5499  21.779   6.398   7.772 -0.2856 -0.1031 -0.0193
 3300W        W 5500  11.709   4.729   2.306 -0.1499  0.0808  0.1073
 3301W        W 5501  17.942   3.120   3.766 -0.1370 -0.0099  0.0323
 3302W        W 5502  25.926   6.360   8.078 -0.1637  0.4931  0.2673
 3303W        W 5503   2.369   5.099  28.136 -0.0462 -0.0772 -0.1049
 3304W        W 5504  14.539   1.180   1.478  0.0168  0.0752  0.1469
 3305W        W 5505  18.797   6.305  30.450  0.1213 -0.0328 -0.0531
 3306W        W 5506  13.056   3.268   6.459  0.4177 -0.0605  0.0111
 3307W        W 5507  25.037   3.697  32.995 -0.2798 -0.2760 -0.2686
 3308W        W 5508   5.837   0.589  25.555 -0.4123  0.0453 -0.0594
 3309W        W 5509  15.984   2.190   3.971  0.2425 -0.3842  0.4964
 3310W        W 5510  25.817   1.837   0.617 -0.1153 -0.2373 -0.0214
 3311W        W 5511  12.966   4.036   3.610  0.2069  0.1286  0.0815
 3312W        W 5512  18.279   6.181   9.897  0.2852  0.1031  0.0124
 3313W        W 5513   6.650   2.984  13.482  0.2766 -0.1022  0.0328
 3314W        W 5514  24.668   6.244   4.693  0.1311 -0.1403  0.2056
 3315W        W 5515  23.531   0.853   2.263 -0.1306  0.0016 -0.1530
 3316W        W 5516  13.300   4.822  10.276  0.0696  0.0789 -0.0786
 3317W        W 5517  17.914   1.438  24.740 -0.1218  0.1949  0.0127
 3318W        W 5518  25.125   1.675  24.017  0.1302 -0.1074  0.1025
 3319W        W 5519  25.469   3.561   7.068  0.0514  0.0235  0.0282
 3320W        W 5520  15.463   2.020  30.519 -0.0212 -0.0408 -0.0177
 3321W        W 5521   6.118   3.538  32.170  0.1859 -0.1679 -0.0773
 3322W        W 5522  21.098   3.722  11.561 -0.0617 -0.3640 -0.3024
 3323W        W 5523  12.990   0.913  26.470 -0.1483  0.0418 -0.2188
 3324W        W 5524  24.094   3.295   8.562 -0.3701  0.2551 -0.0231
 3325W        W 5525   7.523   3.317  35.305 -0.2597  0.1606  0.0612
 3326W        W 5526   6.887   4.207  21.494  0.1469  0.2261  0.1485
 3327W        W 5527   8.469   5.667   0.825  0.1252 -0.3240  0.0414
 3328W        W 5528  14.433   5.718  23.199  0.1866  0.2154  0.0348
 3329W        W 5529  25.908   0.604  11.398  0.2853 -0.0387 -0.2897
 3330W        W 5530  15.250   6.215  34.909 -0.0579  0.0941 -0.0074
 3331W        W 5531  10.256   1.928  13.733  0.1989 -0.0151  0.0789
 3332W        W 5532  23.969   5.147  29.963 -0.1687  0.0530  0.1191
 3333W        W 5533  19.589   1.590  11.267  0.0480  0.0295  0.1155
 3334W        W 5534   6.850   1.125  12.334 -0.1779  0.0388 -0.0155
 3335W        W 5535  19.320   6.324   8.814 -0.0377 -0.1628  0.2023
 3336W        W 5536  12.232   4.604  13.065  0.1695 -0.1873 -0.0057
 3337W        W 5537  11.329   3.292   9.433 -0.0226  0.3932 -0.0206
 3338W        W 5538  11.008   5.099  14.370 -0.1263  0.0536 -0.2924
 3339W        W 5539  14.188   2.813  22.752 -0.0980  0.1453  0.0565
 3340W        W 5540   5.557   4.404  33.808 -0.0076  0.2749 -0.3511
 3341W        W 5541   0.952   1.491  30.897  0.3829  0.0045  0.0639
 3342W        W 5542  23.195   2.691  31.564  0.1041 -0.1245 -0.1328
 3343W        W 5543   9.954   3.260  26.434  0.3292  0.3115 -0.1208
 3344W        W 5544  10.313   5.438   4.747  0.3439  0.0049 -0.2563
 3345W        W 5545   9.969   1.507  27.166 -0.1407  0.2223 -0.0776
 3346W        W 5546  11.127   5.082  22.465  0.1382  0.3828 -0.0798
 3347W        W 5547  13.817   2.691   0.068 -0.0237 -0.2316 -0.1180
 3348W        W 5548   5.419   2.324  12.931  0.2252 -0.0441  0.2738
 3349W        W 5549   1.689   5.261  13.361  0.5008 -0.3596  0.2350
 3350W        W 5550  10.652   5.509  26.704 -0.2849 -0.3790 -0.2298
 3351W        W 5551  13.649   1.706  30.134  0.1510 -0.2785 -0.0411
 3352W        W 5552   8.717   1.118  14.612 -0.3542 -0.1703 -0.2348
 3353W        W 5553   8.348   3.864  22.650  0.1709  0.0618 -0.1139
 3354W        W 5554   8.118   3.944   1.328 -0.0873  0.1429 -0.3046
 3355W        W 5555  19.916   5.367   3.419  0.1224 -0.1636 -0.0200
 3356W        W 5556  16.871   3.144   8.175 -0.2138 -0.1987 -0.0828
 3357W        W 5557  14.759   2.950  28.906 -0.1630  0.1732  0.0095
 3358W        W 5558  24.602   4.666   0.190  0.3322 -0.1771 -0.1007
 3359W        W 5559   5.319   4.343  20.837  0.2169 -0.1955  0.0423
 3360W        W 5560   2.898   2.257   3.009  0.0371 -0.0114 -0.2002
 3361W        W 5561  16.226   1.089   7.577 -0.1574 -0.1499 -0.1095
 3362W        W 5562  14.822   2.336  14.286  0.2744  0.4344 -0.2656
 3363W        W 5563  11.029   3.160  24.656 -0.2830  0.1980 -0.0689
 3364W        W 5564  14.584   1.892  12.829 -0.0530 -0.0952  0.1200
 3365W        W 5565  21.802   5.667  27.826 -0.2735  0.0643  0.1847
 3366W        W 5566  13.598   1.347  15.049 -0.0258 -0.1860 -0.0227
 3367W        W 5567   9.285   3.756  27.254 -0.0234  0.1408  0.0456
 3368W        W 5568  23.320   3.073  30.172 -0.3312  0.0097  0.1795
 3369W        W 5569   4.792   4.501   7.031  0.0454 -0.0862  0.0736
 3370W        W 5570  22.846   2.892  10.290 -0.1756 -0.2350  0.1124
 3371W        W 5571   0.283   6.070   7.270 -0.3009 -0.0847  0.2290
 3372W        W 5572  24.845   5.222   0.014 -0.1434 -0.0732  0.0693
 3373W        W 5573  10.574   3.790  11.744  0.0192 -0.0968 -0.0110
 3374W        W 5574   9.802   2.270  31.288  0.1061  0.0322  0.3688
 3375W        W 5575  23.268   3.451  25.709 -0.0088  0.0016  0.0604
 3376W        W 5576   1.595   1.488  13.066  0.1102  0.1211 -0.2565
 3377W        W 5577  21.021   3.794  23.235  0.0338  0.1238  0.0487
 3378W        W 5578  25.073   4.490  22.785  0.0514 -0.0752  0.1358
 3379W        W 5579  22.079   3.263   9.129  0.0226 -0.1735 -0.0138
 3380W        W 5580  23.510   2.082  26.352  0.1671  0.3614  0.1802
 3381W        W 5581   1.387   5.195  23.609 -0.0657  0.2556 -0.1756
 3382W        W 5582   8.149   3.327  31.841 -0.0135 -0.2797 -0.0370
 3383W        W 5583   7.745   4.603   2.333 -0.0580  0.0205  0.0314
 3384W        W 5584   9.384   3.406   6.890  0.0294  0.1936  0.2047
 3385W        W 5585  10.887   6.519  13.940  0.2031  0.1670 -0.0947
 3386W        W 5586  13.813   5.654  22.573 -0.1825 -0.2042  0.1580
 3387W        W 5587  15.133   2.377  29.559 -0.0975 -0.1791 -0.0401
 3388W        W 5588  18.074   0.169  10.971  0.1806  0.0291  0.0530
 3389W        W 5589   4.157   5.353  24.194  0.3549 -0.1024 -0.1049
 3390W        W 5590  24.211   5.379   5.473 -0.1077  0.2564 -0.0797
 3391W        W 5591  15.824   2.622  25.682  0.2334  0.2851 -0.0702
 3392W        W 5592   0.373   2.357   0.684 -0.0856 -0.0140 -0.2991
 3393W        W 5593  12.109   1.865   2.672  0.3071 -0.3087 -0.2539
 3394W        W 5594  10.640   3.136  34.925  0.1497  0.3331 -0.1316
 3395W        W 5595  19.474   2.711  12.436  0.0486 -0.0515 -0.0293
 3396W        W 5596  10.011   0.613   5.261  0.0396 -0.1777  0.0760
 3397W        W 5597  14.788   0.048   9.937  0.0838  0.0517  0.0822
 3398W        W 5598  17.026   4.381  26.365  0.1326  0.1582 -0.2077
 3399W        W 5599   3.193   6.446   0.393  0.0828 -0.1861  0.1040
 3400W        W 5600  13.431   6.248   2.879  0.0887  0.0605  0.0713
 3401W        W 5601  14.205   6.416  22.133  0.0843 -0.0616  0.0952
 3402W        W 5602  25.821   5.442  33.660 -0.3509  0.1636 -0.0381
 3403W        W 5603  24.391   4.977  13.094  0.0180  0.3167  0.0483
 3404W        W 5604  18.861   5.009   0.485 -0.0794  0.1092 -0.2967
 3405W        W 5605   8.642   0.204  31.530 -0.0123  0.2551  0.0318
 3406W        W 5606  14.785   4.650  22.277  0.0561  0.2822 -0.0208
 3407W        W 5607  18.086   5.482   0.314  0.0193  0.2239  0.0475
 3408W        W 5608  19.371   6.602   5.899  0.1735 -0.1038  0.1417
 3409W        W 5609  20.933   5.415  23.157  0.3890  0.2244  0.3125
 3410W        W 5610   9.942   0.204   1.545 -0.1934  0.1347 -0.3619
 3411W        W 5611  18.655   5.618  33.605  0.0078  0.1442 -0.1820
 3412W        W 5612  18.148   5.377  21.912 -0.0554 -0.0222 -0.0167
 3413W        W 5613   8.182   4.674   9.289 -0.0287  0.1945  0.1701
 3414W        W 5614  21.778   6.364  14.149 -0.2456 -0.1515  0.0639
 3415W        W 5615  13.704   0.788   5.533 -0.1109 -0.1186 -0.1974
 3416W        W 5616  15.037   4.236  29.847  0.0428  0.0634  0.0897
 3417W        W 5617  12.643   0.543  11.509 -0.1372  0.1714 -0.2834
 3418W        W 5618  22.278   1.631  21.481 -0.2710  0.0298  0.0466
 3419W        W 5619  11.194   4.917   5.653  0.2535 -0.0351 -0.0502
 3420W        W 5620   4.653   3.706  23.466  0.1210 -0.2098  0.1114
 3421W        W 5621  20.869   4.984  13.710  0.1214  0.0159  0.0351
 3422W        W 5622  17.488   2.222  33.228  0.1387 -0.1743 -0.1711
 3423W        W 5623   7.173   4.762  35.316  0.2616 -0.2569 -0.3332
 3424W        W 5624  14.517   1.984  26.083  0.1308  0.0094  0.1528
 3425W        W 5625  22.753   0.448  35.779 -0.1294  0.0914 -0.0554
 3426W        W 5626  25.416   5.389  25.098  0.2467  0.1076  0.2673
 3427W        W 5627  13.004   1.211  27.290 -0.1741 -0.0213 -0.1147
 3428W        W 5628  14.921   4.799  12.252  0.2201  0.1012  0.0703
 3429W        W 5629  23.791   0.758   3.707 -0.0054 -0.0679  0.1252
 3430W        W 5630   7.969   2.544  31.150 -0.1024 -0.1296 -0.0563
 3431W        W 5631  10.150   6.435   8.969 -0.2600 -0.0106  0.1952
 3432W        W 5632  25.031   0.844  31.602  0.1446 -0.0046 -0.0366
 3433W        W 5633  14.602   0.745  21.596  0.0370 -0.0793  0.0583
 3434W        W 5634  25.078   2.947   1.929  0.2883 -0.1539  0.0417
 3435W        W 5635   5.345   1.109   6.626 -0.4998  0.0445  0.1906
 3436W        W 5636  21.826   1.100  28.673 -0.3025 -0.0502  0.2863
 3437W        W 5637  21.827   2.543  28.552 -0.1489  0.1743  0.1482
 3438W        W 5638   5.119   5.912  34.219  0.1448 -0.3918  0.0855
 3439W        W 5639   8.817   4.418  13.985 -0.0033 -0.0297 -0.0330
 3440W        W 5640  14.577   5.000   0.136  0.4947 -0.2184  0.1997
 3441W        W 5641  16.800   6.525  28.591  0.0476 -0.0725 -0.0042
 3442W        W 5642   7.384   1.611  21.037 -0.1281 -0.0550  0.3794
 3443W        W 5643   3.567   3.845  33.793  0.1413  0.1254 -0.1426
 3444W        W 5644  19.165   3.006  35.107  0.2582  0.0296 -0.0656
 3445W        W 5645   1.099   5.503   8.677  0.1982 -0.3631 -0.0090
 3446W        W 5646  18.657   5.524   0.360 -0.0081 -0.0906  0.2213
 3447W        W 5647  25.175   2.353   1.315  0.1457  0.0273  0.1922
 3448W        W 5648  19.849   0.626  21.010  0.2639  0.1404  0.1774
 3449W        W 5649  20.729   0.097  33.828  0.0943  0.1421  0.0016
 3450W        W 5650  23.592   3.510  31.441 -0.2397 -0.2571 -0.1844
 3451W        W 5651   2.222   3.283  22.099  0.0471  0.0433 -0.2714
 3452W        W 5652   0.082   4.873  27.962 -0.1531 -0.0804 -0.3693
 3453W        W 5653  26.173   6.313  35.715 -0.3122 -0.0427 -0.0927
 3454W        W 5654  24.583   2.905  21.115 -0.0993 -0.0871 -0.0957
 3455W        W 5655  21.438   6.275   9.009 -0.0226 -0.4387  0.0869
 3456W        W 5656   7.699   6.546  23.791 -0.0058  0.0302  0.2125
 3457W        W 5657  20.722   4.509  22.494 -0.0560 -0.2460 -0.2201
 3458W        W 5658  16.732   3.257   4.716 -0.4252  0.0383  0.0834
 3459W        W 5659  14.967   1.456  12.054 -0.0314 -0.0486  0.1854
 3460W        W 5660  11.651   5.154   0.257 -0.0131 -0.2206 -0.1668
 3461W        W 5661  19.111   2.200  14.503 -0.3876 -0.3331  0.0424
 3462W        W 5662  19.850   3.206  13.172  0.2221  0.0007  0.2370
 3463W        W 5663  13.972   3.516   3.917  0.1058 -0.0805 -0.0581
 3464W        W 5664   1.046   1.979  28.693 -0.0736 -0.0378  0.1203
 3465W        W 5665  18.666   0.097   6.516 -0.1255  0.0251 -0.4033
 3466W        W 5666  14.197   0.458  25.915 -0.1673 -0.1676  0.1932
 3467W        W 5667  25.370   3.813  34.983 -0.2186 -0.0049  0.0176
 3468W        W 5668   8.387   6.451   2.356 -0.0548  0.1102  0.1056
 3469W        W 5669   3.931   3.894   8.531  0.0273 -0.1413 -0.0441
 3470W        W 5670   5.105   1.403  35.837 -0.2498 -0.0977 -0.3078
 3471W        W 5671  10.061   6.032  30.935  0.2338  0.0195  0.1434
 3472W        W 5672  16.508   5.897   3.247 -0.3572 -0.2118 -0.0157
 3473W        W 5673   7.196   2.079  35.721  0.0964  0.1585 -0.0483
 3474W        W 5674  18.137   6.128  31.043  0.0918 -0.0724 -0.0968
 3475W        W 5675  17.729   6.307   9.896  0.2536  0.3350  0.0350
 3476W        W 5676  15.349   5.013   5.578 -0.0633  0.0962  0.2162
 3477W        W 5677   3.858   6.348  31.288  0.0617 -0.2104  0.2149
 3478W        W 5678  14.426   5.933   0.351 -0.0361 -0.1023  0.2132
 3479W        W 5679  24.386   6.274   9.289 -0.0360  0.0071 -0.2935
 3480W        W 5680  24.881   0.817  25.119  0.0404 -0.0364  0.1935
 3481W        W 5681  10.981   0.744  34.597  0.0839 -0.2000 -0.0670
 3482W        W 5682   4.679   4.559  35.597  0.0154  0.0270 -0.4458
 3483W        W 5683  25.669   6.480  25.989 -0.0215  0.1528 -0.0540
 3484W        W 5684  23.531   1.719   5.567  0.3147  0.0307 -0.2647
 3485W        W 5685   4.185   3.441  27.462  0.1182 -0.2153  0.1017
 3486W        W 5686  10.693   2.562  20.942  0.2232 -0.0290 -0.2490
 3487W        W 5687   1.608   3.414  27.581  0.1295  0.1907 -0.1104
 3488W        W 5688  10.023   3.755   6.265  0.1075 -0.0278  0.2836
 3489W        W 5689   9.153   5.631  30.118 -0.3517  0.4507  0.0926
 3490W        W 5690  25.718   6.284   2.248  0.3114 -0.0703 -0.0725
 3491W        W 5691   5.415   1.148   5.253  0.1847 -0.2251 -0.0747
 3492W        W 5692   1.269   2.712  12.974 -0.0370 -0.0279  0.0384
 3493W        W 5693  17.086   1.271   8.198  0.2308  0.1004 -0.0827
 3494W        W 5694  25.198   1.302  31.713 -0.1464  0.0192 -0.0938
 3495W        W 5695   3.470   4.411  23.750 -0.0676  0.0287  0.0754
 3496W        W 5696  13.529   1.695   6.235 -0.3407  0.1337  0.0722
 3497W        W 5697  12.858   5.111  13.396  0.1385  0.0554  0.0285
 3498W        W 5698  18.021   2.052  33.964 -0.0610 -0.3585  0.1593
 3499W        W 5699   7.975   6.458   8.910  0.1966 -0.0252 -0.4434
 3500W        W 5700  19.727   3.675  32.560 -0.0488  0.1202  0.0526
 3501W        W 5701   2.240   5.950   6.950  0.2295 -0.2576  0.0487
 3502W        W 5702   2.255   3.720  22.701  0.3155  0.1142  0.2728
 3503W        W 5703  19.402   5.494   6.766  0.3308  0.0425 -0.2629
 3504W        W 5704   0.117   2.176   2.083 -0.1415  0.2139 -0.2092
 3505W        W 5705   6.422   6.351  34.676  0.0567 -0.3977  0.3300
 3506W        W 5706  21.001   3.447  34.272  0.1848  0.2804 -0.5262
 3507W        W 5707  24.245   4.818  12.672 -0.3525  0.1815  0.4324
 3508W        W 5708  15.412   5.014  31.274  0.1574 -0.1839  0.0518
 3509W        W 5709   0.479   1.337  32.814 -0.0956  0.1287  0.1276
 3510W        W 5710  17.764   6.590  20.448 -0.0190  0.0770 -0.0491
 3511W        W 5711  18.974   4.525   0.844  0.2066  0.3350  0.3675
 3512W        W 5712   4.169   1.203  21.018  0.1548 -0.2502 -0.1766
 3513W        W 5713   9.996   6.444  11.999  0.1815  0.2699  0.0459
 3514W        W 5714  20.662   0.529  10.588  0.1860  0.1739  0.0981
 3515W        W 5715   5.163   3.472  12.343 -0.0289 -0.1274 -0.1093
 3516W        W 5716  17.747   3.821  35.715  0.0292 -0.1565 -0.0147
 3517W        W 5717   3.839   3.857   2.353 -0.1976  0.1121  0.0604
 3518W        W 5718   9.480   3.716  11.871  0.2729  0.3705 -0.0315
 3519W        W 5719  22.397   4.863   5.812 -0.1388  0.0036  0.0001
 3520W        W 5720   4.419   4.776  21.599  0.1418  0.3169 -0.0609
 3521W        W 5721  21.719   2.002   2.868  0.2288  0.1164 -0.0554
 3522W        W 5722   3.060   1.202  28.660 -0.0648  0.0796 -0.0014
 3523W        W 5723  10.130   4.820  28.912  0.0242  0.0385  0.1916
 3524W        W 5724  13.371   3.704  35.197  0.0367  0.1460 -0.1677
 3525W        W 5725  24.861   2.716   3.504 -0.2138 -0.0921 -0.0107
 3526W        W 5726   5.946   6.420  11.431  0.1489  0.0939  0.0085
 3527W        W 5727   6.135   3.161  21.422  0.0399  0.0513 -0.0966
 3528W        W 5728  21.249   5.160  13.876  0.1005  0.0877 -0.1545
 3529W        W 5729   3.179   4.201  10.240  0.1203 -0.0399  0.0002
 3530W        W 5730  13.289   2.702  21.012 -0.0230 -0.1206 -0.2301
 3531W        W 5731   0.159   3.589   6.607  0.1855 -0.0644  0.0115
 3532W        W 5732  26.296   3.654   4.288 -0.1100 -0.1378  0.0813
 3533W        W 5733  14.142   0.015   3.219 -0.4032  0.1610 -0.1645
 3534W        W 5734   2.308   0.346  30.301  0.0622 -0.0754 -0.0685
 3535W        W 5735  10.098   0.203  12.800 -0.2367 -0.2063  0.0613
 3536W        W 5736   3.218   4.138   5.576 -0.2262  0.2446 -0.0098
 3537W        W 5737   1.156   6.013  28.061  0.2062  0.3067 -0.2230
 3538W        W 5738   4.776   1.264  29.117 -0.0311  0.1628  0.1583
 3539W        W 5739  15.583   2.071  24.197  0.0012 -0.1172 -0.0561
 3540W        W 5740  19.415   4.355  14.679  0.0160 -0.1500  0.1874
 3541W        W 5741   8.379   6.129  23.297  0.0957  0.1036  0.2216
 3542W        W 5742   7.924   4.810  28.191 -0.6548  0.0783 -0.0183
 3543W        W 5743   4.240   2.267  25.522  0.1614  0.0517  0.0352
 3544W        W 5744   0.999   0.091   4.734 -0.0443  0.1620  0.2691
 3545W        W 5745   9.739   4.631  10.594  0.0228  0.1051 -0.1236
 3546W        W 5746   9.762   0.564  22.408  0.0186 -0.1460  0.2350
 3547W        W 5747  17.453   0.515  10.220  0.1254  0.0899 -0.3066
 3548W        W 5748  19.896   1.424  26.070 -0.2044 -0.2046  0.0592
 3549W        W 5749   1.382   4.500  33.377 -0.0982 -0.0039  0.0176
 3550W        W 5750   8.476   1.584   8.790  0.0650  0.0479  0.2401
 3551W        W 5751  15.047   2.075  24.200 -0.3241  0.0241 -0.0893
 3552W        W 5752  19.001   5.610  25.088 -0.0171  0.2685 -0.1776
 3553W        W 5753   0.703   5.343  29.628 -0.0224 -0.2857  0.0657
 3554W        W 5754   2.268   4.442   1.448  0.2105 -0.2424  0.1030
 3555W        W 5755  24.336   1.255  14.162  0.1255  0.2723  0.0846
 3556W        W 5756  11.386   5.490   2.135 -0.2501  0.4118 -0.0245
 3557W        W 5757   4.839   0.049  12.261  0.0840  0.1313  0.1977
 3558W        W 5758   6.191   4.254   4.056 -0.0209 -0.4300 -0.1494
 3559W        W 5759  13.762   2.461  29.560 -0.2534  0.0474 -0.3846
 3560W        W 5760  19.508   1.405   0.684 -0.0577  0.0869 -0.3364
 3561W        W 5761   4.933   2.928  25.174  0.0598 -0.0852  0.1074
 3562W        W 5762  18.693   5.611   2.609  0.3352 -0.4243  0.1583
 3563W        W 5763  23.920   0.211   6.101 -0.0169 -0.1259  0.0132
 3564W        W 5764  25.655   4.266  28.926  0.4401 -0.2604  0.1363
 3565W        W 5765  12.649   5.415  10.124  0.2726 -0.0786  0.0606
 3566W        W 5766  20.285   3.287  12.344 -0.0843 -0.2698  0.0094
 3567W        W 5767  20.505   4.051  32.399 -0.2452  0.0113  0.0124
 3568W        W 5768  17.311   0.789  25.123  0.2287 -0.0239 -0.1058
 3569W        W 5769  14.136   3.143  33.555 -0.2131  0.0219  0.2621
 3570W        W 5770  23.549   0.714   6.981 -0.1655 -0.0833 -0.2008
 3571W        W 5771   8.662   1.301  22.141 -0.3631  0.0928  0.2052
 3572W        W 5772   8.674   0.762  12.082  0.2832  0.0966 -0.2538
 3573W        W 5773  23.362   0.708  29.847 -0.2274 -0.1138 -0.0519
 3574W        W 5774   7.454   2.406  12.528 -0.2081 -0.0382 -0.0490
 3575W        W 5775   5.417   4.437  22.554  0.1915 -0.1293 -0.0231
 3576W        W 5776   2.107   4.692  23.187 -0.3364  0.0312  0.0937
 3577W        W 5777   1.910   0.051  31.937 -0.0185  0.0652  0.1120
 3578W        W 5778  23.066   4.402  31.088  0.1916  0.0279 -0.0822
 3579W        W 5779  22.982   0.654   6.927 -0.0618  0.1910  0.2086
 3580W        W 5780  23.761   5.335  22.815  0.1371  0.0698 -0.0880
 3581W        W 5781  14.001   5.041  34.767  0.0418 -0.0374 -0.2973
 3582W        W 5782   8.217   2.295   1.049  0.0494  0.3229 -0.2303
 3583W        W 5783   3.233   5.028  11.693 -0.1911 -0.0957 -0.0310
 3584W        W 5784   0.586   1.402  28.117 -0.1914  0.0461 -0.1286
 3585W        W 5785  12.995   2.325  34.988 -0.0836 -0.0172 -0.1348
 3586W        W 5786  11.308   3.607  12.546  0.1448 -0.3123 -0.1530
 3587W        W 5787   4.700   0.037  28.067 -0.0965  0.3301 -0.1656
 3588W        W 5788  17.465   6.237  30.261  0.1442 -0.2947 -0.2619
 3589W        W 5789   7.992   2.603  21.638  0.0426  0.0136  0.1159
 3590W        W 5790   0.238   1.802   2.969  0.0106  0.2548  0.0116
 3591W        W 5791   9.546   0.954   1.431  0.2487  0.0491 -0.0090
 3592W        W 5792   4.914   3.664  33.359 -0.2764  0.2758  0.0840
 3593W        W 5793  21.155   0.561  12.190  0.4620  0.1042 -0.2358
 3594W        W 5794  21.365   3.271  22.660 -0.0513 -0.1266 -0.2863
 3595W        W 5795   7.591   5.347  11.329  0.3313 -0.2724  0.2539
 3596W        W 5796  13.452   1.769   7.146  0.0361 -0.0660 -0.1875
 3597W        W 5797  21.403   0.163   7.841  0.0439  0.0364 -0.1901
 3598W        W 5798  10.544   0.590   2.233  0.4692 -0.0679 -0.0999
 3599W        W 5799   6.280   5.885  22.170 -0.1039  0.1452 -0.0950
 3600W        W 5800  18.787   6.283   7.598 -0.0467 -0.0185 -0.0383
 3601W        W 5801  20.353   5.906  26.191  0.0710 -0.2609  0.3410
 3602W        W 5802  21.975   2.483  11.304  0.0963 -0.0797  0.0311
 3603W        W 5803   9.217   2.194  28.600 -0.2906  0.0719  0.1404
 3604W        W 5804  24.426   2.276   2.427 -0.1017  0.0347  0.0770
 3605W        W 5805  26.291   5.249  29.070 -0.1648  0.1327 -0.2799
 3606W        W 5806  24.904   0.501  30.127 -0.3952  0.2946 -0.1641
 3607W        W 5807   6.114   4.130  34.797 -0.4978 -0.1615  0.4151
 3608W        W 5808  13.294   2.405   1.787  0.0324  0.1580  0.1341
 3609W        W 5809  18.627   4.056  13.438 -0.2254  0.1045  0.0172
 3610W        W 5810   3.161   4.632  21.643  0.0778  0.4263  0.0563
 3611W        W 5811   1.234   5.738  24.809 -0.2114  0.1817 -0.0696
 3612W        W 5812  21.599   0.357  22.839 -0.2956 -0.0997  0.0005
 3613W        W 5813  13.636   0.495   9.281 -0.0697  0.1714 -0.3690
 3614W        W 5814  12.628   5.742   8.216  0.4428  0.0904  0.1048
 3615W        W 5815  17.787   5.297  24.656  0.2995 -0.3928  0.2167
 3616W        W 5816   6.761   5.709  20.809  0.5737 -0.0455 -0.2847
 3617W        W 5817   3.768   2.278  26.690  0.1860  0.0723  0.2595
 3618W        W 5818  18.718   2.109   9.356 -0.0478  0.2758 -0.0507
 3619W        W 5819  18.220   2.900  34.183 -0.0065  0.1045  0.4195
 3620W        W 5820  15.718   0.250  13.480  0.0874  0.3193 -0.0499
 3621W        W 5821  22.092   0.440  35.549 -0.1658  0.0786 -0.0226
 3622W        W 5822   3.392   0.122  27.316  0.0928 -0.0127 -0.1630
 3623W        W 5823  12.892   4.013  35.220  0.1371  0.2094  0.0087
 3624W        W 5824   5.913   2.807  22.634 -0.1096 -0.1175  0.3421
 3625W        W 5825  25.086   2.668  34.262 -0.1158  0.0511  0.1127
 3626W        W 5826   6.805   2.699  34.098  0.1021  0.2225 -0.3206
 3627W        W 5827   6.789   3.171  30.992 -0.0846 -0.0535 -0.0507
 3628W        W 5828  17.793   3.205   1.260  0.3192 -0.0435  0.0692
 3629W        W 5829  18.185   0.532  11.894  0.1097  0.1198  0.0529
 3630W        W 5830  20.768   0.026  28.073 -0.0132 -0.2205  0.3752
 3631W        W 5831  13.678   0.351  28.154  0.2015  0.0475  0.2756
 3632W        W 5832  21.281   4.115  35.654  0.1065 -0.1108  0.0754
 3633W        W 5833   2.034   0.258  25.929 -0.2770  0.1446 -0.0857
 3634W        W 5834   0.329   1.926   5.636 -0.0018 -0.2044  0.2507
 3635W        W 5835   9.895   3.126   2.893  0.1066  0.0625 -0.1800
 3636W        W 5836  11.845   1.223   5.269 -0.1480 -0.1495 -0.0573
 3637W        W 5837   9.381   5.931  22.362 -0.2280  0.0566  0.0556
 3638W        W 5838  23.374   1.223  21.360 -0.1765  0.0645 -0.0136
 3639W        W 5839  13.860   4.700   0.818  0.4510 -0.3216 -0.2925
 3640W        W 5840  17.011   3.450  27.618  0.2559  0.1489 -0.2031
 3641W        W 5841   5.576   0.082  23.905 -0.1920 -0.0041 -0.0036
 3642W        W 5842  23.663   2.237  10.660  0.3572  0.2963 -0.2961
 3643W        W 5843  20.531   5.738  35.072  0.0970  0.2708  0.0312
 3644W        W 5844  10.822   4.883  23.872 -0.2361  0.0576 -0.0057
 3645W        W 5845  11.515   5.621  11.134 -0.0426  0.2469 -0.3014
 3646W        W 5846  15.498   1.473   0.293 -0.0614  0.0864 -0.0141
 3647W        W 5847  16.954   1.896  33.214 -0.0859  0.0420  0.3334
 3648W        W 5848  21.818   6.463  21.587 -0.2153  0.1421 -0.0138
 3649W        W 5849  22.249   4.976  23.468  0.0924  0.2753  0.3649
 3650W        W 5850  16.283   5.056   8.403 -0.1487  0.1816  0.1042
 3651W        W 5851   6.589   2.225   2.206 -0.2555 -0.1577 -0.1396
 3652W        W 5852  11.756   2.494  29.033 -0.1844  0.0935  0.0866
 3653W        W 5853   6.112   3.458  12.704 -0.0123  0.1781  0.0093
 3654W        W 5854   7.348   3.441   4.860  0.0364 -0.0832 -0.1469
 3655W        W 5855  23.050   3.451  26.175  0.2489 -0.0377 -0.2121
 3656W        W 5856   3.838   2.293  12.869  0.2374 -0.2488 -0.2010
 3657W        W 5857   1.213   2.073  35.555  0.1634 -0.1326  0.0295
 3658W        W 5858  17.156   6.150  15.883 -0.0283  0.0011 -0.0230
 3659W        W 5859   2.881   6.070  27.485  0.1840  0.1834 -0.0095
 3660W        W 5860  26.225   3.222  22.491  0.3405 -0.0834 -0.1754
 3661W        W 5861   2.902   5.502  20.939 -0.0284  0.3328 -0.0228
 3662W        W 5862   7.689   4.288  35.654  0.1788  0.4191  0.0117
 3663W        W 5863  22.192   4.447   6.885 -0.0606 -0.1221 -0.0605
 3664W        W 5864  20.357   2.083  23.318 -0.3461 -0.0424  0.2721
 3665W        W 5865  14.027   2.403  28.567  0.1943  0.0863  0.3070
 3666W        W 5866  13.207   1.176  25.488  0.2455 -0.0001  0.4646
 3667W        W 5867   1.310   3.528  13.657  0.0774  0.0860 -0.2511
 3668W        W 5868  22.432   1.753   6.579  0.0673  0.1076  0.1973
 3669W        W 5869  23.087   1.913   8.200  0.1088 -0.0562 -0.0731
 3670W        W 5870   0.403   1.944  24.495  0.2089  0.3201  0.5330
 3671W        W 5871  13.062   6.080  11.097  0.0636  0.0653 -0.3638
 3672W        W 5872   8.625   5.781  21.035  0.1479  0.1981 -0.1192
 3673W        W 5873   7.470   5.644  21.633  0.2654 -0.0585 -0.0356
 3674W        W 5874  17.689   3.709  13.291 -0.2577  0.0326  0.0504
 3675W        W 5875   8.734   3.729  26.801  0.1150  0.0713 -0.2168
 3676W        W 5876  26.103   2.507   7.086 -0.2703  0.1595 -0.2106
 3677W        W 5877  24.958   6.223   6.111 -0.0049  0.3857 -0.0757
 3678W        W 5878  11.040   3.216  12.546 -0.3655 -0.0465  0.1866
 3679W        W 5879   6.637   1.849  33.553  0.0950 -0.2059  0.3672
 3680W        W 5880   8.309   6.013  12.130  0.2527 -0.3728  0.0051
 3681W        W 5881  11.761   4.258  28.981  0.2670  0.2626  0.2777
 3682W        W 5882   8.981   5.302  10.954 -0.0413  0.5715 -0.3582
 3683W        W 5883  14.771   5.184  29.597 -0.1647 -0.2753  0.2437
 3684W        W 5884  24.417   0.908   7.172  0.1133  0.0627  0.2274
 3685W        W 5885   7.770   1.822   0.554  0.0136 -0.0499 -0.2426
 3686W        W 5886   1.916   3.544   6.694  0.2378 -0.1959  0.0652
 3687W        W 5887  23.176   5.150   1.656  0.2838  0.2532  0.1051
 3688W        W 5888  17.312   0.006   3.534 -0.0808 -0.1673  0.1454
 3689W        W 5889   2.971   3.172  10.906 -0.0026  0.0427  0.0794
 3690W        W 5890  16.860   2.562  14.626 -0.3482 -0.1675  0.3762
 3691W        W 5891   6.534   0.128  23.124  0.0782 -0.2185  0.1176
 3692W        W 5892   8.396   4.645  35.570 -0.2899  0.0321  0.0914
 3693W        W 5893   7.377   0.330  21.928 -0.0983  0.3535  0.1275
 3694W        W 5894   9.816   6.177  25.372 -0.1988 -0.2170  0.3718
 3695W        W 5895  18.988   1.158  15.924  0.2522  0.1850  0.3600
 3696W        W 5896   9.291   0.745  33.817 -0.0021 -0.1553 -0.0221
 3697W        W 5897   6.000   1.876  22.685 -0.0977 -0.0026 -0.1684
 3698W        W 5898  14.985   6.089  13.686 -0.2036  0.1068  0.0931
 3699W        W 5899   9.721   3.629  27.012 -0.1368  0.0263  0.1666
 3700W        W 5900  26.007   1.914   2.190  0.0446  0.0813 -0.0395
 3701W        W 5901   3.573   3.202  24.447 -0.0390 -0.0766  0.3173
 3702W        W 5902  15.768   2.931   2.433  0.0234 -0.2557  0.0317
 3703W        W 5903   8.126   1.560   6.164 -0.0111  0.2139  0.2695
 3704W        W 5904   9.737   5.395  10.938  0.4386  0.0571 -0.0421
 3705W        W 5905   4.454   4.564   4.530 -0.1547  0.3693 -0.1130
 3706W        W 5906   7.121   2.929  31.628  0.0014  0.1461 -0.0781
 3707W        W 5907  10.332   1.371  30.417  0.3319  0.1015 -0.1640
 3708W        W 5908   4.854   0.814  14.215  0.0851  0.0416  0.1377
 3709W        W 5909  18.884   1.922  20.170 -0.0865  0.0381 -0.1497
 3710W        W 5910   2.116   0.336  28.849  0.6118 -0.1849  0.1574
 3711W        W 5911   6.002   3.826  24.077  0.1994  0.0315 -0.1664
 3712W        W 5912  24.353   6.289  30.202  0.1146 -0.0651  0.3168
 3713W        W 5913  19.960   2.534  33.828 -0.3349  0.0793  0.1405
 3714W        W 5914   5.454   3.998  34.602  0.0102  0.0425  0.4452
 3715W        W 5915   3.468   6.173  23.790  0.0470 -0.3324 -0.0689
 3716W        W 5916  21.431   1.700  20.690  0.0999 -0.2516 -0.2004
 3717W        W 5917   7.183   2.861  27.011  0.1875  0.1587 -0.0453
 3718W        W 5918   9.863   2.728   6.114  0.4276  0.0550 -0.1504
 3719W        W 5919   4.141   5.469  31.867  0.1124 -0.2043  0.0594
 3720W        W 5920  11.453   5.146   7.107 -0.1418  0.0937  0.2711
 3721W        W 5921  13.761   3.390   0.514  0.1719  0.3714 -0.1303
 3722W        W 5922   2.251   0.159  11.942  0.3050  0.1273  0.0086
 3723W        W 5923   5.395   5.277  15.463 -0.1519 -0.0455  0.2765
 3724W        W 5924  10.479   2.356  35.646  0.1089  0.3380  0.2246
 3725W        W 5925  11.974   5.368  15.743 -0.0086  0.4316 -0.0823
 3726W        W 5926  22.232   1.231  26.299 -0.2023  0.1845 -0.0953
 3727W        W 5927   6.695   0.595  11.112 -0.1860 -0.1469  0.1520
 3728W        W 5928   8.356   6.355  31.479  0.0612 -0.1406  0.0804
 3729W        W 5929   9.111   1.466  34.253  0.2542  0.2385 -0.0573
 3730W        W 5930  22.937   0.910  15.696 -0.0719 -0.0573  0.0588
 3731W        W 5931   9.639   1.746  10.009 -0.1877 -0.0230 -0.0795
 3732W        W 5932  12.463   3.039  25.579  0.0035 -0.0294  0.0677
 3733W        W 5933  20.276   2.803   7.934  0.0909 -0.1033  0.1445
 3734W        W 5934  12.247   5.800   9.132  0.0232  0.2188  0.0675
 3735W        W 5935   6.688   0.872   3.834  0.0385 -0.1184  0.0569
 3736W        W 5936  24.933   6.591  15.083 -0.0278 -0.0376 -0.1585
 3737W        W 5937   4.334   2.751  12.114 -0.0932  0.2897 -0.1077
 3738W        W 5938   2.850   0.411   1.506  0.1804  0.1397  0.2469
 3739W        W 5939  20.160   2.540  25.306  0.1530  0.1822  0.1738
 3740W        W 5940  20.707   4.569   3.895 -0.2898  0.2438 -0.0714
 3741W        W 5941   2.066   0.945   2.477  0.0894  0.0279 -0.0742
 3742W        W 5942   3.051   6.533  28.804  0.0820 -0.0600  0.0552
 3743W        W 5943  21.607   6.078   8.577  0.0745  0.0699  0.0918
 3744W        W 5944  12.314   5.966  30.909 -0.1145  0.0349 -0.2407
 3745W        W 5945   8.318   4.491   4.490 -0.0444  0.1517 -0.1129
 3746W        W 5946  20.409   4.488  30.063  0.1800  0.3669 -0.0966
 3747W        W 5947  11.187   4.858  35.095 -0.5359 -0.0136 -0.1042
 3748W        W 5948  24.250   6.078  36.028 -0.1863  0.0416  0.0186
 3749W        W 5949   2.687   0.485  31.954 -0.0222  0.3552  0.1253
 3750W        W 5950   2.061   5.321   9.868 -0.1360 -0.1983  0.0354
 3751W        W 5951   8.521   0.761  21.490  0.1241 -0.0518 -0.0410
 3752W        W 5952  21.124   0.237  20.904  0.1291 -0.0870  0.1489
 3753W        W 5953  10.329   0.605  10.436 -0.1192 -0.2038 -0.1808
 3754W        W 5954  17.897   5.486  15.521  0.1413 -0.0434 -0.3502
 3755W        W 5955   7.136   3.695  10.746  0.0519 -0.1820  0.1387
 3756W        W 5956   6.980   4.328  26.567 -0.1244 -0.2384  0.2410
 3757W        W 5957   8.959   2.505   9.147 -0.3784  0.2797  0.1032
 3758W        W 5958  13.616   1.644  22.014  0.3376 -0.1587 -0.1874
 3759W        W 5959  19.428   5.260  33.300  0.2053  0.1895 -0.3189
 3760W        W 5960  15.392   2.901  31.700  0.0666  0.0666 -0.0074
 3761W        W 5961   6.847   3.031  22.327 -0.0183  0.0441 -0.1223
 3762W        W 5962  10.887   2.122  23.271  0.0489  0.0468  0.3595
 3763W        W 5963  21.489   3.163  21.546 -0.0541 -0.2068  0.3785
 3764W        W 5964  13.526   3.947  21.290  0.1725 -0.4079 -0.1978
 3765W        W 5965  25.149   5.495   4.972  0.1259 -0.2241 -0.1525
 3766W        W 5966  11.378   6.370   9.064  0.0300  0.4008  0.0708
 3767W        W 5967  25.557   0.070  21.510  0.0851 -0.0679  0.0236
 3768W        W 5968  11.783   0.199  24.416  0.0972  0.0602  0.0503
 3769W        W 5969  10.573   4.631  25.209  0.1757 -0.1730 -0.3539
 3770W        W 5970  13.986   4.326  27.246 -0.0402  0.2702 -0.2843
 3771W        W 5971   9.097   6.495  14.101  0.0733 -0.0407 -0.0493
 3772W        W 5972   4.286   2.872  33.579  0.3452  0.0397 -0.0645
 3773W        W 5973  15.086   2.970  22.689  0.1486 -0.0188 -0.0490
 3774W        W 5974   1.819   3.286  23.337  0.3867 -0.0371 -0.0932
 3775W        W 5975   2.023   4.989   5.947  0.1901  0.0672 -0.1591
 3776W        W 5976  22.092   3.506   8.155  0.0781  0.0987  0.0821
 3777W        W 5977   8.986   4.793  34.084  0.0730  0.1669 -0.0581
 3778W        W 5978  14.336   4.008  26.922 -0.0155  0.1188  0.1478
 3779W        W 5979   4.140   2.584   0.169  0.2402  0.0586 -0.2390
 3780W        W 5980  13.260   1.283  31.744  0.3795  0.2825 -0.1344
 3781W        W 5981   4.839   5.931  22.439  0.1439  0.0116  0.0317
 3782W        W 5982  16.962   5.787  31.540  0.0511 -0.3849 -0.2579
 3783W        W 5983  16.233   0.020   9.997 -0.0591 -0.0204  0.0389
 3784W        W 5984   1.519   5.619  11.822  0.0246  0.1524 -0.0458
 3785W        W 5985   9.505   6.498  30.331  0.0992 -0.4770  0.1249
 3786W        W 5986  24.814   4.276  13.040 -0.2970 -0.0038 -0.1345
 3787W        W 5987  18.461   0.974  25.436 -0.1096 -0.1622  0.2039
 3788W        W 5988  25.865   1.684   7.517  0.2434 -0.0334  0.1035
 3789W        W 5989   7.853   0.149  11.632  0.0117 -0.2532  0.3536
 3790W        W 5990  12.673   1.131  11.965  0.0051 -0.1673  0.1946
 3791W        W 5991  22.125   5.449  14.324 -0.1290  0.0820  0.1585
 3792W        W 5992   6.615   0.879  33.739  0.0256  0.1407 -0.1922
 3793W        W 5993   2.972   4.092  12.813 -0.4230 -0.4847 -0.3247
 3794W        W 5994   3.042   0.307   5.114  0.1010 -0.2849  0.2825
 3795W        W 5995  17.641   0.463  31.203  0.0560 -0.0929  0.0681
 3796W        W 5996  11.891   6.057  12.880 -0.0634 -0.1233 -0.1174
 3797W        W 5997  11.517   4.689  30.599  0.0101 -0.1672  0.1057
 3798W        W 5998   3.711   5.760  13.632 -0.0616  0.0995 -0.0529
 3799W        W 5999  10.876   4.622  24.308  0.0792  0.0666 -0.2504
 3800W        W 6000  19.901   3.188  29.145  0.2667  0.0624 -0.0204
 3801W        W 6001  23.677   0.203  28.296  0.2230  0.1289  0.2091
 3802W        W 6002  21.477   2.235  26.359  0.0223  0.1234 -0.0761
 3803W        W 6003  25.762   2.728   3.781 -0.3425  0.2166  0.0597
 3804W        W 6004  11.822   5.653   9.332 -0.0820  0.1625  0.1147
 3805W        W 6005  11.394   6.504  29.161  0.0014 -0.1688  0.2242
 3806W        W 6006  20.033   2.036  21.612 -0.2318  0.0873 -0.0309
 3807W        W 6007   1.515   3.632  34.351  0.1099 -0.1902  0.3310
 3808W        W 6008   2.680   6.556   3.410 -0.1855 -0.0825 -0.1179
 3809W        W 6009   6.495   2.183  31.950  0.1867  0.1778 -0.2976
 3810W        W 6010  13.920   4.996   3.671 -0.0690 -0.2022 -0.3145
 3811W        W 6011  13.052   0.783   7.404  0.1799  0.0213  0.1133
 3812W        W 6012  23.701   1.924   0.948 -0.0275 -0.0506 -0.1978
 3813W        W 6013  16.946   4.256  10.507  0.0922 -0.0338 -0.1846
 3814W        W 6014   1.938   0.905   6.115 -0.2282 -0.0296 -0.2447
 3815W        W 6015  23.492   4.322  33.675 -0.0079  0.1052 -0.3116
 3816W        W 6016  20.512   2.639   1.020  0.3318  0.3511  0.3123
 3817W        W 6017  17.597   0.274   1.209  0.1772  0.0327 -0.2317
 3818W        W 6018   9.744   2.626  21.558 -0.2056  0.0740  0.1110
 3819W        W 6019   0.185   5.256   3.238  0.0334 -0.1615 -0.3716
 3820W        W 6020  23.112   3.352  25.032  0.0241  0.1764  0.2080
 3821W        W 6021   4.963   1.750  28.162  0.3354  0.0454  0.1694
 3822W        W 6022  18.714   1.484   3.916  0.2069  0.0359  0.0583
 3823W        W 6023  16.787   5.812   2.403 -0.3362  0.0309 -0.1661
 3824W        W 6024   8.896   3.788  21.779  0.2097 -0.1089 -0.2482
 3825W        W 6025   5.262   1.951  24.327  0.2042 -0.0455  0.1121
 3826W        W 6026  24.816   0.959  12.675  0.1634 -0.3892  0.0480
 3827W        W 6027  24.721   4.141  32.287 -0.0916  0.3760 -0.2078
 3828W        W 6028   2.745   3.969  34.656 -0.0716  0.0274 -0.1087
 3829W        W 6029   6.287   6.283  23.260 -0.1800 -0.2466  0.0338
 3830W        W 6030   7.314   1.592  13.512  0.0595 -0.1597 -0.0947
 3831W        W 6031   1.094   4.195  25.454 -0.1791 -0.1293 -0.1343
 3832W        W 6032   8.847   3.298   1.255  0.1125  0.3146 -0.0418
 3833W        W 6033  12.273   4.038  33.847  0.0509  0.1142  0.0019
 3834W        W 6034  19.007   3.675  21.000 -0.0250 -0.0782 -0.1949
 3835W        W 6035  16.206   1.559  14.907  0.0847  0.0810  0.0649
 3836W        W 6036   5.583   4.331  32.422 -0.1094 -0.0598 -0.2233
 3837W        W 6037   9.298   2.827  21.814  0.0057  0.2152 -0.1865
 3838W        W 6038  16.918   5.924   1.858  0.2108 -0.1678  0.1107
 3839W        W 6039   9.903   3.786  11.090  0.0139 -0.0523 -0.1046
 3840W        W 6040  15.656   0.768  35.785 -0.1863  0.0643 -0.0103
 3841W        W 6041  12.934   5.528  28.633 -0.2262  0.1675  0.1232
 3842W        W 6042   5.592   4.752  20.993  0.0354 -0.0893 -0.0092
 3843W        W 6043   8.564   4.249   3.887  0.0395 -0.0667 -0.0308
 3844W        W 6044  16.889   2.554  14.019 -0.2237  0.1050  0.2145
 3845W        W 6045  18.664   5.763   1.113 -0.1389 -0.0361 -0.1071
 3846W        W 6046  10.251   1.239  14.191  0.0898  0.0389 -0.2716
 3847W        W 6047   6.845   5.355   2.206  0.2657  0.1812 -0.1587
 3848W        W 6048   9.795   1.423  31.348 -0.1448 -0.0184 -0.2946
 3849W        W 6049  18.519   1.289  12.501  0.1785 -0.0810  0.1818
 3850W        W 6050  10.640   4.878  11.169  0.1424  0.2513  0.1089
 3851W        W 6051   7.790   5.766  32.043  0.0575 -0.2526 -0.0905
 3852W        W 6052  14.918   0.525   3.727 -0.2734  0.0790 -0.0966
 3853W        W 6053   4.450   2.197  21.391 -0.1261  0.0026  0.0354
 3854W        W 6054   2.489   2.998  23.465 -0.1545 -0.2090  0.2242
 3855W        W 6055  13.616   5.207  30.445 -0.1769 -0.0621 -0.3446
 3856W        W 6056  10.909   1.308  28.012 -0.0892  0.2580  0.0720
 3857W        W 6057   8.580   3.415  35.553 -0.0680  0.0690 -0.2521
 3858W        W 6058   2.923   6.447   5.339 -0.2313 -0.0434  0.0848
 3859W        W 6059  10.080   1.424  21.339 -0.0759 -0.1262  0.2907
 3860W        W 6060  24.696   0.426   4.637 -0.0060 -0.0935  0.2508
 3861W        W 6061  22.582   5.043  21.046 -0.2510  0.1014 -0.3346
 3862W        W 6062   7.855   5.079  29.172  0.1421  0.0016 -0.0464
 3863W        W 6063   3.234   0.464  28.658  0.3348 -0.1598 -0.0983
 3864W        W 6064  15.113   5.851   7.892 -0.0306 -0.2299  0.4450
 3865W        W 6065   1.705   3.770  14.426  0.1496  0.2401  0.3082
 3866W        W 6066  13.635   6.072  12.308 -0.2710 -0.2184 -0.0430
 3867W        W 6067  20.302   4.524   2.052 -0.1673  0.0997 -0.2101
 3868W        W 6068  11.326   3.024  24.264 -0.3653 -0.2312 -0.0914
 3869W        W 6069  19.736   1.615   8.019  0.3467  0.0086  0.0717
 3870W        W 6070   0.692   1.986  30.008  0.2659  0.4344  0.0796
 3871W        W 6071   7.571   1.624   8.469  0.2216  0.2042  0.0544
 3872W        W 6072   8.025   1.438  26.075 -0.1149  0.0130 -0.0696
 3873W        W 6073  13.004   2.927   6.101 -0.1719  0.3441 -0.2159
 3874W        W 6074   4.734   2.302  26.333 -0.1001 -0.1411  0.0096
 3875W        W 6075  20.029   1.107   9.120  0.1930  0.0171  0.0265
 3876W        W 6076   9.434   1.555  22.586 -0.0794 -0.0430  0.3653
 3877W        W 6077  10.323   3.565  11.382  0.1561 -0.0357  0.1526
 3878W        W 6078   1.721   6.290  28.588 -0.0923 -0.3013 -0.1067
 3879W        W 6079  26.383   0.729   0.242 -0.2136 -0.1577  0.0799
 3880W        W 6080  22.043   4.896   4.206  0.0935  0.0492 -0.0300
 3881W        W 6081   8.795   1.312  10.621  0.0006 -0.2456  0.1759
 3882W        W 6082   6.001   0.027  26.759  0.2737  0.0130 -0.1459
 3883W        W 6083   9.320   5.710  29.158 -0.0334 -0.1086  0.0943
 3884W        W 6084  11.571   2.932  15.812  0.2461 -0.0427  0.1100
 3885W        W 6085  11.861   5.445  25.365 -0.2133  0.0415  0.0953
 3886W        W 6086  13.045   1.800   8.664  0.3326  0.1496  0.1558
 3887W        W 6087  11.544   1.205   8.460  0.0768  0.1341 -0.3018
 3888W        W 6088  21.871   0.516   9.649 -0.0489  0.1577  0.1541
 3889W        W 6089  24.112   1.105  30.530 -0.0049 -0.0071 -0.0841
 3890W        W 6090  17.462   2.639  11.853 -0.0149 -0.0061  0.0191
 3891W        W 6091  18.754   6.584  12.250  0.0538 -0.2741 -0.0720
 3892W        W 6092   9.764   0.221  13.180  0.1005 -0.1992 -0.1003
 3893W        W 6093  11.194   2.251  10.408  0.0955  0.0869  0.0325
 3894W        W 6094  17.351   5.967  32.669 -0.0681  0.1222  0.0808
 3895W        W 6095   6.333   4.614   2.020 -0.5122 -0.0651  0.1022
 3896W        W 6096  24.654   3.073  11.487  0.2086 -0.0970  0.2553
 3897W        W 6097  19.719   3.468  29.661  0.0935  0.0460 -0.0311
 3898W        W 6098  22.191   1.366  14.090 -0.2292  0.0412  0.1715
 3899W        W 6099  19.409   1.804  32.541 -0.4024  0.0935  0.2758
 3900W        W 6100   2.696   3.079  32.330 -0.2114  0.0799  0.0485
 3901W        W 6101  11.965   4.758  25.574  0.1338 -0.1158 -0.2129
 3902W        W 6102  13.980   4.348  30.312  0.1214 -0.0700  0.2654
 3903W        W 6103  16.835   3.011  14.939  0.0420 -0.0847 -0.2271
 3904W        W 6104  18.200   1.611   7.614 -0.1447  0.0474 -0.1079
 3905W        W 6105   4.330   0.202  21.106 -0.0680  0.0264  0.1924
 3906W        W 6106   2.033   2.950   4.097 -0.1835 -0.0777 -0.1272
 3907W        W 6107  22.851   0.900  29.179  0.0522 -0.0120  0.0064
 3908W        W 6108  12.486   4.499  12.196  0.0550 -0.0097 -0.0873
 3909W        W 6109  11.971   2.734   3.044  0.2619 -0.0634  0.2676
 3910W        W 6110   9.102   0.638  24.644 -0.0793 -0.1823  0.0239
 3911W        W 6111   5.835   2.119  27.435  0.1996  0.0208 -0.0576
 3912W        W 6112   3.634   0.166   1.638  0.0502  0.2356  0.1318
 3913W        W 6113   8.297   3.318   5.021 -0.1396  0.1685  0.2207
 3914W        W 6114   3.593   5.346  23.368 -0.3427 -0.1527  0.3284
 3915W        W 6115   3.946   5.344   4.966 -0.2303  0.1383  0.2789
 3916W        W 6116  24.022   4.710  14.306 -0.1011 -0.0306  0.3017
 3917W        W 6117   9.184   5.992  30.991 -0.1426  0.1239 -0.0902
 3918W        W 6118   7.988   4.478  11.433  0.0173  0.1479  0.1172
 3919W        W 6119   7.441   3.744  12.209 -0.2384  0.0937  0.3011
 3920W        W 6120   3.145   2.998  33.615 -0.2069 -0.1485  0.0918
 3921W        W 6121  22.636   1.264  33.261  0.4181  0.2282  0.0566
 3922W        W 6122   4.365   3.840  14.394 -0.0363  0.2678 -0.4865
 3923W        W 6123  12.997   3.996  30.204  0.1611  0.1464 -0.0473
 3924W        W 6124  20.004   0.298  23.005 -0.1660  0.2787 -0.2131
 3925W        W 6125  24.671   1.176  32.626  0.0151  0.0316 -0.0250
 3926W        W 6126  23.429   5.470   1.278 -0.2724  0.3273 -0.0154
 3927W        W 6127  10.465   5.486  25.306 -0.1754 -0.1461  0.0454
 3928W        W 6128  12.799   0.376  35.550 -0.1921 -0.1028  0.1690
 3929W        W 6129   1.273   3.454  23.199 -0.2264  0.3462  0.1290
 3930W        W 6130   0.890   0.260   8.514 -0.2797  0.2958  0.0360
 3931W        W 6131  19.350   0.906  31.153 -0.1761  0.1898  0.1566
 3932W        W 6132  18.984   6.346   8.416 -0.0588  0.1125  0.1958
 3933W        W 6133  22.578   1.695  26.531  0.4582  0.2054  0.0667
 3934W        W 6134  24.040   3.615  29.596 -0.0253 -0.2172  0.0262
 3935W        W 6135   6.588   2.060  14.706 -0.1086  0.0150 -0.1254
 3936W        W 6136   9.197   5.488   6.262  0.1905 -0.2549 -0.0771
 3937W        W 6137   0.823   5.344  12.225  0.0649  0.2782 -0.2301
 3938W        W 6138   0.046   0.726   0.798  0.0130  0.2915 -0.2583
 3939W        W 6139   3.016   5.483  13.884  0.0552  0.0838  0.1291
 3940W        W 6140   7.611   2.145  31.378 -0.4934 -0.1528  0.1588
 3941W        W 6141   8.616   4.606  36.002  0.1100  0.2903 -0.0876
 3942W        W 6142  23.216   6.506  35.607 -0.1782 -0.2200  0.2591
 3943W        W 6143  14.570   5.210  30.169  0.1395 -0.2084  0.2517
 3944W        W 6144   2.538   2.256  10.290 -0.0953  0.3901 -0.2571
 3945W        W 6145  17.466   5.328   1.191 -0.5615  0.5039 -0.0642
 3946W        W 6146  24.803   5.502  12.392  0.1522 -0.2767  0.0699
 3947W        W 6147  11.733   0.016  35.347  0.0173  0.0529 -0.1184
 3948W        W 6148   0.435   1.185  15.355 -0.0121 -0.1695 -0.1940
 3949W        W 6149  24.506   2.692   3.988 -0.2165  0.3858 -0.1350
 3950W        W 6150  15.660   3.784  14.250 -0.1186 -0.1107  0.3927
 3951W        W 6151  23.660   6.320  35.343 -0.3028 -0.0464 -0.0740
 3952W        W 6152  12.093   6.015  21.951  0.4156  0.2188  0.0205
 3953W        W 6153  18.894   0.599   4.217  0.1335 -0.1431 -0.0179
 3954W        W 6154  19.590   2.608  28.033  0.0787 -0.4257 -0.0204
 3955W        W 6155  24.631   1.211   1.267 -0.1282  0.2481 -0.2639
 3956W        W 6156  22.336   6.354  22.504  0.2038 -0.1053 -0.1562
 3957W        W 6157  21.413   5.688   8.380  0.4114  0.1048 -0.1682
 3958W        W 6158  19.707   3.376  25.510  0.3473  0.2551 -0.2509
 3959W        W 6159   0.961   0.322   7.971 -0.1444  0.1437  0.2358
 3960W        W 6160  25.675   0.299  27.611 -0.3369  0.2188 -0.3298
 3961W        W 6161  25.317   2.192  23.645  0.1526 -0.1796 -0.0465
 3962W        W 6162  26.220   6.551   0.071  0.1136  0.1739 -0.0430
 3963W        W 6163  14.509   5.832  21.508 -0.1927 -0.1865  0.0409
 3964W        W 6164  16.769   6.368   7.343  0.2593 -0.0310  0.0215
 3965W        W 6165  18.174   1.898  22.250 -0.1810  0.1215  0.3249
 3966W        W 6166   2.688   3.250  26.616  0.0529  0.1203 -0.3097
 3967W        W 6167  13.770   3.802  31.140  0.1074 -0.2446 -0.2407
 3968W        W 6168   9.192   5.202  23.924 -0.2234 -0.1112  0.0409
 3969W        W 6169   1.559   5.533  25.857 -0.1328 -0.0906 -0.0771
 3970W        W 6170   4.182   6.077  22.333  0.0049  0.1024 -0.1120
 3971W        W 6171   2.787   5.131  20.669  0.0898  0.0524  0.0872
 3972W        W 6172  19.571   3.881  12.443 -0.1468 -0.3967 -0.0898
 3973W        W 6173  12.282   1.524  31.891  0.1667 -0.0931 -0.0357
 3974W        W 6174  18.998   5.789   0.157 -0.1089 -0.1802  0.3033
 3975W        W 6175   4.176   4.732   0.556  0.0494 -0.0396 -0.1689
 3976W        W 6176   8.245   6.513  29.392 -0.1909 -0.1693 -0.1434
 3977W        W 6177   1.405   2.974  11.183 -0.0519  0.3739  0.0611
 3978W        W 6178   1.567   5.849  35.944  0.2690  0.0669 -0.1678
 3979W        W 6179   9.828   5.478   2.880  0.0190  0.0255  0.2402
 3980W        W 6180  10.230   5.034   3.919 -0.0022 -0.2596  0.0655
 3981W        W 6181  24.335   0.220  12.356  0.2235 -0.0817 -0.3425
 3982W        W 6182  25.347   3.890  23.313  0.0681 -0.0956 -0.0573
 3983W        W 6183  16.413   0.035  23.974 -0.1198  0.0701 -0.0536
 3984W        W 6184   4.524   2.959  25.841  0.5425  0.1737 -0.0687
 3985W        W 6185  26.218   5.949  11.783  0.0846  0.0322  0.0822
 3986W        W 6186   8.222   2.094  27.800  0.0566 -0.4169  0.0748
 3987W        W 6187   2.792   0.379   8.316  0.1346 -0.0023  0.1374
 3988W        W 6188   5.616   5.019   1.816  0.2133 -0.2976  0.0104
 3989W        W 6189   4.170   0.990  12.026 -0.0969 -0.1960 -0.0146
 3990W        W 6190  14.571   0.381   9.631  0.3544 -0.0366  0.1201
 3991W        W 6191  25.439   0.689  34.798 -0.2602 -0.2158  0.3141
 3992W        W 6192   1.914   2.998   1.601  0.0208 -0.0610 -0.1975
 3993W        W 6193   0.035   2.295  28.412 -0.1103  0.0626  0.0500
 3994W        W 6194  18.083   5.849  21.936  0.4336  0.0059  0.1252
 3995W        W 6195  25.378   4.865  13.900 -0.0430 -0.0538  0.0655
 3996W        W 6196  10.496   2.981  27.189  0.0131  0.3453 -0.0263
 3997W        W 6197  19.699   0.913  33.607  0.2912  0.1266 -0.1964
 3998W        W 6198   5.264   1.039  13.867  0.0553  0.2456 -0.2141
 3999W        W 6199  10.507   2.605   7.725  0.0505  0.2248 -0.4193
 4000W        W 6200  22.684   1.820   3.109  0.1855 -0.0547 -0.3256
 4001W        W 6201  19.214   2.770  32.836 -0.0590 -0.0194 -0.1230
 4002W        W 6202  13.123   0.170   5.071  0.1255 -0.1995 -0.0662
 4003W        W 6203  14.072   2.750  13.737 -0.3495 -0.0477 -0.0532
 4004W        W 6204  17.652   3.888   9.409 -0.0037 -0.0967  0.1130
 4005W        W 6205  23.716   3.199  28.174  0.0938  0.0996  0.1100
 4006W        W 6206  18.484   2.637  35.885 -0.2216  0.1782  0.1318
 4007W        W 6207  21.707   2.079   1.444  0.0130 -0.2425 -0.4656
 4008W        W 6208  14.899   0.243   0.907  0.3585 -0.1701 -0.0054
 4009W        W 6209   2.588   3.904  31.887  0.1249  0.0798 -0.1154
 4010W        W 6210   2.819   5.722   2.351 -0.0857  0.0500  0.1910
 4011W        W 6211  20.952   4.594  10.543  0.1674 -0.1241 -0.0396
 4012W        W 6212  24.251   1.861   2.757  0.0211 -0.2665 -0.0657
 4013W        W 6213  25.400   0.468  29.968 -0.0404  0.2992  0.1890
 4014W        W 6214  16.752   5.373  26.425  0.3675  0.0031 -0.2424
 4015W        W 6215   7.156   1.701  24.817 -0.0420 -0.0307 -0.3751
 4016W        W 6216   6.550   2.771  35.589 -0.1914  0.1580 -0.1196
 4017W        W 6217  17.637   4.337  24.124  0.0050  0.0469 -0.2398
 4018W        W 6218   0.462   4.682  34.756  0.1789  0.0054  0.1152
 4019W        W 6219  12.122   1.293  30.846  0.3295 -0.2264  0.0441
 4020W        W 6220  21.382   5.572  12.212 -0.0753  0.0570 -0.1666
 4021W        W 6221  10.966   2.357  33.568  0.3491 -0.0352  0.0036
 4022W        W 6222   8.721   2.424  34.523  0.0995  0.1906  0.0193
 4023W        W 6223   3.432   1.745  14.525 -0.2549 -0.1196 -0.4292
 4024W        W 6224  14.900   2.479   5.116 -0.1491  0.0819  0.3665
 4025W        W 6225  16.598   2.925  14.321 -0.2930 -0.0611  0.0961
 4026W        W 6226   8.127   0.522  26.336  0.0658 -0.3097  0.3869
 4027W        W 6227   8.987   6.396  34.764  0.2508  0.0903  0.2803
 4028W        W 6228  12.697   0.343  27.143  0.1513  0.1343 -0.1553
 4029W        W 6229   5.651   1.794  21.806  0.0519  0.2437  0.1767
 4030W        W 6230   0.372   2.792   0.918 -0.2899 -0.0083  0.1745
 4031W        W 6231  16.150   3.600  34.473  0.0061  0.0004 -0.0152
 4032W        W 6232   2.445   3.118  11.185  0.1834  0.1039 -0.2964
 4033W        W 6233  24.237   5.084  14.012 -0.1545  0.1757  0.1626
 4034W        W 6234  23.801   3.204  30.939  0.0568  0.1328 -0.2218
 4035W        W 6235  10.912   6.369   4.399  0.3405 -0.1187 -0.2269
 4036W        W 6236  23.586   5.743  28.512 -0.2082 -0.1990 -0.1096
 4037W        W 6237  13.634   4.509   5.284  0.0618 -0.0257  0.0453
 4038W        W 6238  18.127   3.537  30.099 -0.0408 -0.3813 -0.1323
 4039W        W 6239  24.187   3.828  35.403  0.2548  0.0738 -0.3192
 4040W        W 6240   2.517   6.257  12.428  0.0052  0.2566  0.0770
 4041W        W 6241  15.876   4.382  31.635 -0.3699 -0.1246  0.0051
 4042W        W 6242   5.595   1.823  15.602 -0.1334 -0.2114  0.0350
 4043W        W 6243  10.308   5.278  15.327 -0.3148 -0.2785 -0.0257
 4044W        W 6244   6.727   5.720   9.866  0.0946 -0.2372 -0.1678
 4045W        W 6245   9.700   1.357  27.631 -0.0062 -0.0764  0.0337
 4046W        W 6246   6.912   4.584  13.356 -0.0257  0.3142  0.1036
 4047W        W 6247  12.651   4.878   0.310  0.1377 -0.0899  0.1134
 4048W        W 6248   4.081   5.814  13.106  0.2020 -0.1058  0.1599
 4049W        W 6249   0.061   2.737   0.557  0.0344  0.3296 -0.0228
 4050W        W 6250  23.691   4.390  13.443  0.3563 -0.2424  0.1495
 4051W        W 6251  25.642   3.092  16.109  0.0294  0.2630  0.2576
 4052W        W 6252  16.455   4.022  10.430  0.1810 -0.2340  0.0292
 4053W        W 6253  26.144   1.521  31.487  0.2391  0.2764 -0.1197
 4054W        W 6254  21.655   3.240  12.074  0.0601  0.1028 -0.1813
 4055W        W 6255   2.616   2.612  29.677 -0.1566 -0.1061 -0.0229
 4056W        W 6256  17.230   2.274  22.610  0.1098 -0.1725 -0.0595
 4057W        W 6257   4.632   5.803   4.511 -0.1406 -0.1606 -0.0976
 4058W        W 6258  25.041   5.409  28.262 -0.0915  0.0066  0.0129
 4059W        W 6259  20.949   2.995   1.346  0.2699 -0.0992 -0.0391
 4060W        W 6260  14.275   3.700  28.238  0.0161 -0.2471 -0.0468
 4061W        W 6261  19.948   3.272  22.761  0.0510  0.1302  0.1469
 4062W        W 6262  23.250   4.771  10.796 -0.0179  0.1096 -0.1541
 4063W        W 6263   9.499   3.460   4.287 -0.0729 -0.2431  0.2179
 4064W        W 6264   3.821   2.996  20.386 -0.0943 -0.0722  0.2896
 4065W        W 6265  26.039   2.778   5.429 -0.3921  0.3445  0.2319
 4066W        W 6266  25.182   5.980   4.955 -0.0567  0.0608  0.1422
 4067W        W 6267  10.393   1.470  14.772  0.3988  0.1164  0.1776
 4068W        W 6268   9.261   1.675  23.053 -0.1474  0.2609 -0.3252
 4069W        W 6269   4.963   3.821  32.074 -0.4457  0.0380 -0.2382
 4070W        W 6270   8.038   2.787   7.685  0.0405  0.1884  0.3071
 4071W        W 6271   4.135   3.821  34.494 -0.2118  0.1168 -0.3638
 4072W        W 6272   4.094   2.679  34.485  0.4209  0.1143  0.2147
 4073W        W 6273   0.762   1.273  10.814  0.0781  0.1212  0.1392
 4074W        W 6274   8.214   1.344   2.514 -0.0650  0.3171  0.0555
 4075W        W 6275  20.360   4.127  15.303 -0.0676  0.0005 -0.3390
 4076W        W 6276   8.633   0.710  33.138 -0.0974 -0.2596 -0.1460
 4077W        W 6277   2.360   2.309  22.004 -0.0572  0.0467  0.0078
 4078W        W 6278  20.356   1.988   7.943 -0.0129  0.4943  0.2053
 4079W        W 6279   6.118   2.313  35.483  0.1647  0.1760 -0.3787
 4080W        W 6280  10.511   5.035  11.757 -0.0585  0.0731 -0.2676
 4081W        W 6281   4.758   2.744   4.834  0.0661 -0.1174  0.1610
 4082W        W 6282  24.796   2.456  23.815  0.0999 -0.0024  0.0772
 4083W        W 6283  17.767   6.522  33.370 -0.2013  0.1579 -0.1123
 4084W        W 6284   2.336   3.915  34.440  0.0984 -0.2522  0.0942
 4085W        W 6285  21.842   1.932  30.381 -0.0911 -0.3471  0.0487
 4086W        W 6286  16.577   1.760   7.734  0.0336  0.3649 -0.2792
 4087W        W 6287   7.577   5.429   6.749  0.0044  0.2747  0.0749
 4088W        W 6288  16.251   5.171  24.011 -0.0023 -0.0805 -0.2053
 4089W        W 6289  10.291   3.550   9.194 -0.1678  0.0029 -0.1654
 4090W        W 6290  15.963   5.465  12.390 -0.0774 -0.0607 -0.3338
 4091W        W 6291  16.470   1.926  12.214  0.1931  0.3406  0.0154
 4092W        W 6292  12.910   3.387  22.272 -0.1397  0.0283  0.0142
 4093W        W 6293  15.654   3.839  31.953 -0.1720  0.0537 -0.0017
 4094W        W 6294   1.572   3.122  10.689 -0.1189  0.0136 -0.0181
 4095W        W 6295  15.020   0.052  20.949  0.1567 -0.1177 -0.1232
 4096W        W 6296  23.409   2.966  27.831  0.1560  0.0749  0.1319
 4097W        W 6297  13.553   6.339  29.489  0.1372  0.0605 -0.2131
 4098W        W 6298  23.351   1.350  34.437 -0.1095  0.1156  0.0145
 4099W        W 6299   9.759   1.881  33.733 -0.0860  0.0874  0.2494
 4100W        W 6300  20.407   4.613  33.165  0.2496 -0.2592 -0.2086
 4101W        W 6301  19.801   0.703  14.925  0.1352 -0.0269  0.2289
 4102W        W 6302  24.280   5.016  25.910  0.0091  0.0268 -0.2041
 4103W        W 6303  15.060   2.678  11.280 -0.0441 -0.0290  0.0179
 4104W        W 6304  11.378   2.525  14.728 -0.2378  0.1478 -0.0647
 4105W        W 6305  19.111   5.534  26.229 -0.1150  0.4208  0.0372
 4106W        W 6306   7.509   0.672  26.638 -0.0326 -0.1936  0.0150
 4107W        W 6307  11.855   3.837   7.611 -0.1257  0.0364 -0.1420
 4108W        W 6308  23.182   0.397  22.506 -0.0848  0.0577 -0.2105
 4109W        W 6309  17.881   2.434  15.077 -0.0812  0.1018  0.0518
 4110W        W 6310   1.931   4.724   2.112  0.0131 -0.0246  0.1144
 4111W        W 6311  17.445   5.137  26.889  0.1894  0.1049  0.0701
 4112W        W 6312  26.378   3.221  27.074  0.0449  0.2782  0.2456
 4113W        W 6313  24.901   1.104  32.114 -0.0390  0.0863 -0.2239
 4114W        W 6314  20.330   4.369  20.782  0.0088  0.0804  0.0151
 4115W        W 6315  18.004   0.343  33.302  0.0790 -0.1990  0.1472
 4116W        W 6316  12.402   0.611   5.511 -0.0762  0.1548 -0.2602
 4117W        W 6317  23.670   1.463  28.787  0.0062 -0.0336 -0.0400
 4118W        W 6318  12.259   4.181  26.393 -0.0417 -0.0466 -0.1125
 4119W        W 6319  17.933   0.226   6.718 -0.0763 -0.1014  0.4382
 4120W        W 6320   5.423   2.782   6.319 -0.1324 -0.1732 -0.2546
 4121W        W 6321  12.052   4.049  11.303 -0.1583 -0.0352  0.0009
 4122W        W 6322   6.930   4.798  12.925 -0.2327  0.1805  0.3955
 4123W        W 6323   7.420   3.409   7.547 -0.2147 -0.0892  0.4983
 4124W        W 6324  15.296   0.921   3.425  0.0208  0.0871  0.0064
 4125W        W 6325  21.853   1.472  15.249  0.0261 -0.1737 -0.3513
 4126W        W 6326   4.121   3.101  26.166 -0.1196  0.1170  0.0632
 4127W        W 6327   8.534   0.522   6.098  0.0795  0.0503  0.1692
 4128W        W 6328   3.329   1.836  22.924  0.1862  0.0836 -0.0239
 4129W        W 6329   1.413   1.847  24.912  0.0309 -0.0504 -0.0927
 4130W        W 6330  11.600   3.270  28.844 -0.0034  0.0471  0.1200
 4131W        W 6331  14.320   2.025  31.149 -0.2313 -0.0125 -0.2241
 4132W        W 6332  14.208   6.318  28.417 -0.0915  0.0779 -0.2541
 4133W        W 6333  24.645   2.682  25.591  0.1792 -0.0128  0.0478
 4134W        W 6334   6.690   2.023  25.089  0.3303 -0.2641  0.0665
 4135W        W 6335   8.565   1.521   8.053  0.2305  0.1736 -0.3056
 4136W        W 6336  22.427   3.005  32.092 -0.0935  0.0379  0.0001
 4137W        W 6337  24.845   5.938   3.111 -0.2959 -0.1225 -0.1537
 4138W        W 6338  12.177   6.171  28.230 -0.0773 -0.1108  0.1898
 4139W        W 6339  22.991   5.341   6.248 -0.1397 -0.1887 -0.1295
 4140W        W 6340  21.640   6.316  20.475 -0.1513 -0.3024 -0.1425
 4141W        W 6341  23.611   2.573  22.614  0.1951 -0.0544 -0.0284
 4142W        W 6342  11.085   6.115  29.231 -0.0494 -0.0545  0.1417
 4143W        W 6343  16.612   0.328  21.149  0.1297 -0.0398 -0.2383
 4144W        W 6344  24.356   2.716   9.169 -0.0819  0.3358 -0.0813
 4145W        W 6345  20.856   3.325   2.624 -0.1827 -0.0857 -0.4196
 4146W        W 6346   7.291   0.384  14.330  0.0580  0.1916 -0.1079
 4147W        W 6347   3.830   2.728   1.677 -0.1882 -0.1812 -0.3227
 4148W        W 6348  19.884   5.526   9.818 -0.0568 -0.0208 -0.0988
 4149W        W 6349  23.128   3.238   1.688  0.1326 -0.1956  0.0483
 4150W        W 6350   5.506   6.265   5.176 -0.1017  0.0276 -0.1317
 4151W        W 6351  13.051   4.254  21.424 -0.0464  0.0981  0.0320
 4152W        W 6352  10.062   1.441  34.674  0.0187  0.0585 -0.1414
 4153W        W 6353  15.492   5.002   7.841  0.2348 -0.1033  0.2077
 4154W        W 6354  14.632   4.165  30.145 -0.1207 -0.0316 -0.1404
 4155W        W 6355   6.935   0.025  31.275 -0.0557  0.0729 -0.0284
 4156W        W 6356  14.232   3.541  33.830  0.0706 -0.1407  0.0197
 4157W        W 6357   8.652   5.367  10.090 -0.1574 -0.0734 -0.0549
 4158W        W 6358  11.186   0.099   0.031 -0.0907 -0.0370 -0.0515
 4159W        W 6359  14.686   0.765  23.287  0.0476  0.2233 -0.2068
 4160W        W 6360   7.016   4.590  36.044  0.0862 -0.0213  0.1538
 4161W        W 6361  25.496   0.062  20.534 -0.2177 -0.0586 -0.1942
 4162W        W 6362  16.931   4.057  29.781 -0.2198 -0.0291  0.2078
 4163W        W 6363   1.313   5.778  34.024 -0.0243 -0.0639  0.2122
 4164W        W 6364  13.314   0.792  34.978 -0.1642  0.0282  0.0777
 4165W        W 6365   5.218   0.592   1.045 -0.1101 -0.0980  0.0855
 4166W        W 6366  22.206   3.889  22.646 -0.0496  0.0486 -0.1086
 4167W        W 6367   2.501   4.858  30.997 -0.5107  0.0921  0.1613
 4168W        W 6368  23.279   6.039   0.242  0.3154  0.2681  0.1193
 4169W        W 6369   4.979   5.247  23.785 -0.1741 -0.1113  0.0181
 4170W        W 6370   6.860   5.262  23.902  0.1545 -0.0607 -0.3220
 4171W        W 6371   6.963   1.759  22.869 -0.0108 -0.0413  0.2335
 4172W        W 6372  25.800   0.459  35.049  0.1942  0.2102 -0.2247
 4173W        W 6373  24.046   2.490  26.632 -0.1080  0.0217  0.0585
 4174W        W 6374  11.311   0.131  24.404  0.1095 -0.2017  0.0197
 4175W        W 6375  10.692   1.006  32.403 -0.2269 -0.0786 -0.1976
 4176W        W 6376   0.035   2.381  14.008 -0.2769 -0.1000 -0.2035
 4177W        W 6377  24.115   5.964  28.200 -0.0755  0.0226 -0.1280
 4178W        W 6378  11.353   0.331  29.387  0.1352  0.0431 -0.2033
 4179W        W 6379  22.980   5.634  35.221 -0.1375 -0.1908  0.2885
 4180W        W 6380   6.294   6.415  21.176  0.0132  0.2576 -0.1523
 4181W        W 6381   1.088   4.446  35.529 -0.0063 -0.0079  0.0781
 4182W        W 6382  19.889   1.710  28.998  0.0639  0.2068  0.1129
 4183W        W 6383   5.196   3.525  10.067  0.1858  0.1020 -0.0898
 4184W        W 6384   0.313   1.575   1.629 -0.0055 -0.4711  0.2008
 4185W        W 6385   6.256   1.440  25.102 -0.1973  0.2089 -0.2011
 4186W        W 6386  10.731   6.537   6.467 -0.0656 -0.0390  0.0603
 4187W        W 6387  24.262   5.700  32.853 -0.0781  0.0843  0.1587
 4188W        W 6388  25.615   3.546   5.961 -0.0924 -0.2868 -0.3844
 4189W        W 6389   2.340   4.922  21.342 -0.1627 -0.1547  0.0608
 4190W        W 6390  12.557   5.950  29.536  0.0518  0.1148 -0.0332
 4191W        W 6391   1.837   2.739  11.354 -0.1740  0.0257 -0.0091
 4192W        W 6392  20.297   3.949  21.948 -0.4663 -0.2707 -0.0813
 4193W        W 6393  11.772   0.721  11.591 -0.1590 -0.0221 -0.1811
 4194W        W 6394  25.334   5.426  33.848  0.1080 -0.2205 -0.1114
 4195W        W 6395   6.196   5.512  34.858 -0.0103 -0.0113  0.1404
 4196W        W 6396  13.021   1.338  13.731  0.1156  0.2003 -0.0130
 4197W        W 6397  21.163   5.383  21.997  0.0083  0.3273 -0.2269
 4198W        W 6398   9.361   6.352  33.779  0.0050 -0.0742 -0.0076
 4199W        W 6399   6.267   2.268  14.092 -0.1807 -0.0093 -0.0592
 4200W        W 6400  25.693   3.567  25.993 -0.0212  0.1616  0.1034
 4201W        W 6401  26.273   5.603   9.463  0.0008  0.0307 -0.1006
 4202W        W 6402  22.521   2.033  22.020  0.2434  0.0155 -0.0445
 4203W        W 6403   2.172   3.756  10.587 -0.2498  0.1230 -0.2708
 4204W        W 6404  14.766   2.277  33.708 -0.1626 -0.0512  0.0422
 4205W        W 6405  18.180   2.103  35.626  0.1150 -0.0840 -0.1619
 4206W        W 6406  16.407   3.315  11.176  0.1492 -0.0630 -0.1454
 4207W        W 6407   1.947   4.643  11.595  0.3325 -0.0724  0.2319
 4208W        W 6408  17.246   2.103  26.497 -0.5902 -0.2865 -0.0511
 4209W        W 6409  23.241   6.292   8.767 -0.0053  0.0058  0.0966
 4210W        W 6410   9.686   4.487  28.675  0.2491  0.1017 -0.0211
 4211W        W 6411   6.099   3.042   2.207 -0.0289  0.1159  0.1589
 4212W        W 6412  20.911   3.798  10.734  0.2663 -0.2723 -0.0342
 4213W        W 6413  23.075   6.194  24.757  0.1085 -0.0754  0.3387
 4214W        W 6414   5.363   2.289  26.597 -0.0378  0.1045  0.0094
 4215W        W 6415  16.459   0.570   1.935  0.1105  0.0749  0.1715
 4216W        W 6416  19.493   3.252  32.576 -0.1343  0.0225  0.0154
 4217W        W 6417   4.330   6.112  12.784 -0.1252  0.2306  0.0120
 4218W        W 6418  16.215   0.146  21.499  0.1122  0.1551  0.0202
 4219W        W 6419   9.497   1.006  27.961 -0.2050  0.0429 -0.1713
 4220W        W 6420   1.900   4.509  12.822 -0.2577 -0.0183 -0.1346
 4221W        W 6421  25.110   2.966  35.555  0.2839  0.1921 -0.5190
 4222W        W 6422  17.519   3.242  21.677  0.0245 -0.0595  0.0537
 4223W        W 6423  11.912   2.376  24.703 -0.0880  0.3717  0.3488
 4224W        W 6424  12.613   0.739  28.888  0.0738 -0.0980 -0.0745
 4225W        W 6425  26.263   3.940   3.340  0.2980 -0.0531  0.3757
 4226W        W 6426  25.798   6.001  24.318  0.2904 -0.1767  0.3826
 4227W        W 6427  26.072   4.088  25.370  0.3378 -0.1657  0.2840
 4228W        W 6428   1.169   3.994  22.241 -0.1762 -0.1542  0.0352
 4229W        W 6429  14.968   3.070  35.104  0.3215 -0.0368  0.3551
 4230W        W 6430   1.124   3.949  20.455  0.0414 -0.1106  0.2314
 4231W        W 6431   4.735   0.225  34.828  0.0931 -0.1584  0.1318
 4232W        W 6432  19.107   1.978   4.498 -0.1248 -0.1775  0.0168
 4233W        W 6433   4.769   3.627  30.943 -0.0375 -0.1564 -0.0609
 4234W        W 6434  14.562   2.850  35.476 -0.3795 -0.1820 -0.0233
 4235W        W 6435  18.200   5.814  12.230  0.1118 -0.0687 -0.0536
 4236W        W 6436   4.007   5.299   9.592  0.1397 -0.0264  0.0155
 4237W        W 6437  22.552   2.397  12.781 -0.0717 -0.1504 -0.1209
 4238W        W 6438   1.969   0.938   3.010  0.1437  0.0958  0.0737
 4239W        W 6439  19.396   5.750  14.021 -0.3530  0.2541  0.4009
 4240W        W 6440  22.478   1.185  35.385  0.0707 -0.2336  0.0585
 4241W        W 6441   4.341   4.439  27.094 -0.1662 -0.0972 -0.1100
 4242W        W 6442   7.790   2.597  34.588  0.0994  0.1493  0.1733
 4243W        W 6443   4.043   3.918   2.816  0.1726  0.2124  0.1332
 4244W        W 6444   0.984   0.942  33.900 -0.1211  0.2011 -0.0800
 4245W        W 6445   7.599   6.174   5.710 -0.0651 -0.0632  0.0384
 4246W        W 6446   9.940   0.437  23.233 -0.3263 -0.0450 -0.2357
 4247W        W 6447   9.924   2.849  28.426 -0.0102 -0.2624 -0.4215
 4248W        W 6448  16.331   5.335  35.618 -0.1390  0.3746 -0.2287
 4249W        W 6449  14.543   2.784   8.942  0.2092 -0.0507 -0.2203
 4250W        W 6450  13.559   1.359   4.765 -0.0732  0.2215  0.0524
 4251W        W 6451   0.915   4.436  21.779  0.2291 -0.0486  0.0717
 4252W        W 6452  23.810   4.084  25.009 -0.0234 -0.1533 -0.1308
 4253W        W 6453   6.910   4.681   9.992  0.0563  0.0671  0.0580
 4254W        W 6454   6.082   4.323   9.361 -0.0937  0.0734 -0.2086
 4255W        W 6455   3.199   1.975  30.866 -0.0182  0.1509 -0.3005
 4256W        W 6456   2.121   1.806   7.196 -0.3442 -0.0288  0.1095
 4257W        W 6457  12.561   3.922  15.005  0.0659  0.1785 -0.1595
 4258W        W 6458   5.005   4.755  28.558 -0.2512  0.1092 -0.1870
 4259W        W 6459  18.921   2.668  22.932  0.1195 -0.0807  0.1743
 4260W        W 6460   0.351   4.916   5.101 -0.1348 -0.2608  0.3993
 4261W        W 6461  10.050   2.049   8.889 -0.2506  0.0560 -0.2671
 4262W        W 6462  21.186   2.507  30.723 -0.0656  0.1730 -0.0901
 4263W        W 6463  18.003   6.182  11.896 -0.2817 -0.1523 -0.1429
 4264W        W 6464  19.155   4.105  16.042  0.0820  0.0317  0.0850
 4265W        W 6465  14.091   1.340  34.737 -0.2500 -0.3122  0.2611
 4266W        W 6466   7.796   1.498  30.119 -0.1746  0.0390  0.1940
 4267W        W 6467   4.717   4.628  14.145 -0.0092 -0.2712  0.0325
 4268W        W 6468  26.083   4.066   5.352  0.0169  0.0964 -0.0659
 4269W        W 6469  25.945   0.207  33.257 -0.0779  0.0110  0.1245
 4270W        W 6470   6.538   2.243  33.847 -0.0562 -0.0695  0.0591
 4271W        W 6471   7.066   5.094  23.529  0.1174  0.2094  0.0480
 4272W        W 6472  11.418   4.814   3.266 -0.1840  0.1846  0.0162
 4273W        W 6473   0.939   1.351  22.235 -0.0419 -0.2832 -0.1451
 4274W        W 6474   5.835   4.237  29.213  0.0695 -0.2514  0.0814
 4275W        W 6475   8.744   4.849  23.784 -0.1505 -0.0458 -0.1609
 4276W        W 6476  24.833   0.803   1.598 -0.0366  0.2677  0.1416
 4277W        W 6477  17.116   5.808  34.098 -0.0003 -0.3617  0.1999
 4278W        W 6478   7.491   5.526   4.074 -0.0332  0.1156 -0.1028
 4279W        W 6479  23.383   4.224  22.048 -0.0775  0.0164  0.3791
 4280W        W 6480  24.698   5.591  27.915  0.0270 -0.2950  0.0318
 4281W        W 6481   4.136   0.167  23.087 -0.1931  0.0536  0.0222
 4282W        W 6482  13.865   5.678  23.957  0.2348 -0.0628  0.0343
 4283W        W 6483  23.110   1.688   9.811  0.1548  0.1268  0.2880
 4284W        W 6484  10.770   3.237  22.846 -0.1208 -0.1677 -0.3248
 4285W        W 6485   5.232   0.718   2.629  0.1944  0.1109 -0.2056
 4286W        W 6486  19.297   5.345  35.547  0.2511 -0.4244  0.5685
 4287W        W 6487  20.484   1.659  25.563  0.0018 -0.0612 -0.3549
 4288W        W 6488   0.444   5.979  13.772 -0.1750  0.0305  0.2019
 4289W        W 6489  19.491   5.603   7.376 -0.1135  0.2634  0.0114
 4290W        W 6490   0.667   3.741   0.192 -0.0044  0.2213 -0.3551
 4291W        W 6491  11.327   5.153  29.857  0.1552 -0.0454 -0.2546
 4292W        W 6492  21.104   0.723  10.749  0.2945  0.3130  0.1506
 4293W        W 6493   0.720   1.962  34.650 -0.1888  0.1924 -0.2079
 4294W        W 6494   3.226   3.789   1.306  0.2354  0.1106  0.1855
 4295W        W 6495  14.473   5.033  26.786  0.0704 -0.1614 -0.1420
 4296W        W 6496   5.076   1.671  32.318  0.1048  0.0676  0.0637
 4297W        W 6497   4.561   5.456  33.954  0.0446  0.1261  0.0814
 4298W        W 6498   9.301   0.433  35.662 -0.1687 -0.0291  0.3782
 4299W        W 6499   0.156   1.995  12.225  0.0242 -0.1352  0.1020
 4300W        W 6500  11.365   4.609   7.832 -0.0638  0.0042 -0.1843
 4301W        W 6501  20.427   5.914   2.735 -0.3178 -0.2211  0.0792
 4302W        W 6502   9.458   1.849   2.345  0.2360 -0.0528  0.1005
 4303W        W 6503  23.134   6.601  25.287 -0.0521  0.1520 -0.1447
 4304W        W 6504  16.690   3.948   6.065 -0.3053 -0.0263  0.0883
 4305W        W 6505  17.406   5.923   8.475 -0.0796 -0.1732  0.1477
 4306W        W 6506  22.360   1.217  11.469 -0.0954 -0.0527  0.3827
 4307W        W 6507  18.431   2.824  14.374 -0.0082 -0.1943  0.3230
 4308W        W 6508  22.987   2.161  27.999  0.2260  0.0248  0.0317
 4309W        W 6509  24.725   4.064   9.032 -0.0360  0.1809  0.0478
 4310W        W 6510  23.342   4.282   2.091  0.0076 -0.0815  0.2042
 4311W        W 6511  17.305   4.525  31.666 -0.1126 -0.2191 -0.1133
 4312W        W 6512   8.731   1.722  26.025  0.2518 -0.0437 -0.0506
 4313W        W 6513  15.754   2.075   5.394  0.1550 -0.1534 -0.1877
 4314W        W 6514  22.893   1.554   6.836 -0.0660  0.1561  0.1629
 4315W        W 6515  19.583   3.508  12.030 -0.2494 -0.1421  0.0244
 4316W        W 6516   2.535   5.883  14.523 -0.0071  0.2119 -0.0548
 4317W        W 6517  23.103   4.219  26.707  0.1973  0.0945  0.0234
 4318W        W 6518   1.037   3.870   0.478 -0.1922  0.2111  0.0377
 4319W        W 6519   9.333   3.747  13.700 -0.0063  0.2300  0.0177
 4320W        W 6520  24.760   0.494  24.793  0.0233 -0.1373  0.2495
 4321W        W 6521  16.525   5.145  22.340  0.1950  0.0546  0.1875
 4322W        W 6522  25.051   3.926  25.565 -0.0291  0.3548  0.0344
 4323W        W 6523   1.557   1.220  27.843 -0.1124  0.0934  0.0352
 4324W        W 6524   1.323   4.122   2.350  0.1477  0.1667  0.1127
 4325W        W 6525  11.959   4.966  25.098 -0.2016 -0.2885 -0.1564
 4326W        W 6526   8.006   5.917  13.611  0.1290  0.0307 -0.1325
 4327W        W 6527  25.468   1.630  35.191 -0.0429 -0.2520  0.1767
 4328W        W 6528   2.446   5.370   8.178  0.2880  0.1998 -0.0810
 4329W        W 6529  25.845   2.127  23.701  0.0078  0.0998  0.1295
 4330W        W 6530  10.305   0.660  13.391 -0.0842 -0.1172 -0.0960
 4331W        W 6531  16.328   4.519  30.739 -0.0911  0.1195 -0.3028
 4332W        W 6532   8.644   5.063   6.894 -0.0234  0.3054 -0.2037
 4333W        W 6533   5.100   4.586  33.942 -0.1163  0.1403 -0.1238
 4334W        W 6534  10.465   4.536  24.696 -0.1079 -0.0742 -0.1083
 4335W        W 6535   6.152   3.373   0.303  0.0193 -0.0450 -0.0045
 4336W        W 6536  18.205   3.639  23.704 -0.0818  0.1018 -0.1316
 4337W        W 6537   0.570   1.082   9.103 -0.0740  0.0259  0.4616
 4338W        W 6538  14.042   4.336  22.936  0.1982  0.1068 -0.2964
 4339W        W 6539   1.765   3.626  22.918  0.5654 -0.1083  0.1403
 4340W        W 6540   2.059   6.453  34.975 -0.1551  0.0478 -0.4147
 4341W        W 6541  20.011   6.155  32.487 -0.0265 -0.0358  0.0581
 4342W        W 6542  19.153   2.798   0.498  0.2461 -0.1863 -0.1940
 4343W        W 6543  19.735   1.653   9.798  0.0731 -0.2188  0.1278
 4344W        W 6544  16.122   3.730  14.090  0.0391  0.1594 -0.2261
 4345W        W 6545  18.345   3.621  25.096 -0.2583 -0.0289  0.0075
 4346W        W 6546  18.440   3.672  33.896  0.2509 -0.2244 -0.2348
 4347W        W 6547  12.674   0.896  31.149 -0.0973  0.0927  0.0708
 4348W        W 6548  21.634   5.527   4.407 -0.0286 -0.1212  0.3170
 4349W        W 6549   8.717   6.117  31.167 -0.4588  0.5204  0.0641
 4350W        W 6550   9.064   3.203  32.442 -0.0372  0.1797 -0.0433
 4351W        W 6551  18.730   4.533   8.142  0.1449  0.1761 -0.2028
 4352W        W 6552  17.033   3.031  26.786 -0.2421 -0.0879  0.0232
 4353W        W 6553  11.099   4.357   7.023  0.2411 -0.2673 -0.1902
 4354W        W 6554   2.495   3.158  10.697  0.1427 -0.2871  0.0917
 4355W        W 6555   5.236   2.903   9.041  0.3179 -0.2394 -0.0076
 4356W        W 6556  14.428   5.356  30.671  0.0608 -0.0304  0.0862
 4357W        W 6557  13.409   2.026  35.248 -0.0041  0.1363  0.3323
 4358W        W 6558  13.214   6.214  26.733 -0.0775 -0.1616 -0.1807
 4359W        W 6559   0.442   6.244  21.626  0.2925  0.2313  0.1338
 4360W        W 6560   3.156   6.067  35.573 -0.0995  0.0105 -0.0132
 4361W        W 6561   4.339   5.720  24.495 -0.0171 -0.1078  0.1655
 4362W        W 6562  13.070   4.246  24.937 -0.0439  0.2488  0.1597
 4363W        W 6563  20.057   4.068  22.849  0.3400 -0.1084  0.0053
 4364W        W 6564  25.830   4.299   3.853 -0.0080  0.0127  0.2846
 4365W        W 6565  20.012   1.256  23.398 -0.2543  0.1303 -0.0984
 4366W        W 6566   6.487   4.227  22.595 -0.1096  0.1507  0.3130
 4367W        W 6567  26.000   6.541  28.426  0.3157 -0.0705  0.1025
 4368W        W 6568  12.030   2.658  29.714 -0.1128 -0.0849 -0.1526
 4369W        W 6569   4.718   0.289   5.205 -0.0639  0.1136  0.1797
 4370W        W 6570   7.130   4.361  21.933 -0.1438  0.3869 -0.0100
 4371W        W 6571  21.578   1.659  13.048  0.2362 -0.3522  0.0134
 4372W        W 6572   0.505   5.855   5.605 -0.2330  0.0006  0.1573
 4373W        W 6573   8.984   0.495  26.592 -0.1070  0.0044  0.1691
 4374W        W 6574   4.238   6.585  12.568  0.1745 -0.0589  0.0898
 4375W        W 6575  13.191   4.404  24.444  0.0829 -0.1240  0.2222
 4376W        W 6576  22.286   1.761  14.878 -0.0547  0.0020  0.2050
 4377W        W 6577  11.080   5.108  21.900 -0.1182 -0.0851  0.0495
 4378W        W 6578   1.970   4.949   3.107 -0.1010 -0.0552 -0.1394
 4379W        W 6579  23.529   3.403  26.928 -0.1367  0.0138  0.4311
 4380W        W 6580  12.723   0.674   5.844 -0.2800 -0.0542 -0.1613
 4381W        W 6581  20.152   2.384  15.803 -0.0033  0.0241  0.1635
 4382W        W 6582   0.670   0.263  10.582 -0.1115  0.1589 -0.2083
 4383W        W 6583  17.899   0.599   7.216  0.3838  0.3121 -0.0999
 4384W        W 6584   6.209   2.030  21.663 -0.2851  0.1176 -0.0029
 4385W        W 6585  16.267   3.403  25.071 -0.0208  0.0164 -0.1928
 4386W        W 6586  20.555   4.510  10.852  0.0408 -0.0267  0.1453
 4387W        W 6587   7.309   6.070  21.190  0.3750 -0.2514  0.1406
 4388W        W 6588  15.020   5.609   9.543 -0.0986  0.2119  0.1480
 4389W        W 6589  22.048   4.223  14.422  0.0781  0.1494  0.1314
 4390W        W 6590  22.194   0.792  22.573 -0.2152  0.0044  0.2655
 4391W        W 6591   6.651   6.591  26.362 -0.2346  0.0544  0.0104
 4392W        W 6592  19.594   2.333  32.702 -0.2062  0.1292  0.1779
 4393W        W 6593   3.169   0.375  35.626  0.1022  0.2046  0.0749
 4394W        W 6594  26.195   5.919  29.804  0.0817  0.0667  0.1580
 4395W        W 6595   7.161   3.017  14.758  0.2013  0.0150  0.0160
 4396W        W 6596  17.107   2.255  31.331 -0.2394  0.2197  0.0136
 4397W        W 6597   9.184   0.469  20.817 -0.0601 -0.0181  0.1366
 4398W        W 6598  13.364   3.706  26.982 -0.1998  0.3804  0.0163
 4399W        W 6599   3.079   5.576  25.757  0.1000  0.2129  0.0475
 4400W        W 6600  17.389   0.829   8.575  0.1541  0.0129 -0.0275
 4401W        W 6601  25.483   3.321  34.778  0.1009 -0.1238 -0.1739
 4402W        W 6602  25.408   4.689  21.563 -0.0087 -0.2988  0.1122
 4403W        W 6603   3.842   1.380  27.361 -0.0882  0.0726 -0.0114
 4404W        W 6604  22.719   3.614  35.000  0.0429  0.1867  0.3418
 4405W        W 6605   4.618   0.556   9.926  0.0794 -0.0286 -0.2049
 4406W        W 6606  22.912   6.087   7.211 -0.0761  0.1393 -0.1936
 4407W        W 6607  14.070   2.980  12.145  0.1941 -0.1572  0.1501
 4408W        W 6608   3.089   2.876   7.232 -0.0389  0.2388  0.1178
 4409W        W 6609  26.065   2.467  30.563 -0.0011 -0.1287  0.1200
 4410W        W 6610   4.472   2.161   4.297 -0.2438 -0.1612 -0.0338
 4411W        W 6611  20.343   6.589  35.026  0.1514 -0.0640  0.0513
 4412W        W 6612  20.567   3.919  33.590  0.0656 -0.1237  0.1294
 4413W        W 6613  10.380   2.016   9.836  0.0703  0.1378 -0.0567
 4414W        W 6614   9.401   6.264   7.829  0.2856  0.0302  0.0680
 4415W        W 6615  16.526   2.797  22.266  0.1623  0.1102 -0.4268
 4416W        W 6616   1.376   2.812  15.399 -0.2304 -0.3497 -0.0051
 4417W        W 6617  21.569   4.421  26.332  0.1062  0.0743  0.1524
 4418W        W 6618   6.771   0.152  28.525  0.2059  0.0017  0.1537
 4419W        W 6619  16.045   3.232  14.234  0.3420 -0.0121 -0.1201
 4420W        W 6620  10.030   2.087  32.957 -0.3027  0.1533  0.1139
 4421W        W 6621  22.550   3.299  24.938  0.2168 -0.1525  0.0721
 4422W        W 6622  15.274   1.788   1.943 -0.1468  0.0050 -0.1642
 4423W        W 6623  24.577   6.313  10.739  0.2267 -0.1034 -0.2426
 4424W        W 6624  13.297   4.426  12.950  0.2272  0.0469 -0.0433
 4425W        W 6625  11.963   5.116  29.792 -0.3030  0.0549  0.0776
 4426W        W 6626   1.150   5.401   6.724 -0.1404 -0.0756  0.2038
 4427W        W 6627  18.108   0.485  35.179  0.2148  0.0072  0.1759
 4428W        W 6628   9.889   3.776  12.159  0.0413 -0.2107 -0.1107
 4429W        W 6629  22.320   1.243  10.269  0.0549  0.2533 -0.0589
 4430W        W 6630  10.896   3.530  29.237  0.0468  0.2569  0.0711
 4431W        W 6631  16.134   4.312  24.418  0.1482 -0.1714 -0.1377
 4432W        W 6632  24.049   0.721  31.916  0.0893  0.0064  0.0918
 4433W        W 6633  15.854   0.156  11.365 -0.2446 -0.3123 -0.0112
 4434W        W 6634   9.587   2.152  23.022 -0.0949 -0.1345  0.1714
 4435W        W 6635   4.882   0.922   8.493  0.0895 -0.0095 -0.0656
 4436W        W 6636   2.113   5.762  22.166  0.0734 -0.1831  0.1312
 4437W        W 6637  21.716   1.719  21.073 -0.0573 -0.0379 -0.2061
 4438W        W 6638  20.390   3.003  25.216 -0.2439  0.0965  0.1411
 4439W        W 6639  11.044   6.359  35.757  0.0360 -0.2070 -0.2733
 4440W        W 6640   6.820   1.716  29.208  0.2891  0.1463  0.1789
 4441W        W 6641  18.278   4.612  30.329  0.3103 -0.1943 -0.0421
 4442W        W 6642  18.002   0.890  12.408 -0.0204 -0.4625 -0.0639
 4443W        W 6643  19.999   2.990  21.840 -0.2382 -0.2927 -0.0064
 4444W        W 6644   6.551   0.794   8.482  0.1661 -0.2773 -0.2970
 4445W        W 6645  18.102   4.047   0.357  0.0230  0.0658  0.1292
 4446W        W 6646  13.413   2.170  22.734  0.0385  0.2934 -0.0855
 4447W        W 6647   2.337   1.908  21.693 -0.1912  0.0185  0.0778
 4448W        W 6648   3.077   4.667   1.823 -0.0433  0.3885 -0.0487
 4449W        W 6649  15.540   5.896  26.876  0.0348  0.1195  0.2900
 4450W        W 6650  13.445   3.995  34.308 -0.0372 -0.1079 -0.1817
 4451W        W 6651  17.061   2.047  26.977 -0.1036 -0.0042  0.0410
 4452W        W 6652   5.663   6.089  25.456 -0.2462 -0.3636 -0.0523
 4453W        W 6653  17.791   4.478   5.740 -0.1569  0.0515  0.4003
 4454W        W 6654   2.085   0.058   9.791 -0.1938  0.3039  0.1370
 4455W        W 6655  16.050   5.079  22.283 -0.1037 -0.1385  0.0795
 4456W        W 6656  24.638   6.095  20.820 -0.0296 -0.2384  0.2242
 4457W        W 6657  12.127   2.720  24.379 -0.2572  0.1340 -0.5079
 4458W        W 6658   0.803   5.571   0.243 -0.2980  0.0567  0.0680
 4459W        W 6659  15.965   6.508  10.434  0.1773 -0.1713 -0.2048
 4460W        W 6660  11.705   0.469  21.024  0.1540 -0.0146 -0.0964
 4461W        W 6661  17.060   3.919  26.154  0.0553  0.1911  0.0908
 4462W        W 6662  11.094   3.518  35.755 -0.3439  0.0050  0.0004
 4463W        W 6663  18.630   6.015   8.506 -0.1746  0.2342 -0.0934
 4464W        W 6664   0.069   0.304  28.345 -0.1899  0.0313  0.0509
 4465W        W 6665   7.413   6.406  12.501  0.1245  0.4769 -0.1275
 4466W        W 6666  17.759   1.303  12.276  0.1626  0.0779  0.0345
 4467W        W 6667  18.716   1.645   3.013 -0.3650 -0.0389 -0.0510
 4468W        W 6668  17.049   1.687  28.828  0.2141  0.0600 -0.2206
 4469W        W 6669   0.778   5.993   1.741 -0.0852 -0.0427  0.2121
 4470W        W 6670  19.208   0.487  32.915 -0.1213  0.3413  0.4312
 4471W        W 6671  23.535   2.488   2.303  0.0413  0.2153  0.1241
 4472W        W 6672   9.210   1.564  11.863  0.1895 -0.1975 -0.2407
 4473W        W 6673   1.053   5.844  31.148 -0.0787 -0.0278  0.0093
 4474W        W 6674   5.466   1.438  32.516  0.1595 -0.0461  0.2283
 4475W        W 6675  11.501   2.017   4.597 -0.0021  0.1441  0.1289
 4476W        W 6676  13.469   0.174  21.070 -0.5390  0.2041 -0.1309
 4477W        W 6677  25.120   1.514   3.865  0.0543  0.3120  0.1392
 4478W        W 6678   8.681   6.155  11.569 -0.0831  0.1618 -0.2228
 4479W        W 6679  15.656   1.384  20.761  0.2014  0.0399  0.2338
 4480W        W 6680  16.988   0.456  25.354  0.0442  0.0228  0.1459
 4481W        W 6681  23.841   3.995   9.435  0.0161  0.2933  0.0711
 4482W        W 6682  20.896   3.880   3.538 -0.3056  0.2151 -0.1298
 4483W        W 6683   8.606   2.186   9.858 -0.0907 -0.0978  0.0921
 4484W        W 6684   6.223   2.544   6.582 -0.3031  0.1582  0.1996
 4485W        W 6685  15.495   3.229   2.984  0.0825 -0.0980 -0.0701
 4486W        W 6686  14.831   1.110   7.073  0.1502 -0.1524 -0.1641
 4487W        W 6687  14.753   6.442  20.598 -0.2127 -0.4096  0.3047
 4488W        W 6688  13.709   0.119  35.350  0.0399  0.1870 -0.0260
 4489W        W 6689  13.953   0.530   8.635 -0.3543 -0.2522  0.0302
 4490W        W 6690  16.920   1.558  11.084  0.0191 -0.1725  0.2446
 4491W        W 6691   0.547   1.499   9.877  0.2313 -0.1320 -0.0521
 4492W        W 6692  12.968   3.565   3.937  0.0264 -0.4911  0.0111
 4493W        W 6693   6.244   3.763  14.546  0.2967  0.0433 -0.1045
 4494W        W 6694  13.853   3.170  35.002  0.2462 -0.0042 -0.1279
 4495W        W 6695   0.654   4.091   7.902 -0.1724  0.0375 -0.0146
 4496W        W 6696  16.091   0.910   3.105 -0.4338 -0.0580 -0.1896
 4497W        W 6697   6.905   3.537   7.605  0.2662  0.0989  0.0715
 4498W        W 6698  19.752   4.825  34.084 -0.1305 -0.2439  0.0291
 4499W        W 6699  10.585   3.382  24.959  0.1792  0.0314  0.0840
 4500W        W 6700  17.251   4.259  23.836  0.4847  0.0963 -0.1068
 4501W        W 6701   7.956   4.624  35.338 -0.1881 -0.0397 -0.0210
 4502W        W 6702  11.941   3.018   5.024 -0.5449 -0.1466 -0.0431
 4503W        W 6703   6.329   4.351  31.693 -0.0333  0.0144  0.1146
 4504W        W 6704   3.134   6.468   2.010  0.2819 -0.0925 -0.0077
 4505W        W 6705   9.581   1.610   7.619  0.1560  0.2671 -0.0466
 4506W        W 6706  14.435   0.470   8.816 -0.0784  0.2332 -0.1341
 4507W        W 6707  25.570   5.431   4.663  0.0330  0.1595  0.2611
 4508W        W 6708  23.540   3.879  13.875 -0.1662  0.1159  0.1567
 4509W        W 6709  11.768   0.545  15.316 -0.2530 -0.1981 -0.0121
 4510W        W 6710  15.313   5.451  28.834 -0.1716 -0.0378  0.3152
 4511W        W 6711  21.146   3.777  32.284  0.2368 -0.1457  0.0472
 4512W        W 6712  20.365   1.625  35.638 -0.0553 -0.1983  0.0034
 4513W        W 6713   1.055   2.247  13.090  0.0587  0.0377 -0.3250
 4514W        W 6714  14.720   1.186   0.659  0.0519 -0.2005 -0.1874
 4515W        W 6715  25.740   5.461  26.661 -0.0322 -0.0035 -0.4156
 4516W        W 6716   3.989   4.939  25.359  0.5101 -0.1054 -0.1297
 4517W        W 6717   5.689   1.986  29.753 -0.0161  0.0437 -0.0878
 4518W        W 6718   5.387   0.962  26.392  0.2307 -0.2069 -0.1214
 4519W        W 6719   6.431   4.758  23.767 -0.1246 -0.0782  0.3164
 4520W        W 6720   8.236   0.312   2.471 -0.0692  0.2413 -0.1366
 4521W        W 6721   6.976   3.308  12.725  0.0496  0.0252  0.0488
 4522W        W 6722  10.706   6.031  25.862 -0.1942  0.1306 -0.2586
 4523W        W 6723  12.319   0.949  22.359 -0.5013 -0.1168  0.0544
 4524W        W 6724   9.653   5.647  35.793 -0.0686  0.0280 -0.0504
 4525W        W 6725   9.898   6.457   7.691  0.0290 -0.3183 -0.2604
 4526W        W 6726  12.653   4.152  21.116  0.2424 -0.0293  0.0253
 4527W        W 6727  11.768   3.320   4.159  0.0528 -0.3393 -0.2092
 4528W        W 6728  17.041   0.639  14.411  0.1199  0.1147 -0.0344
 4529W        W 6729   9.190   0.303  29.456 -0.2354 -0.0276 -0.1035
 4530W        W 6730  19.878   1.050  31.917  0.0128  0.1104  0.1183
 4531W        W 6731  25.048   3.299  13.899 -0.2159 -0.0156  0.2937
 4532W        W 6732   2.142   4.605  12.409 -0.1538  0.0940  0.1863
 4533W        W 6733  23.025   5.879  33.829 -0.1232  0.0586  0.1637
 4534W        W 6734   6.325   1.477   8.126 -0.1093 -0.0900  0.2711
 4535W        W 6735   7.767   4.296  28.873  0.0586 -0.1333  0.0833
 4536W        W 6736  16.233   1.597  35.428 -0.4676 -0.1168 -0.0995
 4537W        W 6737   9.950   5.375   8.317 -0.0842  0.1003 -0.0537
 4538W        W 6738   2.903   6.007   1.899  0.0443  0.0584  0.1159
 4539W        W 6739  20.338   4.478  26.430 -0.0219 -0.2613 -0.0121
 4540W        W 6740  24.309   4.838  23.470  0.0321  0.2104  0.1670
 4541W        W 6741  18.169   5.633   3.558  0.1361  0.2905  0.3041
 4542W        W 6742  10.784   5.439  30.311 -0.0295  0.3111 -0.3938
 4543W        W 6743  15.530   2.591   2.265 -0.1317  0.1070  0.1032
 4544W        W 6744  17.835   2.995  25.982 -0.0680  0.1661  0.0235
 4545W        W 6745  20.001   1.401  13.737 -0.0025 -0.1090 -0.1414
 4546W        W 6746  21.224   5.680  32.422 -0.0404 -0.1308  0.0228
 4547W        W 6747  21.144   1.139   3.274 -0.6308 -0.0599 -0.1137
 4548W        W 6748  19.025   1.918   4.014  0.0613  0.1971 -0.2019
 4549W        W 6749  18.536   4.470  28.937  0.0058  0.0873  0.2540
 4550W        W 6750  12.029   4.513  30.852 -0.0728 -0.4542  0.0630
 4551W        W 6751   1.598   1.758  28.417 -0.1183  0.4006  0.0384
 4552W        W 6752  24.339   5.654   7.908  0.2634  0.0290  0.1525
 4553W        W 6753   7.220   2.027  14.834 -0.2129  0.0038  0.1856
 4554W        W 6754  22.476   0.868  28.872 -0.1904  0.2847  0.0321
 4555W        W 6755  22.041   2.760  14.150 -0.0076  0.2417  0.3578
 4556W        W 6756   5.277   4.518  21.333  0.3498 -0.1657 -0.0334
 4557W        W 6757  14.746   1.419   3.017  0.0308  0.0206  0.0674
 4558W        W 6758  14.814   3.466  11.694  0.1696  0.0429  0.0981
 4559W        W 6759   6.502   6.061   7.691  0.1752  0.2388 -0.2748
 4560W        W 6760   6.725   4.250  27.423 -0.0557 -0.1741 -0.2965
 4561W        W 6761  10.995   0.057   0.848 -0.0462  0.1123  0.0008
 4562W        W 6762   0.417   3.848  24.920  0.0420  0.1402 -0.1381
 4563W        W 6763   0.927   5.170  10.498  0.0638  0.1000  0.1349
 4564W        W 6764   5.457   4.745  25.279  0.0248 -0.1525 -0.5349
 4565W        W 6765   5.057   4.280  35.496  0.0184 -0.2112  0.0928
 4566W        W 6766   2.150   4.495   8.597 -0.1724 -0.0219  0.2095
 4567W        W 6767  23.002   5.317   0.714  0.0629 -0.2798  0.1200
 4568W        W 6768  19.653   3.521   4.770  0.0667 -0.0873  0.1507
 4569W        W 6769  13.464   3.514  13.207  0.1494  0.1755 -0.2413
 4570W        W 6770   5.434   1.913  27.685  0.3218 -0.0095 -0.0152
 4571W        W 6771   6.793   3.093  11.487  0.0964  0.2625 -0.4945
 4572W        W 6772  13.552   1.067  10.674 -0.1714  0.1114  0.2215
 4573W        W 6773  24.340   4.416  29.970  0.0183 -0.0556  0.1858
 4574W        W 6774   3.485   1.581  30.502 -0.2719  0.2845 -0.0267
 4575W        W 6775   5.148   6.345  10.361 -0.2629 -0.0066  0.1918
 4576W        W 6776   6.520   1.146   1.115 -0.3502 -0.1252 -0.1458
 4577W        W 6777   8.012   6.204  22.308 -0.0112 -0.0747  0.0111
 4578W        W 6778  22.103   3.947   0.224 -0.2045  0.3157  0.0899
 4579W        W 6779   6.012   3.865  33.160 -0.1409 -0.2015 -0.1894
 4580W        W 6780   6.190   1.662  31.154 -0.1114  0.1725  0.0808
 4581W        W 6781   3.295   2.439   1.166  0.0321 -0.1920 -0.2956
 4582W        W 6782  11.183   1.956  30.647 -0.0427  0.1005  0.0211
 4583W        W 6783  17.601   6.192  31.038  0.2447  0.2947 -0.0928
 4584W        W 6784  17.264   6.298  10.617  0.2016  0.3947 -0.1624
 4585W        W 6785   4.214   0.174   0.002  0.2086 -0.3568  0.2059
 4586W        W 6786  16.962   3.613   2.860  0.2000 -0.0397  0.1319
 4587W        W 6787  20.188   0.184  12.357  0.0370 -0.1625  0.4453
 4588W        W 6788   1.800   3.599  10.900  0.0280 -0.0989 -0.0720
 4589W        W 6789  17.622   5.546  32.803  0.4071  0.0670  0.2013
 4590W        W 6790  18.449   1.865  10.946  0.0851 -0.0593 -0.0075
 4591W        W 6791   9.344   6.002   4.259  0.3017 -0.0642 -0.1302
 4592W        W 6792   7.732   5.135  21.653 -0.1867 -0.0675  0.3511
 4593W        W 6793   2.373   4.401   0.156  0.0814  0.0771 -0.1462
 4594W        W 6794  26.151   4.158  23.203  0.2622  0.0344  0.1551
 4595W        W 6795   7.668   5.767  27.497  0.1000  0.0584  0.0986
 4596W        W 6796   7.213   0.561  11.267  0.1418 -0.2160 -0.2078
 4597W        W 6797   4.999   0.629  25.166 -0.0866  0.0910  0.1493
 4598W        W 6798  17.933   0.894  27.559 -0.1337  0.3371  0.1196
 4599W        W 6799  10.662   3.778  32.003 -0.3504 -0.4555 -0.0547
 4600W        W 6800   4.952   5.248   7.885  0.3955 -0.0454  0.0513
 4601W        W 6801  13.946   1.861   3.822 -0.2537 -0.0314  0.2424
 4602W        W 6802  13.992   0.638  31.829  0.2018 -0.1588  0.1111
 4603W        W 6803   1.418   4.206   6.190  0.0129 -0.5622  0.0838
 4604W        W 6804  22.629   1.416  14.841 -0.1219  0.2719  0.1259
 4605W        W 6805   8.597   4.309  26.219  0.2689 -0.1107  0.0323
 4606W        W 6806   1.429   1.271  13.910  0.1581  0.0136  0.0623
 4607W        W 6807  20.720   5.359  35.723  0.3033  0.4188  0.1956
 4608W        W 6808   7.945   6.066   1.491 -0.0540 -0.1421 -0.3303
 4609W        W 6809  24.830   6.252   5.198  0.2311 -0.0359  0.4176
 4610W        W 6810  15.979   3.319  34.978  0.0797 -0.0180  0.0375
 4611W        W 6811   7.906   5.877   9.412 -0.0312 -0.0493  0.0932
 4612W        W 6812   9.632   5.594  21.911 -0.1191 -0.0222  0.1227
 4613W        W 6813  20.224   3.499  25.295  0.4515 -0.1899 -0.1846
 4614W        W 6814   9.575   5.980   8.940  0.0132 -0.3441  0.0300
 4615W        W 6815  25.375   4.301  14.749 -0.0393 -0.2006 -0.3082
 4616W        W 6816   8.923   0.691  14.425  0.1602  0.0614 -0.1387
 4617W        W 6817   7.709   1.527  11.035 -0.2378  0.0955 -0.2923
 4618W        W 6818   8.200   1.070   6.081 -0.0845 -0.1250 -0.3941
 4619W        W 6819  12.270   5.147  22.838 -0.0374  0.2000 -0.0990
 4620W        W 6820  14.392   4.608   9.446 -0.2206 -0.1468 -0.2474
 4621W        W 6821   6.597   1.031  25.003  0.0735 -0.0145 -0.0008
 4622W        W 6822  14.233   3.194  26.388 -0.0802  0.0536  0.0305
 4623W        W 6823  16.463   4.826   0.975  0.2173 -0.1294 -0.1847
 4624W        W 6824  24.760   5.133  11.248  0.0179 -0.1846 -0.1765
 4625W        W 6825  15.694   0.752   5.644 -0.1074  0.1544 -0.0367
 4626W        W 6826   9.842   0.990  27.330  0.3862  0.3826  0.0841
 4627W        W 6827  20.836   3.606   5.477  0.1044  0.0124  0.1108
 4628W        W 6828   9.839   0.540   4.198 -0.1749 -0.4368  0.2380
 4629W        W 6829  22.972   3.537  33.975 -0.2178  0.1235  0.1101
 4630W        W 6830   6.828   5.330  21.131  0.0870 -0.4335 -0.0104
 4631W        W 6831  18.618   2.731   7.527  0.0159  0.1062 -0.0123
 4632W        W 6832  15.757   5.573  15.027  0.0973 -0.0937  0.1609
 4633W        W 6833  13.104   0.743  25.751 -0.1491  0.1017 -0.1997
 4634W        W 6834  22.709   3.173  25.960  0.2256  0.1396  0.0228
 4635W        W 6835   9.797   1.179  24.197 -0.0894 -0.2668  0.0840
 4636W        W 6836   7.866   2.427  28.618 -0.1140  0.0273 -0.0373
 4637W        W 6837   5.378   4.650   3.605 -0.1081  0.1058  0.1239
 4638W        W 6838   9.863   1.380  13.962 -0.1497  0.2006 -0.1710
 4639W        W 6839   3.047   5.462   8.947 -0.2170  0.0000  0.0961
 4640W        W 6840   5.599   0.676  12.633  0.4150 -0.1197  0.2305
 4641W        W 6841   1.136   0.872   3.474 -0.1057 -0.0426 -0.0952
 4642W        W 6842  19.503   0.705  22.282 -0.0202 -0.0532  0.1269
 4643W        W 6843  19.609   2.543   9.419  0.0934 -0.0615 -0.0443
 4644W        W 6844  16.285   4.146   0.165  0.0081  0.1453  0.0185
 4645W        W 6845  25.953   1.687   6.060  0.2692 -0.0851  0.1703
 4646W        W 6846  11.056   6.550   9.407 -0.1611  0.1367  0.2028
 4647W        W 6847  20.925   3.376  11.936 -0.1994 -0.0437 -0.0436
 4648W        W 6848  25.892   0.634   7.463 -0.2399  0.3451 -0.2495
 4649W        W 6849   4.623   3.464  35.960  0.3704 -0.0228  0.3496
 4650W        W 6850  24.867   0.988   4.607  0.1475 -0.2086 -0.0468
 4651W        W 6851  15.675   1.838  30.128  0.1577  0.0030 -0.0691
 4652W        W 6852  20.775   5.984  13.567  0.1908  0.0083  0.1531
 4653W        W 6853  19.551   5.473   4.427 -0.0996  0.0110  0.3513
 4654W        W 6854  10.019   0.620  11.592  0.1214 -0.1616 -0.0772
 4655W        W 6855  19.187   5.447   9.036 -0.3746 -0.1113  0.1728
 4656W        W 6856   5.953   6.009  23.493 -0.0741  0.2119 -0.0423
 4657W        W 6857  19.717   1.164   4.128  0.0049 -0.2140 -0.2149
 4658W        W 6858  26.093   0.648   5.830  0.0903 -0.2968 -0.0643
 4659W        W 6859  20.190   0.068  13.355 -0.2298 -0.1414  0.0120
 4660W        W 6860   8.507   4.717  29.451  0.2413 -0.0054 -0.0230
 4661W        W 6861   2.630   5.213  31.323  0.1232 -0.1139 -0.0361
 4662W        W 6862   2.190   1.200  27.913 -0.0320 -0.0268 -0.3171
 4663W        W 6863  17.435   2.156  15.103 -0.3308 -0.0780  0.0124
 4664W        W 6864  22.540   1.030  30.037  0.1370  0.1920  0.1314
 4665W        W 6865   5.583   1.285  32.993 -0.1341 -0.1759 -0.1687
 4666W        W 6866   4.233   5.421  33.607 -0.1653  0.0183  0.0365
 4667W        W 6867   4.512   5.541  30.236  0.1951 -0.0916  0.2945
 4668W        W 6868  21.036   2.956  35.449  0.0677  0.0855  0.2673
 4669W        W 6869  17.063   3.236  25.578 -0.1208  0.0477  0.0754
 4670W        W 6870  10.257   5.413  27.630  0.1310  0.1397  0.2734
 4671W        W 6871   4.929   4.318   1.935  0.0938 -0.0023  0.1509
 4672W        W 6872  23.034   4.308  30.524  0.0738 -0.0329  0.1517
 4673W        W 6873   3.246   6.317  26.284  0.1364 -0.0063  0.2152
 4674W        W 6874   1.065   1.576  21.733  0.2570 -0.1974 -0.1085
 4675W        W 6875  26.334   0.211  35.618  0.3076 -0.2270 -0.1781
 4676W        W 6876   5.076   0.525  35.253 -0.0372 -0.0277 -0.0615
 4677W        W 6877   1.133   6.579  22.928  0.0777 -0.1821  0.1103
 4678W        W 6878  19.040   3.464  32.371  0.0104 -0.2333 -0.0609
 4679W        W 6879  13.405   6.421   9.547 -0.0586 -0.3425 -0.1398
 4680W        W 6880  23.320   0.826   3.997 -0.1505  0.1227 -0.0557
 4681W        W 6881   3.576   4.498  26.405  0.2230  0.3441  0.1285
 4682W        W 6882   3.069   0.837  29.040 -0.2306  0.1019  0.1079
 4683W        W 6883  23.895   5.263   1.105 -0.0068  0.3884 -0.3107
 4684W        W 6884   4.477   4.660   2.458  0.0275 -0.3651  0.1577
 4685W        W 6885  16.195   3.579  26.589  0.0115  0.1636 -0.1016
 4686W        W 6886  17.667   6.593  25.859 -0.2078  0.0722  0.2639
 4687W        W 6887   7.192   0.139  10.945 -0.1185 -0.1538  0.0937
 4688W        W 6888   8.568   2.938  28.330 -0.0313  0.0522 -0.0158
 4689W        W 6889   3.310   4.039  12.184 -0.2375 -0.0636 -0.1821
 4690W        W 6890  16.855   0.108  32.044  0.2351  0.1391  0.0425
 4691W        W 6891  11.734   5.426  20.931  0.0072  0.0017 -0.3867
 4692W        W 6892  20.851   4.768  33.319  0.1785 -0.0796 -0.1167
 4693W        W 6893   2.928   4.998  28.822  0.0220  0.0009  0.1516
 4694W        W 6894  14.962   0.994   1.721 -0.1398 -0.0448 -0.1922
 4695W        W 6895   2.846   0.477   6.581 -0.0654 -0.0290  0.0991
 4696W        W 6896  21.283   5.326   2.909  0.0907 -0.0190 -0.3853
 4697W        W 6897   5.710   6.468   8.807 -0.0925 -0.0620 -0.1322
 4698W        W 6898  17.009   5.632   6.195  0.1649 -0.0311 -0.1506
 4699W        W 6899  16.612   2.236  33.428  0.0358  0.0753 -0.0954
 4700W        W 6900  14.523   2.024  26.923  0.2183 -0.2536 -0.1093
 4701W        W 6901  15.842   3.105   6.215  0.0198 -0.2477  0.0293
 4702W        W 6902  13.474   5.565  26.110  0.0231 -0.0573  0.1614
 4703W        W 6903  22.996   5.233  22.122  0.2166 -0.0197  0.1054
 4704W        W 6904  15.964   2.969  27.947  0.3578  0.0324 -0.2643
 4705W        W 6905   8.757   3.986  14.176 -0.1419  0.1762 -0.0355
 4706W        W 6906  15.154   1.320  14.575 -0.3682  0.3018  0.3213
 4707W        W 6907  10.127   1.541  10.714  0.2306  0.1286 -0.0031
 4708W        W 6908  13.262   5.171  25.787 -0.3542  0.1321 -0.3648
 4709W        W 6909  21.367   0.180  31.649  0.0385  0.0482  0.3202
 4710W        W 6910  24.668   3.416   0.050 -0.1250 -0.2606  0.0645
 4711W        W 6911   2.828   6.467  11.648 -0.1684 -0.1957 -0.2204
 4712W        W 6912  15.820   5.664  32.145  0.0000 -0.0677  0.0094
 4713W        W 6913   8.093   5.890   3.029 -0.1625  0.2029 -0.0158
 4714W        W 6914  22.265   1.887  13.995  0.0479  0.2254 -0.1051
 4715W        W 6915  16.624   6.148   4.027  0.2279 -0.0063 -0.3228
 4716W        W 6916   1.101   3.968  13.629 -0.0108 -0.0020  0.0836
 4717W        W 6917  20.767   6.317   9.458 -0.0380  0.4912 -0.2727
 4718W        W 6918  13.351   0.120  10.721  0.1678 -0.2832 -0.1119
 4719W        W 6919  15.935   5.184   5.216  0.0401 -0.0668 -0.0245
 4720W        W 6920  13.665   2.177  24.056  0.0078 -0.3071  0.0715
 4721W        W 6921  14.025   1.955  30.299 -0.0462 -0.2836  0.0656
 4722W        W 6922  11.773   1.168   7.290  0.0919  0.0577 -0.0411
 4723W        W 6923  13.706   1.547  28.435  0.0938 -0.1523 -0.2848
 4724W        W 6924  20.853   6.367   3.809 -0.0669 -0.0168 -0.3557
 4725W        W 6925  10.978   6.003   7.204  0.1481 -0.0901  0.1718
 4726W        W 6926   8.502   5.778  25.065  0.0131 -0.2459 -0.2021
 4727W        W 6927   6.132   1.392  35.627  0.0737 -0.0689  0.0817
 4728W        W 6928  12.895   4.963   4.987 -0.0393 -0.0227  0.0264
 4729W        W 6929   4.296   6.080  10.408  0.1048 -0.2525  0.3116
 4730W        W 6930   5.667   4.352  34.793  0.3121 -0.1973 -0.2685
 4731W        W 6931   0.190   6.078  35.567  0.1478 -0.0787 -0.0695
 4732W        W 6932  18.033   3.145   1.912 -0.3152 -0.1719 -0.0340
 4733W        W 6933   9.368   5.930   6.140 -0.3293 -0.0305  0.0182
 4734W        W 6934  23.669   3.965  34.069 -0.2613  0.3019 -0.0857
 4735W        W 6935  11.055   2.929  14.901  0.1127 -0.1167 -0.1542
 4736W        W 6936  26.222   1.123  30.291 -0.1003  0.1853  0.0248
 4737W        W 6937  17.623   3.710  14.347  0.0487  0.3314  0.0045
 4738W        W 6938   6.533   0.560  10.568  0.1815 -0.1000  0.0281
 4739W        W 6939   4.090   6.455   0.474 -0.0249  0.0682 -0.3389
 4740W        W 6940  16.877   5.984  10.372 -0.2613  0.1607  0.2229
 4741W        W 6941  15.305   0.918   8.830  0.1115  0.1388  0.0561
 4742W        W 6942  10.173   3.347  33.538  0.2108  0.0165 -0.0627
 4743W        W 6943   9.022   4.419  11.186 -0.0602 -0.0793  0.1267
 4744W        W 6944   9.615   4.309   0.902  0.0745 -0.0790 -0.0029
 4745W        W 6945  20.636   0.650  28.301 -0.1539 -0.1957  0.0540
 4746W        W 6946  23.312   1.970  27.617  0.0927  0.1224  0.2296
 4747W        W 6947  17.872   2.243  23.411  0.1886 -0.1982  0.0950
 4748W        W 6948  23.101   0.212  29.655 -0.2761  0.2852  0.1273
 4749W        W 6949  25.946   5.617  21.541 -0.0405  0.2680  0.3363
 4750W        W 6950   3.949   2.114   3.416  0.1239  0.1532 -0.0521
 4751W        W 6951   0.260   5.030   8.164  0.0079 -0.0967  0.2964
 4752W        W 6952   2.270   4.741  25.081  0.0832 -0.3496  0.2569
 4753W        W 6953  18.134   0.824  26.199 -0.1275  0.1878 -0.2221
 4754W        W 6954  17.027   2.868   2.798 -0.0132 -0.1931  0.0222
 4755W        W 6955  22.757   1.008  11.186  0.0580 -0.1468  0.0437
 4756W        W 6956  14.662   0.110   3.856 -0.1388  0.3112 -0.2864
 4757W        W 6957   3.780   3.570   4.881 -0.0525 -0.0656  0.1283
 4758W        W 6958  13.901   0.394   7.509  0.3594 -0.1028 -0.0101
 4759W        W 6959  23.271   3.910  22.412 -0.1272  0.1697 -0.4736
 4760W        W 6960  18.083   6.483  12.831  0.0199 -0.0185  0.0226
 4761W        W 6961  20.876   0.008  22.444  0.0405  0.0261  0.3236
 4762W        W 6962   3.968   1.640   1.776 -0.1362 -0.1268  0.0163
 4763W        W 6963  22.990   6.345  30.137  0.3281  0.0333  0.1680
 4764W        W 6964   3.777   4.443  32.463 -0.1900  0.0432  0.6652
 4765W        W 6965  13.547   6.342   3.927  0.1516 -0.0844  0.4350
 4766W        W 6966  16.808   0.115  15.237  0.1117 -0.0344  0.0410
 4767W        W 6967   4.637   4.807   5.472 -0.1571  0.1920  0.2491
 4768W        W 6968  13.445   3.485   3.060  0.2260 -0.3403 -0.0120
 4769W        W 6969   8.314   1.257  23.329  0.0152 -0.0267 -0.1821
 4770W        W 6970  12.686   5.311  24.855  0.0149 -0.0198  0.0490
 4771W        W 6971  13.527   3.000  25.529 -0.2896 -0.0302  0.0446
 4772W        W 6972  21.613   2.020   5.584 -0.1041  0.0752 -0.2406
 4773W        W 6973   7.149   5.017  10.321  0.0043 -0.0642 -0.2436
 4774W        W 6974   7.616   3.041   7.830 -0.3044 -0.0211  0.1399
 4775W        W 6975   0.862   3.433   4.185 -0.0497  0.1488 -0.0212
 4776W        W 6976  12.520   5.841  30.365 -0.2055  0.0146 -0.0801
 4777W        W 6977  17.509   3.921  16.013  0.2630 -0.0633 -0.3799
 4778W        W 6978  21.390   6.460  10.325  0.1014  0.0161 -0.2599
 4779W        W 6979  17.926   6.442  24.668  0.1805 -0.1382  0.0039
 4780W        W 6980   2.673   2.462  15.141 -0.1255 -0.1114  0.0133
 4781W        W 6981  26.083   4.330  29.992 -0.0130  0.0982 -0.1994
 4782W        W 6982  19.635   2.870   4.206  0.0920  0.0821 -0.2546
 4783W        W 6983  17.471   2.732   5.000 -0.2252 -0.0766  0.1256
 4784W        W 6984   2.073   2.218  31.475  0.1950 -0.1370 -0.2322
 4785W        W 6985  11.394   3.443   1.684  0.1137 -0.1462  0.1141
 4786W        W 6986  16.624   4.461   2.507  0.0622 -0.3106  0.3164
 4787W        W 6987  22.870   5.473   4.466  0.1252  0.2696 -0.2053
 4788W        W 6988  26.194   5.890  24.034  0.0983 -0.0260 -0.0410
 4789W        W 6989  24.509   1.881   5.344  0.0656  0.2535 -0.1829
 4790W        W 6990  20.705   3.467  25.513 -0.2922 -0.3014  0.0671
 4791W        W 6991  23.405   3.943  25.203 -0.1961  0.2290 -0.1088
 4792W        W 6992  24.098   4.173  34.212  0.0306  0.0766  0.0132
 4793W        W 6993  25.042   5.555  11.555 -0.1754  0.1293  0.0135
 4794W        W 6994  26.390   3.424  33.138 -0.1407 -0.2291 -0.1261
 4795W        W 6995  19.179   0.082  21.745  0.0971  0.0099 -0.1529
 4796W        W 6996  19.427   5.548  29.165  0.2620 -0.0763 -0.1643
 4797W        W 6997  22.471   1.651  35.202 -0.0127 -0.1594 -0.0599
 4798W        W 6998   5.349   0.164  27.436 -0.0631 -0.2481  0.1576
 4799W        W 6999  22.016   1.229   3.912  0.0781 -0.0181 -0.2982
 4800W        W 7000   6.019   0.138  21.842  0.3134 -0.1752 -0.0468
 4801W        W 7001  13.155   2.779  31.739  0.0095  0.2662  0.2443
 4802W        W 7002  21.469   3.765  29.330  0.1130 -0.2067  0.0665
 4803W        W 7003  21.070   3.656   6.204  0.0388  0.0467 -0.2305
 4804W        W 7004   2.020   3.790   7.112 -0.1732  0.0096  0.1442
 4805W        W 7005  15.636   0.958   0.755  0.0563  0.3458 -0.0412
 4806W        W 7006   8.307   2.523  24.245  0.2287  0.0681 -0.0083
 4807W        W 7007   4.757   2.471  31.542  0.1152 -0.0320 -0.1060
 4808W        W 7008   4.392   1.096   7.318  0.0026 -0.1410  0.1553
 4809W        W 7009  11.690   5.896   4.608 -0.0450  0.1754 -0.0769
 4810W        W 7010  19.373   5.113   7.577  0.0611  0.0461  0.0881
 4811W        W 7011  17.467   1.705   8.169 -0.2537  0.0107  0.1291
 4812W        W 7012   8.770   6.112  26.801 -0.0869  0.0813  0.1927
 4813W        W 7013   5.219   2.443  15.191  0.0714  0.4202  0.2228
 4814W        W 7014  21.518   6.439  27.507 -0.0599 -0.0610  0.0655
 4815W        W 7015  23.787   5.276   7.390 -0.3328  0.0425 -0.0487
 4816W        W 7016   9.040   1.034  27.761  0.1322 -0.0359 -0.4193
 4817W        W 7017  20.989   5.547  35.246 -0.1138  0.2392  0.0742
 4818W        W 7018   5.796   5.309  26.475 -0.1744  0.1506 -0.0865
 4819W        W 7019   2.379   5.340   3.123 -0.2171 -0.5158 -0.1942
 4820W        W 7020  11.790   2.005  25.058  0.1516  0.0523  0.1612
 4821W        W 7021   5.797   4.938  21.857 -0.0677  0.0054  0.1087
 4822W        W 7022  23.053   0.613   2.538  0.2606  0.1065  0.0995
 4823W        W 7023   2.891   1.385  15.186 -0.1830  0.0064  0.2571
 4824W        W 7024  10.600   5.742  12.109  0.0166 -0.0470  0.1060
 4825W        W 7025   0.939   0.893  25.544 -0.4580 -0.0593 -0.0928
 4826W        W 7026  22.509   4.621   4.210  0.2990 -0.0095 -0.0709
 4827W        W 7027  22.860   2.875  31.195  0.0156 -0.1076 -0.0029
 4828W        W 7028  20.380   3.668  30.857  0.0439 -0.1842 -0.1043
 4829W        W 7029   8.880   2.093  13.676  0.1668 -0.2407  0.0046
 4830W        W 7030  18.551   6.437   4.876 -0.1016  0.2345 -0.1088
 4831W        W 7031  13.405   1.837  27.593  0.0823 -0.4037  0.0134
 4832W        W 7032  13.826   5.130   6.111 -0.2508  0.0614  0.1744
 4833W        W 7033  23.885   4.715   3.222  0.1008 -0.2263 -0.2674
 4834W        W 7034  21.852   3.809  30.738 -0.0626 -0.0506 -0.0323
 4835W        W 7035  21.351   5.897  25.213 -0.3719  0.0609  0.5242
 4836W        W 7036   8.732   4.517   7.584 -0.1421  0.1226 -0.1099
 4837W        W 7037  22.505   5.681   0.101 -0.0029  0.3687  0.0577
 4838W        W 7038   1.069   3.666   6.784  0.1128  0.2619 -0.2398
 4839W        W 7039  19.626   0.304  12.544  0.3559  0.3551 -0.1193
 4840W        W 7040  15.452   1.379   5.152 -0.2408  0.1948  0.1089
 4841W        W 7041  15.390   3.726   0.194  0.1815 -0.0470 -0.1109
 4842W        W 7042  16.649   2.507  29.312  0.0833  0.2083  0.0114
 4843W        W 7043   8.280   1.420  33.712 -0.0177  0.0740  0.1886
 4844W        W 7044   7.374   2.952  23.818 -0.2088  0.0620  0.3218
 4845W        W 7045  10.062   5.083   9.716  0.0037 -0.1432  0.1971
 4846W        W 7046  15.505   2.474  22.366  0.0549 -0.1068 -0.3179
 4847W        W 7047  23.916   3.024  14.799  0.2568  0.0728  0.0437
 4848W        W 7048   5.844   2.292  13.788 -0.4653  0.1151 -0.0909
 4849W        W 7049  20.774   2.616  12.922  0.0005  0.0699  0.2825
 4850W        W 7050  25.546   6.264  21.218 -0.0582 -0.1389  0.1246
 4851W        W 7051   3.320   1.106  11.527  0.1054 -0.0581  0.1217
 4852W        W 7052   7.766   1.492  15.261  0.0826  0.0551  0.2489
 4853W        W 7053  20.832   1.574  28.810 -0.2918 -0.4040  0.1357
 4854W        W 7054  19.179   1.267  24.270 -0.2803  0.0240  0.0503
 4855W        W 7055  19.251   4.152  25.424 -0.3323  0.0468 -0.1005
 4856W        W 7056  20.802   1.761   0.400  0.0205  0.0905 -0.0470
 4857W        W 7057  14.113   5.830   2.873  0.0570  0.1111 -0.0821
 4858W        W 7058   7.019   2.341  24.506 -0.1551  0.1124  0.3345
 4859W        W 7059   5.840   4.082  14.546  0.0654  0.1348  0.0121
 4860W        W 7060  13.426   3.006   1.129 -0.0157  0.1325  0.2908
 4861W        W 7061  11.978   1.823  25.483  0.1931  0.0423  0.4392
 4862W        W 7062  23.335   0.458  25.042 -0.0745  0.1683  0.2519
 4863W        W 7063  11.567   0.261  14.894  0.0640 -0.1861 -0.1614
 4864W        W 7064  21.678   0.803  12.805  0.2008  0.2581  0.3756
 4865W        W 7065  12.069   2.875  30.152  0.0927 -0.1386  0.2144
 4866W        W 7066   5.531   1.667  33.410  0.0259  0.0044 -0.1007
 4867W        W 7067  15.950   0.765   6.085 -0.0601  0.2774 -0.0098
 4868W        W 7068  24.714   4.870  20.758 -0.0594  0.0378 -0.2517
 4869W        W 7069  19.258   2.262  32.309 -0.1748 -0.0553  0.1621
 4870W        W 7070   4.366   0.728  25.236  0.0503  0.0491  0.2015
 4871W        W 7071   5.436   0.824   7.372  0.1393 -0.0538 -0.2806
 4872W        W 7072  21.749   3.194   9.510  0.0844  0.2772  0.2681
 4873W        W 7073   0.575   3.014   2.333  0.0002  0.1580 -0.0543
 4874W        W 7074  15.902   3.116  30.738  0.0874  0.2134 -0.0559
 4875W        W 7075  26.084   1.761  10.816 -0.0296 -0.0691  0.3288
 4876W        W 7076   7.571   2.896  21.566 -0.2350  0.2583  0.1608
 4877W        W 7077  17.264   3.739  32.601  0.0241  0.4495  0.0988
 4878W        W 7078   9.802   2.049  22.060  0.1448 -0.2584  0.0624
 4879W        W 7079  24.520   2.153  34.739 -0.1005 -0.2360 -0.0413
 4880W        W 7080  20.007   1.655   1.746 -0.1503  0.1620  0.1880
 4881W        W 7081  17.938   4.032   3.693 -0.0018  0.0022  0.1436
 4882W        W 7082   9.310   3.249  10.546  0.0629 -0.0195 -0.0145
 4883W        W 7083  12.325   5.448  34.103  0.0708 -0.2687  0.3358
 4884W        W 7084   1.627   1.738  14.040 -0.1164  0.1511  0.1244
 4885W        W 7085   8.192   3.926  10.275  0.1545  0.1506  0.0085
 4886W        W 7086  13.561   6.029  15.295 -0.2387 -0.0046  0.0989
 4887W        W 7087  26.203   5.716  35.565  0.0888 -0.0205  0.1178
 4888W        W 7088  13.616   5.065   0.054  0.0433  0.1046  0.0775
 4889W        W 7089  25.080   4.654  32.899  0.1223  0.0191 -0.1655
 4890W        W 7090  17.911   1.988   7.865  0.0134  0.0005 -0.1548
 4891W        W 7091   8.621   6.180   0.707  0.2991  0.2897  0.1482
 4892W        W 7092  16.366   2.917   4.537  0.0253 -0.1089  0.1164
 4893W        W 7093  17.483   0.779  27.352  0.3028 -0.0217 -0.0040
 4894W        W 7094  15.839   2.173  21.062  0.2302 -0.1031 -0.0410
 4895W        W 7095  12.630   0.454  21.322  0.3408 -0.1404  0.1071
 4896W        W 7096   1.828   1.871  15.336  0.0289 -0.2455  0.5422
 4897W        W 7097   2.488   3.516   3.859  0.2109  0.0599 -0.0348
 4898W        W 7098  18.673   4.386  10.923  0.1679 -0.0929 -0.0733
 4899W        W 7099  21.164   1.671  32.154 -0.0078  0.0553 -0.0256
 4900W        W 7100  19.121   6.140  25.545  0.3705 -0.1110  0.2928
 4901W        W 7101  22.848   4.148   7.724  0.0649  0.3037  0.1358
 4902W        W 7102   6.721   0.167  34.149  0.2159  0.2419 -0.0427
 4903W        W 7103   6.789   4.017   4.159  0.0527  0.0717  0.0360
 4904W        W 7104   6.784   0.875  32.493 -0.2521 -0.2939 -0.0084
 4905W        W 7105  10.789   6.144  29.635  0.1457 -0.2088 -0.0747
 4906W        W 7106   4.784   2.168   0.752  0.3188  0.2612 -0.0567
 4907W        W 7107  21.254   3.066   9.451  0.3944 -0.0351 -0.1730
 4908W        W 7108  21.628   5.625  25.950  0.0524 -0.0553 -0.0344
 4909W        W 7109  10.865   1.594  26.689  0.1171 -0.1611  0.0324
 4910W        W 7110  19.066   0.020  31.320  0.1605 -0.2181  0.0878
 4911W        W 7111  15.276   0.963  12.407  0.4186 -0.0626 -0.1392
 4912W        W 7112  25.985   0.080  11.766  0.2122 -0.0853 -0.2179
 4913W        W 7113   1.568   4.426   4.574 -0.2717 -0.0419 -0.0730
 4914W        W 7114  23.943   3.980   7.416 -0.1272  0.0116 -0.4988
 4915W        W 7115  17.172   3.928  30.857 -0.0106  0.1401  0.0328
 4916W        W 7116  21.146   2.460   0.694  0.1314  0.0515 -0.0082
 4917W        W 7117  26.043   1.235   7.538  0.1829 -0.2784  0.2113
 4918W        W 7118  11.235   6.352   1.872 -0.1581  0.2178 -0.0656
 4919W        W 7119   4.023   2.421  13.393 -0.3955 -0.1103  0.2631
 4920W        W 7120   1.726   5.138  10.754 -0.1133  0.1211 -0.0565
 4921W        W 7121  25.567   2.591   7.088  0.1390  0.0181  0.0309
 4922W        W 7122   9.013   5.605  25.606 -0.0720 -0.0593 -0.1111
 4923W        W 7123  18.208   3.248  33.751  0.1769  0.1165  0.0407
 4924W        W 7124  23.525   2.791  29.646  0.0254 -0.0241  0.0182
 4925W        W 7125   1.475   2.929  14.294 -0.1534  0.1096 -0.2577
 4926W        W 7126   6.669   1.209  31.704  0.1046  0.1282  0.0465
 4927W        W 7127  23.846   2.543  22.134  0.0290 -0.1063 -0.2229
 4928W        W 7128  16.648   6.484  33.362 -0.0087  0.1296 -0.0561
 4929W        W 7129  15.317   5.797  32.882  0.3140  0.2603  0.0083
 4930W        W 7130   1.726   4.422   6.477 -0.0113 -0.4181 -0.0045
 4931W        W 7131  21.878   2.130  10.326  0.1830 -0.2993  0.1195
 4932W        W 7132  22.080   1.959  21.856  0.2102 -0.0589  0.2682
 4933W        W 7133  13.430   3.976  22.141 -0.2314  0.1121 -0.0008
 4934W        W 7134  24.589   1.414  23.022  0.0169  0.0692 -0.1778
 4935W        W 7135  20.188   3.254  32.082 -0.2004  0.3926  0.0309
 4936W        W 7136   2.903   5.659  35.583 -0.3950 -0.1354  0.0620
 4937W        W 7137  21.460   2.819   1.431  0.0515  0.1886 -0.2741
 4938W        W 7138   9.857   3.959  23.436  0.1059 -0.1495  0.2852
 4939W        W 7139   1.278   5.424  28.751  0.0882  0.1412 -0.0480
 4940W        W 7140   6.634   1.301  35.723 -0.3119  0.0636  0.4726
 4941W        W 7141   4.735   0.475  33.414 -0.1400  0.1028  0.0421
 4942W        W 7142  10.084   0.160  25.785 -0.1949  0.0834 -0.3113
 4943W        W 7143  14.616   6.159  28.724  0.0078 -0.0126  0.0885
 4944W        W 7144  14.914   0.186   4.945 -0.2743 -0.1770 -0.2802
 4945W        W 7145  16.207   5.785   7.744  0.1811  0.0587 -0.1149
 4946W        W 7146  19.996   3.364   4.253  0.1402 -0.1165 -0.0348
 4947W        W 7147   0.419   1.102  26.412 -0.0849 -0.1399 -0.3180
 4948W        W 7148  23.779   5.746   0.904 -0.1932  0.1379 -0.0507
 4949W        W 7149  11.881   6.387  30.639  0.3206 -0.1412  0.1107
 4950W        W 7150   6.018   0.806  23.080  0.2777 -0.0985  0.1808
 4951W        W 7151   4.209   6.044  24.969 -0.0178 -0.1148 -0.2050
 4952W        W 7152   4.385   6.425  29.119 -0.0197  0.0229  0.2342
 4953W        W 7153   5.197   6.440  14.749 -0.0798 -0.0754  0.0155
 4954W        W 7154  25.130   0.095  26.205  0.0830  0.1506 -0.1912
 4955W        W 7155   0.442   4.902  14.308 -0.0337  0.1561 -0.2964
 4956W        W 7156   1.010   4.893   7.976  0.0737  0.2051  0.1304
 4957W        W 7157   0.589   4.899  12.218  0.2079 -0.1637  0.2591
 4958W        W 7158  21.455   2.280   3.784  0.1464  0.0670 -0.0489
 4959W        W 7159   4.950   0.512   4.794 -0.1245  0.1205 -0.1294
 4960W        W 7160   7.158   2.337  13.039  0.0747 -0.2352  0.2107
 4961W        W 7161   3.658   4.711  21.737  0.0050 -0.2544 -0.1888
 4962W        W 7162   3.825   4.256  31.084 -0.0950 -0.3919  0.1023
 4963W        W 7163  15.081   2.438  22.596 -0.1235 -0.0390  0.0312
 4964W        W 7164  21.310   4.677   8.602 -0.2869 -0.2115 -0.0671
 4965W        W 7165  14.027   1.036  15.229  0.0936  0.2471 -0.0638
 4966W        W 7166   4.472   2.542   9.581  0.0254  0.0393 -0.0585
 4967W        W 7167  14.416   0.645  26.673  0.1161 -0.3417 -0.1492
 4968W        W 7168  15.498   1.428  22.200  0.1403 -0.0819  0.0061
 4969W        W 7169   9.728   0.637   7.949 -0.2364  0.0484  0.0324
 4970W        W 7170  20.148   3.826   9.374 -0.1327 -0.0379  0.0599
 4971W        W 7171  23.151   5.897  26.841 -0.1403  0.0379  0.1473
 4972W        W 7172  14.825   3.595  30.010  0.2914 -0.1117  0.1228
 4973W        W 7173   5.402   5.480  34.402  0.1214 -0.0338 -0.2164
 4974W        W 7174  17.886   1.426   2.490  0.1652  0.1120  0.3360
 4975W        W 7175  16.320   0.204  31.741 -0.2037 -0.1935 -0.0990
 4976W        W 7176  25.753   1.007  34.372 -0.2440 -0.0451  0.4102
 4977W        W 7177  21.168   5.105  12.242 -0.1450  0.0708 -0.1070
 4978W        W 7178  26.242   6.164   7.593 -0.2196  0.1356 -0.0104
 4979W        W 7179   4.393   0.469   4.738 -0.0871  0.0991  0.0517
 4980W        W 7180   0.379   1.916  23.910  0.0521  0.1520  0.2968
 4981W        W 7181   1.492   2.826  24.988  0.3743 -0.0588 -0.0898
 4982W        W 7182  25.019   0.628   2.982 -0.3000  0.1130  0.0830
 4983W        W 7183  15.385   3.328   5.987  0.0789 -0.0702 -0.1324
 4984W        W 7184  20.382   2.935  23.608 -0.3718  0.0499 -0.0061
 4985W        W 7185   5.167   2.229  11.238 -0.1275  0.1351  0.1871
 4986W        W 7186  19.740   1.012  22.656 -0.0428  0.0849 -0.3231
 4987W        W 7187   5.363   4.637  13.008  0.3167  0.1042 -0.2077
 4988W        W 7188  12.310   1.870  14.871  0.5484  0.0817  0.1069
 4989W        W 7189   7.381   2.152   7.918  0.0341 -0.0967 -0.0840
 4990W        W 7190  23.585   1.209  32.816  0.1757 -0.2636 -0.0429
 4991W        W 7191  22.516   5.122  20.097  0.2173  0.0426 -0.0765
 4992W        W 7192   5.428   2.714   8.075 -0.1103 -0.2880  0.2049
 4993W        W 7193  24.932   5.969  34.822 -0.2265 -0.1885  0.3200
 4994W        W 7194  17.147   5.735   7.187 -0.1414 -0.2387  0.0463
 4995W        W 7195  24.676   2.406   6.415 -0.2386 -0.1975  0.0231
 4996W        W 7196  24.893   6.036   1.704  0.1346 -0.0494 -0.0854
 4997W        W 7197  20.414   6.361  24.903  0.0431 -0.0055  0.1208
 4998W        W 7198  23.792   5.286   4.764 -0.0126 -0.1268  0.0258
 4999W        W 7199   6.011   1.931   7.329 -0.3398 -0.1047 -0.0482
 5000W        W 7200   5.412   5.117  23.353  0.2063 -0.2794 -0.3308
 5001W        W 7201   3.233   6.298   9.609  0.3067 -0.0212  0.1343
 5002W        W 7202  20.745   2.030  23.668  0.0398 -0.3045  0.2909
 5003W        W 7203  18.342   3.262  14.679  0.3397  0.3110 -0.3548
 5004W        W 7204  21.062   1.354  29.791  0.1255  0.2495  0.1273
 5005W        W 7205  20.248   3.672  24.832  0.1624  0.0995 -0.1491
 5006W        W 7206   3.500   0.659  25.741 -0.0305  0.0661  0.0605
 5007W        W 7207   2.659   0.543  34.496 -0.1861 -0.2229  0.1348
 5008W        W 7208  23.406   4.409  27.808  0.1049 -0.0541  0.0541
 5009W        W 7209   6.534   6.101  13.195 -0.1858  0.0728 -0.3359
 5010W        W 7210  15.385   3.556  23.295  0.1533 -0.0495 -0.0650
 5011W        W 7211  18.061   4.111   8.557 -0.3058  0.3971 -0.1380
 5012W        W 7212   1.857   4.356   1.108 -0.0718 -0.3179  0.0824
 5013W        W 7213   5.087   6.381  28.977 -0.0372  0.0006 -0.0178
 5014W        W 7214  21.489   3.338  22.183  0.1751 -0.1907  0.1488
 5015W        W 7215   3.459   3.222  11.709  0.2824  0.0948  0.0266
 5016W        W 7216  21.739   4.455  27.593  0.1557 -0.0066 -0.1814
 5017W        W 7217  13.977   4.809  24.374 -0.4337  0.0209  0.0404
 5018W        W 7218   9.364   3.775   2.627  0.0798  0.1774 -0.0258
 5019W        W 7219  20.872   3.753  23.927  0.0264 -0.1383 -0.2055
 5020W        W 7220  19.696   5.632   8.203 -0.0760 -0.3839  0.0588
 5021W        W 7221  10.787   1.567   1.542  0.4536  0.0809 -0.0168
 5022W        W 7222  15.520   5.885  26.284  0.1247 -0.0216 -0.0140
 5023W        W 7223   7.335   0.394  24.415 -0.0824 -0.1225  0.0481
 5024W        W 7224  14.273   4.581   1.631 -0.1282  0.0450 -0.0518
 5025W        W 7225  11.915   2.083   8.766 -0.0278  0.0155  0.0081
 5026W        W 7226  17.727   6.329  26.220 -0.2500  0.0521  0.2324
 5027W        W 7227   8.013   3.723  31.324 -0.1943 -0.2619  0.0162
 5028W        W 7228  17.660   2.263   1.309  0.1351 -0.0033 -0.1002
 5029W        W 7229  18.875   1.310   9.659  0.0236 -0.1099 -0.0365
 5030W        W 7230  20.082   2.533  29.602 -0.1004 -0.2918  0.2593
 5031W        W 7231  23.912   5.691  29.900 -0.0629  0.0657 -0.1636
 5032W        W 7232  16.844   2.297  25.560 -0.2241 -0.0562 -0.0622
 5033W        W 7233  13.076   6.333  10.604  0.1008  0.0551  0.0458
 5034W        W 7234  20.354   0.194  30.115  0.0270  0.4377 -0.1989
 5035W        W 7235   9.656   1.321   0.636  0.0118 -0.0691  0.1189
 5036W        W 7236   0.473   6.555  21.106  0.1202  0.0784 -0.1191
 5037W        W 7237  18.741   5.170  26.036  0.1893 -0.1924  0.0750
 5038W        W 7238   3.334   1.117  10.637  0.4475 -0.0318 -0.0972
 5039W        W 7239  18.850   0.837   8.468  0.0455  0.0313  0.1232
 5040W        W 7240  20.278   5.341   6.574  0.0050 -0.0286  0.0153
 5041W        W 7241  16.119   2.783  29.195  0.1051 -0.2070  0.1609
 5042W        W 7242  26.392   2.435  11.402 -0.1571 -0.2646  0.0393
 5043W        W 7243  21.527   2.465   6.769  0.2782 -0.0713  0.1820
 5044W        W 7244  23.038   2.422   2.511  0.0349 -0.0660 -0.2972
 5045W        W 7245   9.640   4.711   4.778 -0.1782  0.0196 -0.2066
 5046W        W 7246  25.352   5.051   8.923 -0.3727  0.2227  0.2899
 5047W        W 7247  14.157   5.959   1.588 -0.1649  0.4045  0.2652
 5048W        W 7248  13.627   0.124   2.901  0.3078  0.0620  0.0710
 5049W        W 7249  10.715   2.905  12.697 -0.4025 -0.0876 -0.0329
 5050W        W 7250   2.407   1.623  35.261  0.0214 -0.0377 -0.1285
 5051W        W 7251   9.853   5.198  34.010  0.1380  0.2630  0.3266
 5052W        W 7252  18.505   6.184  28.202  0.4567  0.2428  0.3853
 5053W        W 7253  14.669   2.985  21.486 -0.1023 -0.3606 -0.1094
 5054W        W 7254  21.639   2.350   8.300  0.0107  0.0186 -0.2147
 5055W        W 7255  19.368   0.001  30.900  0.0578  0.1495 -0.0732
 5056W        W 7256  13.300   2.992   5.643 -0.2102 -0.1383 -0.0737
 5057W        W 7257   8.419   2.382  31.475 -0.2761 -0.2536 -0.0070
 5058W        W 7258  14.565   6.075  24.379 -0.3887 -0.0162  0.0457
 5059W        W 7259   7.453   5.969   0.111  0.0628  0.0844  0.0646
 5060W        W 7260   8.444   0.370  12.276 -0.3653  0.2042 -0.2444
 5061W        W 7261  17.087   1.985   4.961 -0.1101 -0.0021  0.0017
 5062W        W 7262  16.855   5.131   9.085 -0.1627 -0.0096  0.1723
 5063W        W 7263  18.321   3.105  29.356 -0.3015  0.2480 -0.1611
 5064W        W 7264   8.247   2.241   5.862 -0.1508  0.2226  0.0874
 5065W        W 7265  11.059   2.719   3.784  0.3858 -0.1862 -0.0211
 5066W        W 7266  25.816   6.333  32.755 -0.1250  0.0769  0.0258
 5067W        W 7267   9.240   1.508  27.812 -0.0160 -0.0085  0.1426
 5068W        W 7268  12.557   1.215   8.041 -0.2122  0.1221  0.0008
 5069W        W 7269   6.034   0.273   6.381 -0.0154 -0.0848 -0.0586
 5070W        W 7270  23.414   6.193  25.231  0.2492  0.1195  0.0796
 5071W        W 7271  14.805   4.788  21.787  0.0024  0.2425  0.1927
 5072W        W 7272  22.963   2.704  33.453 -0.1389  0.0734 -0.0432
 5073W        W 7273  13.769   1.317  35.648  0.2404 -0.2246  0.0211
 5074W        W 7274   6.912   1.954  31.707  0.0006  0.0019 -0.0510
 5075W        W 7275  12.117   4.251   7.718 -0.2721 -0.2804 -0.0575
 5076W        W 7276  25.409   2.798   6.510 -0.0729 -0.0701 -0.1904
 5077W        W 7277   7.216   3.425  28.434 -0.1695  0.0232  0.0764
 5078W        W 7278   5.656   4.899  15.195 -0.1514  0.0005 -0.0401
 5079W        W 7279  10.465   6.402  10.491  0.0436  0.0988  0.0144
 5080W        W 7280  15.664   3.896   6.573  0.1961 -0.4426  0.1129
 5081W        W 7281   5.325   3.138  34.858  0.1106  0.1306 -0.4812
 5082W        W 7282  19.629   1.115  15.170 -0.0256 -0.1495  0.0300
 5083W        W 7283  22.661   1.138  24.166  0.0200  0.1355 -0.0308
 5084W        W 7284  14.896   3.754   5.026 -0.2164 -0.1961  0.1226
 5085W        W 7285  12.843   2.838  14.701  0.0285 -0.0017  0.1000
 5086W        W 7286  21.449   4.092  33.777  0.2293  0.1308 -0.3112
 5087W        W 7287  21.140   4.556  24.165  0.1512 -0.2136 -0.0556
 5088W        W 7288  13.802   4.689  26.368 -0.3024  0.1671 -0.1125
 5089W        W 7289  17.594   5.963  33.998 -0.3865 -0.0931 -0.1435
 5090W        W 7290  10.597   2.554   2.373 -0.0913  0.0263  0.4034
 5091W        W 7291  17.113   3.784  25.563 -0.0962  0.3740  0.0255
 5092W        W 7292  23.958   1.129  22.681  0.0536  0.0389  0.0588
 5093W        W 7293   2.381   4.835   7.214 -0.1624  0.0492  0.1790
 5094W        W 7294   4.347   2.118   8.909 -0.0433 -0.0018 -0.1251
 5095W        W 7295  23.660   6.121  27.991  0.1840 -0.1111 -0.0648
 5096W        W 7296  19.605   4.695  29.133  0.1854  0.1162 -0.1800
 5097W        W 7297  21.718   1.401   6.563 -0.3544  0.0305  0.0314
 5098W        W 7298   8.000   5.106   6.469 -0.1025 -0.0536  0.0415
 5099W        W 7299   8.448   0.300  13.597 -0.0653  0.1934 -0.3231
 5100W        W 7300  21.593   2.863   0.026 -0.2483 -0.0803 -0.1515
 5101W        W 7301   8.774   4.773  12.373 -0.2215 -0.2840  0.0662
 5102W        W 7302  16.405   6.256  35.536  0.1651  0.0241 -0.0296
 5103W        W 7303  15.088   1.882  11.115  0.1568  0.1185 -0.2856
 5104W        W 7304  18.813   1.814   6.146  0.0310  0.0753  0.1858
 5105W        W 7305  11.853   4.343  23.360 -0.3310  0.0072 -0.1864
 5106W        W 7306   3.030   4.064  21.683  0.2276 -0.0686  0.0073
 5107W        W 7307   6.306   4.924  12.538 -0.3148 -0.2648 -0.1545
 5108W        W 7308   3.710   4.477  27.715  0.0517 -0.0138 -0.2541
 5109W        W 7309   3.789   4.741  31.295  0.0797  0.1493  0.1005
 5110W        W 7310  24.505   3.939   1.510 -0.2234 -0.1252  0.2723
 5111W        W 7311   2.914   3.083  34.348 -0.2769 -0.3824 -0.1607
 5112W        W 7312  18.751   1.794  27.931 -0.1508 -0.0282 -0.1038
 5113W        W 7313   5.573   3.705   5.966  0.1258  0.2047  0.2679
 5114W        W 7314   9.724   4.022   2.159 -0.0938 -0.0377  0.3842
 5115W        W 7315   1.841   3.331   8.827 -0.1307  0.0013  0.3160
 5116W        W 7316  15.773   1.491   7.444 -0.1386  0.0087  0.1874
 5117W        W 7317  24.847   4.446  35.331 -0.0331 -0.1753 -0.1198
 5118W        W 7318   2.717   4.668  20.904  0.0125  0.2422  0.0098
 5119W        W 7319  13.224   2.483   5.342  0.2096 -0.0739  0.0795
 5120W        W 7320  25.763   2.759  14.011  0.0248  0.0282  0.1854
 5121W        W 7321  19.820   4.406   3.207 -0.3302 -0.2153 -0.1463
 5122W        W 7322   7.440   5.891  28.534 -0.0511  0.0936  0.0231
 5123W        W 7323   5.202   6.101  13.739  0.0981  0.2498 -0.0887
 5124W        W 7324  17.544   2.679  12.379 -0.0757  0.3072 -0.0099
 5125W        W 7325   8.144   0.856   2.701 -0.0482 -0.3592 -0.0972
 5126W        W 7326   9.764   3.271   3.751  0.1398  0.1544 -0.2051
 5127W        W 7327  25.146   2.190   4.598  0.2905  0.0811 -0.2498
 5128W        W 7328  23.251   2.373   6.780 -0.2567 -0.2907 -0.0405
 5129W        W 7329  13.368   2.527  24.836 -0.0684 -0.4375 -0.2368
 5130W        W 7330  19.849   1.852  34.561 -0.0832  0.1449  0.3167
 5131W        W 7331   3.591   4.346   9.560 -0.0144 -0.2249  0.1388
 5132W        W 7332  24.623   1.759   0.582 -0.2763  0.0050  0.0221
 5133W        W 7333   3.047   1.123  35.658 -0.0295  0.0767  0.1003
 5134W        W 7334  23.599   2.574   3.834  0.1928 -0.3808  0.1960
 5135W        W 7335  25.308   0.535  20.855 -0.0926 -0.0861  0.0729
 5136W        W 7336  22.655   4.816  31.022  0.3110 -0.0197 -0.1725
 5137W        W 7337   8.744   4.509  34.473 -0.0882  0.2512 -0.1822
 5138W        W 7338  22.796   4.545   1.591 -0.0417 -0.0916 -0.3048
 5139W        W 7339   2.536   2.434   3.260  0.3136 -0.2296  0.2965
 5140W        W 7340   3.495   1.303  32.932  0.0108  0.1455 -0.0997
 5141W        W 7341  14.508   1.317  11.861 -0.2152  0.3232 -0.0738
 5142W        W 7342  20.547   3.424  21.244  0.0791  0.0182 -0.0026
 5143W        W 7343  21.333   1.687   2.327 -0.1069  0.1414 -0.3263
 5144W        W 7344  11.713   5.468  30.057  0.0302 -0.1041  0.1735
 5145W        W 7345  18.136   0.040   9.678  0.2344  0.0962  0.1027
 5146W        W 7346   2.474   5.522  11.189 -0.2905  0.1508 -0.3972
 5147W        W 7347  16.140   6.392   8.535 -0.0606 -0.1381 -0.1390
 5148W        W 7348   3.836   5.347   5.474  0.2429  0.1937  0.0171
 5149W        W 7349   0.890   5.264   1.090 -0.1157 -0.0768  0.2470
 5150W        W 7350  21.501   0.259  21.532  0.1076 -0.1277 -0.1067
 5151W        W 7351  17.242   4.129  34.655  0.2693 -0.2637  0.2190
 5152W        W 7352   3.990   4.488  10.662  0.4113 -0.2282 -0.1493
 5153W        W 7353   4.767   1.543  34.018 -0.2914  0.0804 -0.1417
 5154W        W 7354  18.303   2.106   9.591 -0.2600  0.2499  0.1715
 5155W        W 7355  21.353   0.421   9.687  0.0447 -0.0797 -0.0773
 5156W        W 7356   2.368   4.844  11.879  0.0006 -0.1617  0.0640
 5157W        W 7357   3.758   4.059   7.437  0.1694  0.0472 -0.0779
 5158W        W 7358  20.412   6.063  21.061 -0.2463 -0.0355  0.1527
 5159W        W 7359  15.947   4.412   9.843 -0.0165 -0.3741 -0.1163
 5160W        W 7360  16.465   2.733   6.891 -0.0404  0.0760 -0.0247
 5161W        W 7361   8.000   5.587  13.012 -0.0321 -0.0912  0.2844
 5162W        W 7362   3.969   5.625   9.096 -0.1649 -0.1747  0.0882
 5163W        W 7363  24.929   2.890  33.301  0.3787 -0.1522 -0.0914
 5164W        W 7364   2.236   6.044  21.095  0.1970 -0.4146 -0.0624
 5165W        W 7365  23.461   3.106  25.961 -0.1719  0.1775 -0.2651
 5166W        W 7366  19.172   3.134  11.243 -0.0192 -0.0630  0.0214
 5167W        W 7367  20.157   3.398   1.617 -0.0752 -0.1040  0.0799
 5168W        W 7368  16.821   5.391  30.285 -0.1557  0.0409  0.0088
 5169W        W 7369   0.313   0.075   5.971  0.0001  0.1813 -0.4241
 5170W        W 7370   3.977   0.718  20.846 -0.1981 -0.1719 -0.0050
 5171W        W 7371  17.124   5.355   4.874 -0.0654 -0.0556  0.0379
 5172W        W 7372  12.971   4.323  23.922  0.2085 -0.2322 -0.0114
 5173W        W 7373   0.619   2.265  27.098  0.1987 -0.1928  0.1275
 5174W        W 7374  24.688   5.801  25.977 -0.0390 -0.1035  0.1143
 5175W        W 7375  21.144   4.771  27.414 -0.0792 -0.0946 -0.4688
 5176W        W 7376  23.945   2.611   6.447 -0.2124  0.3373  0.0477
 5177W        W 7377  25.776   4.710  29.843  0.1614  0.3677  0.1673
 5178W        W 7378  17.221   5.056   0.422  0.1354 -0.0092 -0.0798
 5179W        W 7379   4.359   4.987  33.912 -0.1339 -0.1406  0.1528
 5180W        W 7380  13.347   2.697   0.189 -0.0899 -0.1226  0.0833
 5181W        W 7381   0.491   1.515   7.378 -0.2388 -0.2194 -0.2084
 5182W        W 7382  24.262   2.632   0.452 -0.1463 -0.1059  0.0902
 5183W        W 7383  18.720   3.471  26.871 -0.4414 -0.5443 -0.0487
 5184W        W 7384   3.181   6.327   4.887  0.1514 -0.1510  0.3698
 5185W        W 7385   4.885   1.809   4.869 -0.1960  0.1105 -0.1836
 5186W        W 7386  16.912   0.228  30.202 -0.1357  0.0685 -0.0216
 5187W        W 7387   7.081   1.649  34.267  0.1806 -0.0048 -0.0413
 5188W        W 7388   8.665   2.673  12.072 -0.0260  0.1348  0.2151
 5189W        W 7389  18.875   0.995   9.216 -0.1682 -0.4381  0.1188
 5190W        W 7390  17.247   5.587  27.646 -0.0575  0.1906 -0.2295
 5191W        W 7391  21.279   5.316   6.928  0.0319 -0.2571 -0.0431
 5192W        W 7392  24.767   4.910  24.113 -0.0191 -0.0727  0.1757
 5193W        W 7393  16.080   6.358  22.271  0.0383  0.1907  0.0411
 5194W        W 7394   3.982   1.140   3.281  0.2278  0.3461  0.2304
 5195W        W 7395   8.686   3.107   3.504 -0.0989 -0.0638  0.1646
 5196W        W 7396  23.250   5.359   8.701  0.0364  0.0079  0.0790
 5197W        W 7397  21.677   5.589  14.509 -0.1832 -0.1638 -0.2979
 5198W        W 7398  15.193   2.393   7.363 -0.2018  0.2717 -0.2107
 5199W        W 7399  15.561   5.792  35.769 -0.1949 -0.1911 -0.1193
 5200W        W 7400  18.127   6.127   2.209  0.0303  0.4502 -0.2974
 5201W        W 7401   3.604   1.620   1.421 -0.1225 -0.2901 -0.0043
 5202W        W 7402  11.860   2.887  20.610 -0.1116 -0.0605 -0.1577
 5203W        W 7403  14.655   4.415  31.122 -0.0945 -0.0661  0.1173
 5204W        W 7404  12.334   1.529  34.685 -0.1143  0.1886  0.0284
 5205W        W 7405  14.624   4.639  21.072 -0.0041 -0.0322  0.1770
 5206W        W 7406   5.185   0.488  21.621 -0.0940 -0.0297  0.0550
 5207W        W 7407   9.872   4.271  11.425 -0.1574  0.0668  0.0130
 5208W        W 7408   1.816   3.051   8.374 -0.1990  0.0294 -0.1287
 5209W        W 7409  24.581   0.723   1.104 -0.2178  0.1457 -0.0897
 5210W        W 7410  25.173   2.550  13.480 -0.0396 -0.0115  0.2416
 5211W        W 7411  22.431   1.074  21.346 -0.2993 -0.0304  0.1443
 5212W        W 7412  16.931   5.681   5.197  0.1587 -0.5142  0.1147
 5213W        W 7413  24.767   3.450  14.681 -0.1105 -0.1738  0.0064
 5214W        W 7414  19.573   0.689  35.653 -0.1056 -0.0187 -0.3983
 5215W        W 7415   8.182   5.322  32.947  0.1532 -0.1483 -0.0412
 5216W        W 7416   9.583   5.944  11.267 -0.3431 -0.2086  0.4487
 5217W        W 7417   5.918   3.929  25.359  0.1047 -0.2296  0.0179
 5218W        W 7418   4.259   0.269   9.378  0.1337 -0.1126  0.1020
 5219W        W 7419  17.053   5.860  21.526 -0.2048 -0.1655 -0.0677
 5220W        W 7420   0.801   6.388  13.784 -0.1133  0.1132  0.0709
 5221W        W 7421  11.020   0.361  32.201  0.0118  0.2132  0.0472
 5222W        W 7422   6.368   3.025  22.407  0.0303  0.1871  0.1456
 5223W        W 7423  10.880   2.163   9.724  0.0769  0.0664 -0.0833
 5224W        W 7424  22.530   2.952  29.615  0.1174  0.1328  0.0896
 5225W        W 7425  25.626   1.106  30.477  0.0544  0.0203  0.0680
 5226W        W 7426  13.934   2.354  31.934  0.0784  0.2102  0.0208
 5227W        W 7427   8.091   1.544  34.553 -0.0033  0.0149 -0.0028
 5228W        W 7428   3.036   3.850   3.499  0.4305 -0.0308  0.0400
 5229W        W 7429  24.022   2.749   3.711 -0.0591 -0.2384 -0.0169
 5230W        W 7430  15.737   0.140   4.960 -0.0894 -0.0620  0.0257
 5231W        W 7431  25.996   5.215  10.667 -0.0951  0.1167  0.0972
 5232W        W 7432   5.270   5.755  25.483  0.1277 -0.0281 -0.1251
 5233W        W 7433  15.103   1.429  21.868  0.2050  0.1515 -0.3160
 5234W        W 7434  12.333   5.214  27.789  0.0033 -0.2881  0.0635
 5235W        W 7435   8.770   4.879  11.041 -0.1591  0.1991  0.1626
 5236W        W 7436  10.436   3.201  14.016  0.2969 -0.2006  0.1071
 5237W        W 7437   6.162   0.982  34.825 -0.0002  0.0599 -0.0771
 5238W        W 7438  13.090   0.399  23.835  0.0307 -0.1748 -0.1607
 5239W        W 7439  19.791   4.540  26.999 -0.0964 -0.0536  0.1538
 5240W        W 7440   1.337   2.518   9.623 -0.0465  0.1159  0.0187
 5241W        W 7441   1.780   2.933   3.596  0.2432 -0.0339 -0.0598
 5242W        W 7442  18.227   1.410  31.094 -0.2845  0.1450  0.2721
 5243W        W 7443  17.227   0.029  33.457 -0.2166  0.2120  0.3130
 5244W        W 7444   4.383   2.578   7.574 -0.0092  0.1267 -0.2774
 5245W        W 7445   9.380   3.636  29.115  0.0706 -0.4559 -0.0880
 5246W        W 7446   3.224   5.713  22.141 -0.0206 -0.2580 -0.3597
 5247W        W 7447   7.929   4.294   0.647  0.1303 -0.0372 -0.3567
 5248W        W 7448  12.168   3.518  23.409 -0.1369  0.1142  0.0730
 5249W        W 7449   3.014   6.275   3.117 -0.1490 -0.0295  0.2139
 5250W        W 7450   3.536   1.879   9.451  0.2050 -0.2712  0.1165
 5251W        W 7451  11.909   1.998  31.281  0.1102  0.3637 -0.2939
 5252W        W 7452  24.231   5.811  31.046 -0.0122 -0.0355  0.0407
 5253W        W 7453  15.447   6.236  28.926 -0.0189  0.0624  0.0756
 5254W        W 7454   3.723   4.246  35.421 -0.1033  0.1218  0.0269
 5255W        W 7455   9.554   5.374  12.514 -0.2005  0.0269 -0.1212
 5256W        W 7456  18.577   5.467  25.695  0.0139 -0.1583 -0.0058
 5257W        W 7457  13.942   3.892  30.537  0.0770 -0.0408 -0.2446
 5258W        W 7458  10.505   1.890   0.418  0.2359 -0.0876  0.1479
 5259W        W 7459  18.648   6.313   3.265 -0.0626 -0.1511  0.4166
 5260W        W 7460  20.487   4.827  22.234 -0.2136  0.0151 -0.2279
 5261W        W 7461  17.787   1.556  13.142  0.0610  0.0554  0.1284
 5262W        W 7462  14.741   6.435   5.431 -0.0374  0.2025 -0.0627
 5263W        W 7463  17.553   1.414   1.314 -0.2238  0.0120 -0.1809
 5264W        W 7464   7.822   6.118  28.141 -0.6227 -0.1930  0.1260
 5265W        W 7465   6.239   0.881  14.075  0.0739 -0.1964 -0.1515
 5266W        W 7466   0.132   0.127  32.270 -0.1360 -0.2021  0.0697
 5267W        W 7467  14.959   5.658  20.892 -0.0005  0.1030  0.1097
 5268W        W 7468  22.858   6.226  31.233 -0.0210  0.1375 -0.0682
 5269W        W 7469  14.924   4.477  23.252 -0.0154 -0.0591  0.0434
 5270W        W 7470  18.531   6.076   7.169  0.0491 -0.4843  0.0383
 5271W        W 7471   3.058   1.380   5.334  0.0110 -0.1514  0.0091
 5272W        W 7472  19.473   4.436  34.175 -0.2007  0.0500 -0.0835
 5273W        W 7473  26.302   4.944  30.501  0.2861  0.1708 -0.0585
 5274W        W 7474   4.501   5.085  10.883  0.1475  0.1453  0.0273
 5275W        W 7475   1.335   4.404   1.097 -0.1525 -0.0176 -0.3200
 5276W        W 7476  10.500   4.805   6.770 -0.0581  0.1879 -0.1780
 5277W        W 7477   4.850   4.232  22.808 -0.0029 -0.2715 -0.2544
 5278W        W 7478   0.376   2.261  14.930  0.2820 -0.3146  0.2191
 5279W        W 7479  19.374   2.564   6.543  0.1494 -0.0270 -0.0080
 5280W        W 7480  20.300   3.829   6.441  0.0756 -0.3837  0.2515
 5281W        W 7481   8.239   6.351  28.545  0.3286 -0.0120 -0.0471
 5282W        W 7482  12.408   2.893  34.397 -0.0024  0.0221 -0.1113
 5283W        W 7483   8.495   0.167  28.455  0.2069  0.0307 -0.2184
 5284W        W 7484   4.278   1.299  27.741  0.0078 -0.0030  0.2564
 5285W        W 7485   8.069   4.345  28.375  0.0735  0.2196  0.2030
 5286W        W 7486  15.681   2.817  32.131  0.1403 -0.0535 -0.1378
 5287W        W 7487  25.702   0.029   8.963 -0.0434  0.0884 -0.0238
 5288W        W 7488  15.163   1.243  25.253 -0.1617 -0.0506  0.0900
 5289W        W 7489   2.840   6.432   4.067  0.2759 -0.1897  0.1069
 5290W        W 7490   6.119   4.039  21.260  0.0530  0.0986 -0.1288
 5291W        W 7491  13.023   4.516   3.668 -0.0746 -0.3858 -0.0721
 5292W        W 7492  17.049   5.659  24.492 -0.3541 -0.0166  0.1555
 5293W        W 7493  12.580   4.704   9.080 -0.1449 -0.0603  0.1418
 5294W        W 7494  17.336   5.889  31.984  0.0059 -0.2661  0.0764
 5295W        W 7495   1.105   2.915  25.721  0.1058 -0.1065 -0.0632
 5296W        W 7496  16.707   2.805  27.166 -0.0771 -0.0924 -0.1488
 5297W        W 7497  25.956   4.888  12.074 -0.0409  0.1127  0.0619
 5298W        W 7498   0.749   4.874  22.597 -0.1100  0.1335 -0.0951
 5299W        W 7499   0.826   1.827  29.476  0.1416  0.2639 -0.0916
 5300W        W 7500   2.233   4.432  24.629  0.2473  0.0484 -0.1636
 5301W        W 7501  20.183   0.341   6.170 -0.0836 -0.2988  0.0614
 5302W        W 7502  22.628   4.316  30.849 -0.1885 -0.0787 -0.1825
 5303W        W 7503  10.315   5.332   5.216  0.1095  0.1052  0.0369
 5304W        W 7504  18.669   0.614   4.943  0.0970 -0.0431  0.0333
 5305W        W 7505   6.978   6.378  13.842 -0.3966 -0.0295 -0.1676
 5306W        W 7506   5.135   2.294  33.196 -0.1825 -0.0343 -0.1013
 5307W        W 7507   8.541   5.702  12.963  0.0117  0.0013  0.0587
 5308W        W 7508  11.941   1.304  27.624 -0.0161  0.2365  0.1221
 5309W        W 7509  23.937   0.830  33.283 -0.2828  0.0493  0.0710
 5310W        W 7510   1.835   5.975   0.809  0.2199 -0.1120 -0.0470
 5311W        W 7511   9.534   1.301  30.540 -0.1581 -0.1389  0.0533
 5312W        W 7512  23.133   5.126  23.006 -0.2229 -0.3655  0.0448
 5313W        W 7513  26.001   1.247  14.987 -0.2537  0.4043  0.1113
 5314W        W 7514  21.770   2.627   6.432 -0.2413 -0.2368 -0.1034
 5315W        W 7515   0.383   3.741  24.386  0.0903 -0.1555  0.1603
 5316W        W 7516  11.827   1.137  27.185 -0.2554 -0.3830 -0.2456
 5317W        W 7517   5.965   6.427  25.743 -0.1545  0.0747  0.0455
 5318W        W 7518  10.947   3.341  24.109 -0.2517  0.0827  0.2203
 5319W        W 7519  12.299   2.341  26.557  0.0718  0.0285  0.0723
 5320W        W 7520  23.339   5.947  12.007 -0.1308 -0.0314  0.3339
 5321W        W 7521  25.638   1.245  27.156  0.2052  0.0409 -0.1657
 5322W        W 7522   1.832   2.736  35.994  0.1053 -0.3508 -0.1460
 5323W        W 7523   9.200   4.583   8.007  0.0490  0.1482  0.1624
 5324W        W 7524  15.047   6.164   3.320 -0.0513  0.1619  0.1031
 5325W        W 7525   6.770   5.674  32.402 -0.0339 -0.0950 -0.0383
 5326W        W 7526  20.656   0.797   6.495 -0.2646  0.0597  0.0364
 5327W        W 7527  14.392   3.892  32.501  0.0038 -0.2661  0.1633
 5328W        W 7528  16.371   3.477   7.636 -0.2195 -0.0614 -0.1277
 5329W        W 7529  25.923   4.635  30.342  0.0931  0.1329  0.0277
 5330W        W 7530  21.699   5.030  33.496  0.0502  0.1827 -0.3223
 5331W        W 7531  14.778   4.240  35.863 -0.1343 -0.3619 -0.1387
 5332W        W 7532   0.844   0.268  23.728 -0.1940 -0.1818  0.0702
 5333W        W 7533  10.498   5.487  31.246  0.2283 -0.0303  0.0485
 5334W        W 7534  15.210   6.564  12.295  0.0040  0.1651 -0.0873
 5335W        W 7535   0.729   4.221  32.208  0.3811 -0.1781 -0.0538
 5336W        W 7536  23.596   0.519  20.782 -0.0530  0.0703  0.0888
 5337W        W 7537   0.627   1.565   2.764 -0.0799 -0.1013 -0.0885
 5338W        W 7538   3.944   1.755  20.854 -0.0238  0.0521  0.0265
 5339W        W 7539   3.028   2.858  35.675  0.2275 -0.1305 -0.1502
 5340W        W 7540  10.133   4.894  22.015 -0.1216 -0.0507 -0.0071
 5341W        W 7541  26.191   6.030  20.739  0.0667  0.1142 -0.0086
 5342W        W 7542   5.803   3.319  24.021 -0.0463  0.0579 -0.2032
 5343W        W 7543  22.567   4.890   0.601  0.1525  0.0556  0.0054
 5344W        W 7544  23.480   2.364  15.007 -0.1001 -0.2099 -0.2897
 5345W        W 7545   3.730   6.563  12.610  0.2872 -0.1563  0.0200
 5346W        W 7546  11.797   0.679  34.212 -0.2212 -0.3580  0.1072
 5347W        W 7547  10.131   1.279  13.038  0.0773 -0.1912  0.1245
 5348W        W 7548   9.887   5.545  25.864  0.1489 -0.1106 -0.2309
 5349W        W 7549  15.668   5.517  15.487 -0.1996  0.1657  0.1533
 5350W        W 7550   6.469   0.487   5.750  0.0521  0.3001  0.1015
 5351W        W 7551   5.698   3.165  30.666 -0.2884  0.1276  0.1618
 5352W        W 7552  24.015   4.290  33.639 -0.0210  0.1590  0.2096
 5353W        W 7553  22.971   2.941   4.326  0.0229 -0.0384 -0.1219
 5354W        W 7554  20.987   4.942   8.886 -0.0481 -0.2504 -0.1094
 5355W        W 7555   2.900   3.458  15.229 -0.0886 -0.2600  0.0607
 5356W        W 7556   1.538   6.109   8.702 -0.0826  0.0350  0.1103
 5357W        W 7557   7.591   2.690  10.299 -0.2352 -0.1425 -0.1608
 5358W        W 7558  19.051   0.613  11.686 -0.1466  0.1450 -0.1184
 5359W        W 7559  21.393   3.771   4.767  0.0985 -0.2127  0.0506
 5360W        W 7560  10.495   2.127  33.382  0.2533  0.1648 -0.2100
 5361W        W 7561  24.709   4.770  10.914 -0.2921 -0.0194  0.0364
 5362W        W 7562  25.613   5.111   8.497  0.0732  0.0620  0.4896
 5363W        W 7563   8.866   4.496  22.373  0.3512  0.0173 -0.0539
 5364W        W 7564  15.674   0.870   7.449 -0.3179 -0.0900  0.0028
 5365W        W 7565  25.279   4.395  34.163  0.0927  0.1645 -0.1671
 5366W        W 7566  13.671   4.266  33.932  0.0948  0.0254 -0.0851
 5367W        W 7567  20.734   2.571  25.307 -0.1236 -0.3358 -0.3394
 5368W        W 7568  17.829   2.858  13.651 -0.0929  0.0113  0.0595
 5369W        W 7569  10.794   2.262  29.191  0.0466  0.1677 -0.1522
 5370W        W 7570  12.710   4.325  22.359 -0.0628  0.2518  0.0904
 5371W        W 7571   5.488   0.933   6.190  0.0342  0.1121  0.1232
 5372W        W 7572  19.104   0.239  27.725  0.1731 -0.1971  0.2217
 5373W        W 7573  12.254   1.714  23.096 -0.1169  0.1873 -0.1325
 5374W        W 7574   4.145   1.564  14.810  0.0317  0.2042 -0.0891
 5375W        W 7575  20.386   2.675  25.756  0.0283 -0.1472  0.0754
 5376W        W 7576   6.016   5.649  21.228 -0.1773  0.2312  0.3218
 5377W        W 7577   0.976   1.118   7.685  0.0896 -0.0979 -0.2836
 5378W        W 7578  12.678   1.415   5.340 -0.2997 -0.1294 -0.0842
 5379W        W 7579  24.693   0.094  26.796 -0.1046 -0.0007  0.1088
 5380W        W 7580  16.074   2.847  34.858  0.2949 -0.0396  0.2015
 5381W        W 7581  15.437   0.277  31.843  0.0819  0.2211 -0.2263
 5382W        W 7582  16.133   2.500  33.308 -0.0795 -0.0003 -0.0243
 5383W        W 7583  17.142   3.065  31.322  0.5224  0.2354  0.0938
 5384W        W 7584   5.992   5.505  26.090 -0.5073  0.2133  0.3598
 5385W        W 7585  10.114   3.387  10.078  0.0239  0.1654 -0.0003
 5386W        W 7586  17.857   0.968  31.231  0.0128  0.4605  0.0447
 5387W        W 7587   5.932   3.170  15.031  0.2737  0.3356 -0.0340
 5388W        W 7588   3.680   2.186  23.252  0.0778 -0.2661 -0.2013
 5389W        W 7589  11.588   4.259   6.957 -0.0701 -0.0534  0.0963
 5390W        W 7590  13.988   2.026  28.239 -0.0005 -0.3619  0.3066
 5391W        W 7591  10.780   4.085   8.297 -0.0749 -0.3690  0.2529
 5392W        W 7592   2.377   0.191  21.845 -0.3333 -0.1058 -0.2256
 5393W        W 7593  20.903   6.126  32.578  0.1356  0.2499 -0.0064
 5394W        W 7594   1.296   5.673  30.352  0.2352  0.0980 -0.1362
 5395W        W 7595  22.003   5.455   5.352 -0.0380  0.0788  0.3304
 5396W        W 7596   4.229   0.032   8.208  0.2592 -0.3359  0.1189
 5397W        W 7597   2.199   1.829  14.198 -0.1920 -0.0995 -0.0603
 5398W        W 7598   1.361   5.380  31.539 -0.0123 -0.1544 -0.0387
 5399W        W 7599  12.556   2.710   9.103  0.0416 -0.1777  0.1912
 5400W        W 7600  13.839   0.107  24.654  0.1080 -0.1893  0.1540
 5401W        W 7601  13.072   2.601   3.372 -0.1800 -0.0394  0.0705
 5402W        W 7602  10.409   4.320   8.492 -0.1876 -0.0681 -0.0966
 5403W        W 7603   3.986   2.368  22.720 -0.0598  0.4921 -0.1582
 5404W        W 7604  21.007   2.792   9.879  0.0988  0.3859 -0.4285
 5405W        W 7605   4.657   0.529  32.868  0.0659 -0.2304 -0.3359
 5406W        W 7606   2.973   2.765   2.920 -0.0252 -0.0134  0.2011
 5407W        W 7607  25.287   5.731  28.485  0.0475 -0.2232 -0.0552
 5408W        W 7608   1.966   4.061  28.595  0.0365 -0.0282  0.0232
 5409W        W 7609   9.318   5.853  29.715 -0.1659 -0.0146 -0.0643
 5410W        W 7610  23.216   3.502   0.316  0.2353  0.2204 -0.2033
 5411W        W 7611  12.431   5.484   1.213  0.3247 -0.0196 -0.3717
 5412W        W 7612  24.987   6.016  21.658  0.0658 -0.1305  0.0300
 5413W        W 7613  22.774   4.339  12.614  0.2149  0.1718  0.1559
 5414W        W 7614   6.059   3.538   6.899  0.2041 -0.0499  0.0113
 5415W        W 7615  19.736   2.531  11.940  0.0785 -0.1767 -0.1649
 5416W        W 7616   4.623   6.393   0.861  0.2796  0.2459  0.1317
 5417W        W 7617  16.523   3.848  21.113  0.1246  0.0693 -0.0780
 5418W        W 7618   9.169   3.931  12.322  0.2917 -0.0085  0.1592
 5419W        W 7619  16.979   1.422  26.172  0.1224  0.2757  0.1680
 5420W        W 7620  23.712   1.014  20.961 -0.1279 -0.1498  0.0592
 5421W        W 7621  15.056   4.704  14.358 -0.1441 -0.0082  0.0558
 5422W        W 7622  17.455   4.841  13.027  0.2424 -0.2078  0.1199
 5423W        W 7623  24.854   3.398  30.171 -0.0639  0.3826  0.0460
 5424W        W 7624   7.206   3.824  22.027 -0.3252  0.1500  0.0613
 5425W        W 7625  14.244   0.089  11.205  0.2733 -0.0034 -0.3263
 5426W        W 7626  18.501   5.833   2.083  0.0011 -0.0772  0.0490
 5427W        W 7627   1.288   6.339   5.010 -0.1487 -0.1606 -0.2073
 5428W        W 7628  19.503   0.379  28.974 -0.2425  0.0180  0.0992
 5429W        W 7629  11.243   3.416  27.196 -0.0678  0.1479 -0.0235
 5430W        W 7630  15.285   1.067  10.637  0.2135 -0.0091  0.0126
 5431W        W 7631   2.660   5.961  35.275  0.1710  0.0361 -0.2720
 5432W        W 7632   6.656   4.536  30.893  0.2497  0.0455 -0.0485
 5433W        W 7633  25.217   5.041   3.269 -0.2234 -0.0518 -0.1632
 5434W        W 7634   5.993   0.793   4.590 -0.1855 -0.2637 -0.1617
 5435W        W 7635  15.478   3.302  35.842  0.1624 -0.0578  0.0039
 5436W        W 7636  16.790   4.745  28.083  0.0411  0.1099  0.1529
 5437W        W 7637   6.280   4.761  26.695 -0.2839 -0.0790  0.1525
 5438W        W 7638  10.214   5.465  34.419  0.1591  0.1866  0.1186
 5439W        W 7639   6.393   4.208  24.054 -0.1525  0.0746 -0.4387
 5440W        W 7640  14.467   0.785   7.215  0.2907  0.0583 -0.2276
 5441W        W 7641   1.326   1.827  33.166  0.2097 -0.0036  0.0956
 5442W        W 7642   2.340   5.783   9.017  0.1103  0.1040 -0.2657
 5443W        W 7643  20.495   2.985  22.006  0.0598  0.6171  0.0162
 5444W        W 7644  20.545   4.746   6.952 -0.1905 -0.2414 -0.0269
 5445W        W 7645  25.132   4.945  13.452  0.1125  0.1852  0.0292
 5446W        W 7646  11.124   4.438  29.125 -0.2347  0.0486 -0.0981
 5447W        W 7647   4.145   2.122  14.226  0.1342 -0.0003 -0.1642
 5448W        W 7648  12.549   5.532  23.839  0.0114 -0.2501 -0.0457
 5449W        W 7649  25.211   5.255  11.175 -0.2564  0.0114  0.1722
 5450W        W 7650   4.675   3.741   8.848  0.1516  0.0729  0.2164
 5451W        W 7651  22.295   1.533   3.116 -0.4853 -0.0314 -0.0559
 5452W        W 7652  16.414   5.778   4.379 -0.0966 -0.0634 -0.0710
 5453W        W 7653  11.509   0.695  31.046  0.3484  0.0698  0.0217
 5454W        W 7654   7.500   4.784  13.799 -0.1159 -0.1586 -0.1436
 5455W        W 7655   2.449   5.813   7.954  0.0953  0.2678 -0.0298
 5456W        W 7656   4.678   4.359   4.100  0.1525 -0.0834  0.3229
 5457W        W 7657  23.041   1.300  34.822 -0.1139 -0.4024  0.1184
 5458W        W 7658  20.812   0.292  29.863  0.1286 -0.0756 -0.2341
 5459W        W 7659  12.388   5.737  27.638  0.2350 -0.2783  0.0222
 5460W        W 7660  22.374   1.068   2.910 -0.0495 -0.0597 -0.1494
 5461W        W 7661  14.166   1.286  29.252 -0.1645 -0.1659 -0.2667
 5462W        W 7662   3.703   0.223  34.183  0.0351  0.1326  0.2252
 5463W        W 7663  10.288   5.363  35.261  0.1923  0.1212  0.3829
 5464W        W 7664  14.949   5.169  34.738  0.2191 -0.0279  0.1153
 5465W        W 7665  25.218   0.999  13.845  0.1355  0.0312  0.1423
 5466W        W 7666  17.053   1.427   8.676  0.2038 -0.0074 -0.0764
 5467W        W 7667   0.811   1.701   5.642  0.0050 -0.1722  0.0580
 5468W        W 7668   7.099   5.954  25.443  0.0350 -0.1309  0.2468
 5469W        W 7669  22.123   0.426  12.850  0.2496  0.1019 -0.1591
 5470W        W 7670  17.088   3.817   5.736 -0.0665 -0.5376  0.2096
 5471W        W 7671  20.727   4.313  27.574  0.3039  0.0767 -0.0038
 5472W        W 7672  20.953   3.473  12.840  0.0504 -0.2957  0.1216
 5473W        W 7673  24.596   3.630  12.994  0.0504  0.0636 -0.0587
 5474W        W 7674  11.544   2.169   4.139 -0.1118  0.1843  0.1420
 5475W        W 7675  22.440   0.681  35.363 -0.0044 -0.2090  0.0776
 5476W        W 7676   7.191   0.489  32.165 -0.1355 -0.1354  0.2750
 5477W        W 7677   8.575   3.966  25.306  0.1010  0.0991  0.0733
 5478W        W 7678  14.228   2.410  11.216  0.2840  0.1543  0.0127
 5479W        W 7679  14.347   0.153   9.242 -0.2020 -0.0527  0.1315
 5480W        W 7680  12.639   0.390   0.242 -0.1117 -0.0817  0.1358
 5481W        W 7681   8.494   1.788  25.202  0.2119 -0.2328  0.0185
 5482W        W 7682  12.691   3.190  31.657  0.1430 -0.1592 -0.1563
 5483W        W 7683  25.116   1.447  28.343  0.1412 -0.2169  0.1231
 5484W        W 7684   9.170   4.833  29.532  0.1004 -0.1458  0.1949
 5485W        W 7685   0.206   4.278  33.611 -0.0844 -0.0580  0.0500
 5486W        W 7686  15.084   3.935  29.385 -0.0923 -0.0830 -0.1373
 5487W        W 7687   3.220   5.474  23.751  0.0542  0.0461  0.0171
 5488W        W 7688   1.027   0.338   3.090 -0.1594 -0.0721 -0.0883
 5489W        W 7689  20.694   1.460  32.078 -0.1609  0.0449 -0.3563
 5490W        W 7690  20.429   2.117   6.170 -0.1087  0.3200 -0.2195
 5491W        W 7691  17.297   3.725   2.469 -0.2046  0.2188 -0.2638
 5492W        W 7692  18.613   2.853  34.959  0.1453 -0.1857 -0.0103
 5493W        W 7693   9.950   4.558  23.857 -0.1868 -0.0757  0.1157
 5494W        W 7694   8.857   3.923  13.646 -0.2023 -0.3634 -0.1435
 5495W        W 7695   4.517   0.523  23.431 -0.1104  0.2674  0.0493
 5496W        W 7696  22.861   3.615   2.535  0.0916  0.1990 -0.1173
 5497W        W 7697  12.916   3.555  25.250 -0.0808 -0.0779 -0.4582
 5498W        W 7698  11.871   1.420  28.637 -0.2575 -0.2738  0.1268
 5499W        W 7699   3.792   4.928   5.136 -0.1699  0.0475  0.1277
 5500W        W 7700  25.981   1.625  25.430  0.1008 -0.0330  0.4816
 5501W        W 7701  26.026   3.662   4.974 -0.0263 -0.0771 -0.2870
 5502W        W 7702  10.198   6.158  13.466  0.1871 -0.1403 -0.0472
 5503W        W 7703  23.871   2.232  13.042 -0.0255  0.0120  0.1216
 5504W        W 7704   9.323   6.083   2.992 -0.0847 -0.0844 -0.2823
 5505W        W 7705   6.529   1.330  10.622  0.1526 -0.0760 -0.1108
 5506W        W 7706  14.509   3.470  31.299  0.1811 -0.2541  0.0758
 5507W        W 7707   4.536   2.304  34.925  0.0740 -0.3382  0.2740
 5508W        W 7708   2.827   5.732  33.976 -0.1390  0.0438  0.0200
 5509W        W 7709  17.441   1.603  33.210  0.0529  0.1098  0.2632
 5510W        W 7710   0.196   1.797  22.572  0.0689 -0.0121  0.1513
 5511W        W 7711  10.794   4.261   1.028  0.0778 -0.0420  0.2016
 5512W        W 7712   3.121   0.300  34.796 -0.5213  0.0612  0.0890
 5513W        W 7713   1.083   1.688  13.227  0.0888  0.0649 -0.0534
 5514W        W 7714  22.467   3.500  28.215  0.1075 -0.0980 -0.1248
 5515W        W 7715  25.014   3.038   8.230 -0.1240  0.1926 -0.2777
 5516W        W 7716   7.958   1.034  32.010 -0.0578 -0.0464 -0.1846
 5517W        W 7717   8.353   0.206   9.665  0.1256  0.1065 -0.1166
 5518W        W 7718  24.781   3.706  24.014 -0.1542 -0.1116 -0.1513
 5519W        W 7719  22.283   1.892  11.125 -0.1686  0.1828 -0.2753
 5520W        W 7720  10.524   6.014   1.650 -0.2776 -0.0108 -0.0461
 5521W        W 7721   0.282   4.945  34.401 -0.3350 -0.0974  0.2621
 5522W        W 7722  26.150   1.014  32.213  0.1805  0.1644  0.0745
 5523W        W 7723  10.400   5.093  31.593  0.1958  0.0870  0.0341
 5524W        W 7724   3.408   1.239  35.996 -0.1821 -0.1805  0.0636
 5525W        W 7725   9.687   0.572  30.178  0.2491  0.0511  0.0080
 5526W        W 7726  16.563   5.860  12.836  0.1087  0.0093  0.0111
 5527W        W 7727   6.281   6.570  27.204  0.0205 -0.1468  0.1058
 5528W        W 7728  15.631   6.422   5.416 -0.3067  0.1861  0.1703
 5529W        W 7729  15.260   2.626  23.524  0.3741 -0.2301 -0.4715
 5530W        W 7730  13.308   4.418  13.520 -0.1518  0.2091  0.1122
 5531W        W 7731  15.231   1.388   6.903 -0.1154 -0.1530 -0.0714
 5532W        W 7732  10.225   5.321  20.761  0.0292  0.2423 -0.0533
 5533W        W 7733  23.104   5.009  29.305 -0.3254  0.2861 -0.0697
 5534W        W 7734  17.841   5.885   5.917 -0.3398 -0.2766 -0.0961
 5535W        W 7735  21.585   1.805  25.493  0.0022  0.3237 -0.1526
 5536W        W 7736   4.698   2.356   2.416 -0.0031  0.2764 -0.0619
 5537W        W 7737  19.648   5.640   5.400  0.0348  0.1802  0.1590
 5538W        W 7738  20.042   0.102   7.890 -0.0105  0.1731 -0.1515
 5539W        W 7739  17.252   3.746  35.896  0.1720 -0.1686 -0.1863
 5540W        W 7740  26.115   4.937  22.077 -0.3118 -0.2501 -0.1631
 5541W        W 7741  17.385   4.514  32.771 -0.3044 -0.3717  0.0167
 5542W        W 7742  13.136   3.763  34.738 -0.4812 -0.3864 -0.0195
 5543W        W 7743   5.734   6.564  30.943  0.1263  0.1939  0.3068
 5544W        W 7744  16.105   1.248  34.519 -0.1715 -0.2639 -0.0785
 5545W        W 7745  25.841   0.508  35.538 -0.0906 -0.1013 -0.1133
 5546W        W 7746  10.323   4.882  29.974  0.0531  0.1398  0.0046
 5547W        W 7747  24.677   1.058  35.567  0.1065  0.0067 -0.1280
 5548W        W 7748   1.650   1.380  25.022 -0.1062  0.1842 -0.1369
 5549W        W 7749   4.735   2.229  28.190 -0.1349  0.1589 -0.0956
 5550W        W 7750   2.841   5.003  28.332 -0.2082  0.0892 -0.1474
 5551W        W 7751   4.569   4.853  15.039 -0.4001 -0.0139  0.0490
 5552W        W 7752  24.142   4.074   6.888 -0.0590 -0.2825 -0.0785
 5553W        W 7753  22.193   6.524  23.028  0.1223  0.0163 -0.0074
 5554W        W 7754  18.452   3.091  26.728 -0.0455 -0.0127  0.1144
 5555W        W 7755   3.678   0.431  32.788 -0.2516  0.0781  0.5692
 5556W        W 7756  14.252   0.024  16.159 -0.0028  0.2550  0.2827
 5557W        W 7757   6.179   4.267   7.598 -0.4103 -0.1133 -0.2030
 5558W        W 7758  22.422   6.201   0.640  0.1182  0.2608 -0.0320
 5559W        W 7759  13.214   4.957  14.823 -0.0002  0.0944  0.2080
 5560W        W 7760   0.102   3.769   5.522 -0.2728  0.0596 -0.1588
 5561W        W 7761   1.010   2.702  24.757 -0.0697 -0.2091  0.1931
 5562W        W 7762   0.402   2.581  26.677 -0.2557  0.1561 -0.0632
 5563W        W 7763  23.851   4.175   3.632 -0.0269  0.1123 -0.2815
 5564W        W 7764   7.597   5.750   2.666 -0.1367 -0.0244 -0.1403
 5565W        W 7765  10.075   3.983  30.643  0.1149 -0.1219  0.1673
 5566W        W 7766  15.149   3.616  27.526 -0.1143  0.0616  0.0276
 5567W        W 7767  24.537   4.982  24.717 -0.0358  0.1163  0.1674
 5568W        W 7768  25.521   5.396  30.790  0.0871  0.0495 -0.1814
 5569W        W 7769   6.869   4.071  32.868  0.1193 -0.1525  0.3696
 5570W        W 7770   9.640   5.908  35.047 -0.0305  0.1214  0.0034
 5571W        W 7771   8.119   4.727  31.561 -0.4011  0.0756 -0.0584
 5572W        W 7772  15.203   1.405   9.030 -0.0252  0.2903  0.0455
 5573W        W 7773  20.781   1.443   3.149 -0.0190  0.1645  0.1770
 5574W        W 7774  15.171   3.377   5.101 -0.0735 -0.0595 -0.0673
 5575W        W 7775  18.690   5.983   4.786 -0.0313  0.1220 -0.2214
 5576W        W 7776   0.306   0.425  11.215  0.1592  0.0246  0.2585
 5577W        W 7777   6.026   2.849  23.211  0.1195 -0.1023 -0.0632
 5578W        W 7778  12.666   1.644  23.309 -0.1139  0.0300 -0.0820
 5579W        W 7779  25.034   5.207   0.856  0.2399  0.0337 -0.1592
 5580W        W 7780  20.614   2.365  26.680 -0.1849 -0.2563 -0.0871
 5581W        W 7781  20.265   6.270   7.601  0.0764  0.2495  0.1169
 5582W        W 7782  18.589   0.621   3.814  0.5306 -0.1750  0.1599
 5583W        W 7783  15.912   5.547   4.379  0.0013 -0.2315  0.1513
 5584W        W 7784  15.876   0.921  15.387 -0.1980  0.0727 -0.1688
 5585W        W 7785   0.866   5.396  31.300  0.0283 -0.0255  0.0392
 5586W        W 7786   3.461   3.198  23.961 -0.3025 -0.2530  0.0617
 5587W        W 7787   2.095   2.068   9.068  0.1608  0.1823  0.1076
 5588W        W 7788  18.343   3.852  21.626 -0.2101 -0.0014  0.1875
 5589W        W 7789   9.604   0.253  31.912 -0.0357 -0.0711  0.0127
 5590W        W 7790   5.515   3.508  25.979  0.0501  0.0275 -0.1761
 5591W        W 7791   6.274   3.650  22.487  0.0751 -0.0067 -0.1874
 5592W        W 7792  17.176   5.447   8.268  0.1467  0.1727  0.2228
 5593W        W 7793  17.866   1.345  13.855  0.4213 -0.2967 -0.2960
 5594W        W 7794   1.461   5.802  35.405 -0.2125  0.0507 -0.0028
 5595W        W 7795  19.753   2.801   3.532 -0.0284 -0.2181  0.1365
 5596W        W 7796  17.917   6.572   0.331 -0.0109  0.0729  0.1615
 5597W        W 7797  22.160   2.300  31.253  0.1410  0.0331  0.2651
 5598W        W 7798  11.093   1.090  15.365  0.5241  0.1815  0.0389
 5599W        W 7799   6.311   2.363  12.706  0.2510 -0.3236  0.1151
 5600W        W 7800  10.911   6.085   6.629 -0.0738  0.4064  0.0152
 5601W        W 7801  15.968   5.238   0.481 -0.1594  0.0412 -0.2279
 5602W        W 7802  25.363   1.396  32.148 -0.3177 -0.0358  0.0555
 5603W        W 7803   6.018   4.667  34.524 -0.1203 -0.1754 -0.1576
 5604W        W 7804  18.036   5.375   3.113  0.1405  0.2116  0.2355
 5605W        W 7805   0.779   1.197   5.915 -0.0876  0.2731 -0.0801
 5606W        W 7806   5.902   1.843  27.847 -0.0069 -0.2177 -0.0554
 5607W        W 7807   6.231   1.945   1.518 -0.2109 -0.1997 -0.0767
 5608W        W 7808  14.305   2.028  35.785  0.2149  0.0613 -0.0152
 5609W        W 7809   3.687   0.318  26.956  0.0256  0.0978 -0.2900
 5610W        W 7810  13.939   0.122   6.735  0.1423 -0.0578  0.1017
 5611W        W 7811   5.778   2.953  15.501  0.0608 -0.0871  0.1252
 5612W        W 7812  22.873   6.021  25.299 -0.3980  0.1674  0.2073
 5613W        W 7813   9.860   3.689   2.494  0.2086  0.1246 -0.1650
 5614W        W 7814  25.522   1.860   2.512  0.1602 -0.1528  0.2392
 5615W        W 7815  20.098   0.714  21.493 -0.0143  0.1374 -0.4676
 5616W        W 7816  17.186   2.126  35.701 -0.2430  0.0312 -0.0786
 5617W        W 7817  21.172   3.591  25.693 -0.0322  0.1390  0.0229
 5618W        W 7818   8.985   0.191  24.046 -0.0225 -0.0748  0.0325
 5619W        W 7819   0.013   6.406  11.762 -0.0010 -0.1164  0.0623
 5620W        W 7820  25.147   2.718  11.359  0.1492  0.1028  0.0665
 5621W        W 7821  20.580   3.276   4.771  0.0952 -0.0695  0.0988
 5622W        W 7822  23.439   2.740  14.699 -0.0952 -0.1768 -0.1335
 5623W        W 7823  14.847   1.081  11.143 -0.2697 -0.3214  0.0406
 5624W        W 7824  23.303   6.435  28.259 -0.2418  0.2802 -0.2253
 5625W        W 7825  20.176   1.131  26.868 -0.2330 -0.2436  0.2119
 5626W        W 7826  22.765   4.720  24.178 -0.0621 -0.0710  0.0159
 5627W        W 7827  25.233   3.290   2.265  0.4270 -0.0934 -0.2548
 5628W        W 7828  17.008   5.930  23.034  0.1882  0.0494 -0.2085
 5629W        W 7829  16.969   6.434  25.731  0.4886 -0.1356  0.0652
 5630W        W 7830   3.203   0.936   9.843 -0.1045  0.1217 -0.2695
 5631W        W 7831   1.212   1.938   6.338  0.0813  0.4822 -0.1518
 5632W        W 7832  11.750   6.081   1.146  0.2479 -0.0442  0.0842
 5633W        W 7833  16.950   6.339   9.344  0.1823 -0.0767  0.0371
 5634W        W 7834  11.402   6.052  33.307 -0.0319 -0.0525  0.1718
 5635W        W 7835  21.180   6.318   7.058  0.0326  0.1043 -0.0289
 5636W        W 7836  16.155   2.536  15.711  0.1384 -0.0460  0.0119
 5637W        W 7837  20.733   4.467  10.026 -0.0606 -0.2059  0.2550
 5638W        W 7838  15.627   2.094  12.272 -0.0165 -0.0038 -0.0736
 5639W        W 7839  23.561   0.948  10.122 -0.2430  0.0008  0.0631
 5640W        W 7840  12.533   1.168   4.945 -0.3056 -0.0088 -0.1419
 5641W        W 7841  14.414   2.883  26.030  0.0095 -0.1649 -0.0709
 5642W        W 7842  22.460   2.263  21.605  0.1704 -0.0081  0.1296
 5643W        W 7843  22.578   2.423   2.392 -0.3801  0.3397  0.1277
 5644W        W 7844   8.174   2.081  30.736  0.0213  0.2882 -0.1078
 5645W        W 7845  14.274   4.620  34.987  0.1960 -0.2027  0.1944
 5646W        W 7846  13.895   3.133  25.099  0.2803  0.0214  0.1497
 5647W        W 7847  20.402   0.831   9.296  0.1246 -0.0073  0.0679
 5648W        W 7848   4.525   4.005  35.437 -0.0734 -0.0786  0.1736
 5649W        W 7849  19.176   2.181  14.011 -0.1159  0.2323  0.0513
 5650W        W 7850   3.027   2.363   0.265  0.0724  0.1568 -0.2068
 5651W        W 7851  10.258   1.382  29.064  0.0695  0.0123 -0.0925
 5652W        W 7852  21.901   3.228  20.844 -0.1648  0.0124 -0.3745
 5653W        W 7853  20.953   1.388  35.448  0.1097  0.0874 -0.1906
 5654W        W 7854  18.944   5.552  21.305 -0.4318 -0.1385  0.3079
 5655W        W 7855  21.212   3.691   8.328 -0.0289  0.0878  0.1247
 5656W        W 7856  20.867   5.346  28.720 -0.3419  0.0997  0.3167
 5657W        W 7857  10.028   5.114  34.906  0.0399  0.0940  0.2200
 5658W        W 7858  24.846   2.235   0.498  0.0734 -0.1639  0.0475
 5659W        W 7859   1.811   4.669  22.674 -0.2754 -0.0823  0.1911
 5660W        W 7860  25.118   1.884   7.259  0.2795 -0.1030 -0.1897
 5661W        W 7861   8.017   3.226  26.968  0.0234  0.2420 -0.1576
 5662W        W 7862   3.058   2.903  25.071  0.1462  0.0053 -0.3898
 5663W        W 7863   8.893   0.016   3.433  0.0399 -0.2086 -0.0005
 5664W        W 7864  22.636   1.902  28.742  0.1396 -0.1545 -0.2663
 5665W        W 7865  16.912   1.893  13.816 -0.0817 -0.0443  0.3991
 5666W        W 7866  25.687   2.684   0.023 -0.0353 -0.0096  0.1141
 5667W        W 7867  12.831   2.076  29.949  0.1986 -0.1781  0.0431
 5668W        W 7868   4.297   5.325  14.348 -0.2212 -0.1057  0.0390
 5669W        W 7869  11.677   3.136  22.902 -0.1484  0.1095 -0.3956
 5670W        W 7870  10.382   6.105  11.710 -0.2242  0.2178  0.0470
 5671W        W 7871  12.537   3.099   1.698  0.0626  0.3446  0.2022
 5672W        W 7872   8.041   4.809  25.351  0.2384  0.1417 -0.0973
 5673W        W 7873  12.164   4.299   2.605  0.1982  0.1484  0.1855
 5674W        W 7874   8.209   0.577  25.737  0.0763 -0.1055 -0.1620
 5675W        W 7875   9.918   4.062  28.759  0.0692 -0.0606  0.0797
 5676W        W 7876   4.725   0.760  29.148 -0.1052  0.0310  0.0993
 5677W        W 7877  15.978   0.694  23.223  0.1420  0.0076 -0.0546
 5678W        W 7878  11.690   2.657  31.941 -0.1667 -0.0580  0.1754
 5679W        W 7879  14.733   2.827  34.520  0.3212  0.0673  0.0984
 5680W        W 7880  18.034   2.456  21.165  0.3468  0.1645 -0.0541
 5681W        W 7881   9.967   4.344  10.985 -0.4175 -0.7615 -0.2708
 5682W        W 7882   5.216   6.198  33.239 -0.0164  0.0109  0.0500
 5683W        W 7883  17.368   6.464  32.823 -0.1248 -0.0054 -0.0479
 5684W        W 7884  20.633   4.578  15.323 -0.0010  0.0044  0.4762
 5685W        W 7885  15.764   5.628  21.936  0.1711 -0.0361 -0.2833
 5686W        W 7886   3.296   4.067  26.387  0.0241 -0.1784 -0.1787
 5687W        W 7887   8.846   2.241   7.471  0.0658  0.0737 -0.1603
 5688W        W 7888  19.439   5.830  21.600 -0.0544  0.1578  0.2638
 5689W        W 7889  20.734   0.098  12.257 -0.1400 -0.0199  0.0327
 5690W        W 7890   9.233   0.335  27.369 -0.0109  0.2669 -0.2678
 5691W        W 7891   0.297   3.837  13.921 -0.3488  0.2986  0.3400
 5692W        W 7892   8.330   1.570  24.318 -0.0836  0.1333 -0.1647
 5693W        W 7893  19.910   5.367  27.541  0.0919  0.0918  0.2789
 5694W        W 7894  17.867   1.288  15.233  0.1064 -0.1705  0.0239
 5695W        W 7895  15.416   4.553  34.723  0.0389  0.2184 -0.0053
 5696W        W 7896   9.252   3.368   0.977 -0.0567  0.1783 -0.1485
 5697W        W 7897  23.679   0.758  13.469  0.4948  0.1269 -0.2150
 5698W        W 7898  11.296   1.128  26.970  0.1856  0.0439  0.1442
 5699W        W 7899  22.166   3.709  31.228 -0.0758  0.0149 -0.1204
 5700W        W 7900  21.676   0.546  29.790 -0.0529  0.4133  0.0143
 5701W        W 7901   5.101   0.979   4.859  0.0003 -0.0299 -0.1506
 5702W        W 7902   2.547   4.168  29.696 -0.0076  0.0388 -0.0102
 5703W        W 7903   7.374   0.343  27.883 -0.1839  0.1007 -0.0714
 5704W        W 7904   5.975   0.271  32.278  0.2471 -0.0058  0.3163
 5705W        W 7905  12.667   5.061   2.922 -0.4471  0.2439  0.0120
 5706W        W 7906  11.206   2.763  25.049 -0.0896 -0.0023  0.2906
 5707W        W 7907  18.707   0.184  35.347 -0.0332  0.0011  0.3390
 5708W        W 7908  24.840   0.775  15.113 -0.1607  0.0830  0.2888
 5709W        W 7909   2.380   0.262  14.691  0.0413  0.1254 -0.1868
 5710W        W 7910   5.535   3.662  35.015  0.0382  0.0598  0.0362
 5711W        W 7911   0.210   6.405   2.080 -0.0103  0.0362  0.1568
 5712W        W 7912  22.223   5.481   1.831 -0.1661 -0.2169  0.0908
 5713W        W 7913  20.627   3.800  34.530  0.0160 -0.2700 -0.2300
 5714W        W 7914   5.247   6.131   8.298 -0.1751 -0.0034 -0.1750
 5715W        W 7915  18.485   5.648  28.282 -0.1153  0.1555 -0.0665
 5716W        W 7916  19.158   5.070  33.779 -0.2355 -0.0305 -0.1675
 5717W        W 7917   3.308   5.069  21.497 -0.1134  0.1025 -0.0078
 5718W        W 7918  17.130   1.472   4.022  0.0035  0.0234  0.0273
 5719W        W 7919  14.852   1.396   7.506  0.0716  0.2052 -0.2188
 5720W        W 7920  25.502   5.514  30.331  0.2525  0.1499  0.0600
 5721W        W 7921  14.846   1.477  27.574  0.0499 -0.3630 -0.0498
 5722W        W 7922  24.808   0.227  27.370  0.1105 -0.1357  0.0422
 5723W        W 7923  25.420   2.963   7.855  0.0663  0.3595 -0.0135
 5724W        W 7924  12.400   6.116  35.510 -0.1428  0.0824  0.1521
 5725W        W 7925   7.911   6.515  12.580  0.1880  0.1020 -0.1472
 5726W        W 7926  10.055   4.039   8.306  0.1380 -0.3637 -0.2842
 5727W        W 7927   7.137   2.015   2.208 -0.1724  0.3094 -0.2607
 5728W        W 7928  19.597   4.879   1.190  0.0718 -0.0005 -0.3070
 5729W        W 7929   0.440   1.585   8.313 -0.2917  0.1485  0.1469
 5730W        W 7930  16.719   6.518  23.482 -0.0342 -0.1400  0.0569
 5731W        W 7931   6.594   5.085  27.136 -0.1147 -0.0086 -0.1085
 5732W        W 7932  17.220   3.626  34.592 -0.1777  0.1820  0.2629
 5733W        W 7933   0.478   3.520  22.298  0.2371  0.0466 -0.0885
 5734W        W 7934   1.734   2.807   0.783  0.0177 -0.2791 -0.0273
 5735W        W 7935   3.985   0.518   7.147 -0.0843  0.0326  0.1503
 5736W        W 7936  18.060   2.827  30.459 -0.1334  0.0630 -0.1521
 5737W        W 7937   9.520   1.702  12.550 -0.2668 -0.2881  0.0979
 5738W        W 7938  15.119   6.294  30.094  0.1074  0.0537 -0.0360
 5739W        W 7939  18.979   0.245   9.699  0.1021  0.0191  0.0594
 5740W        W 7940  18.909   3.001  20.474  0.4362  0.0966  0.0186
 5741W        W 7941  12.243   0.331  27.001 -0.0303 -0.0060  0.1264
 5742W        W 7942   7.363   4.451   9.161 -0.2373 -0.1298 -0.2297
 5743W        W 7943  16.195   5.029  13.723  0.1031 -0.2559 -0.0456
 5744W        W 7944  15.506   1.786  27.935 -0.2403 -0.2669  0.0812
 5745W        W 7945   4.882   4.586   1.471 -0.3257 -0.1917 -0.0338
 5746W        W 7946  14.000   3.908  33.569  0.2546 -0.2298  0.2203
 5747W        W 7947  19.860   1.152   3.591  0.1576 -0.1731  0.4461
 5748W        W 7948  15.678   2.587  32.677  0.3252 -0.0359  0.2154
 5749W        W 7949  12.302   5.102   8.783  0.2861  0.0333 -0.1624
 5750W        W 7950  11.042   5.603   5.518  0.2366 -0.1295  0.1169
 5751W        W 7951  14.196   1.291  25.647  0.2044  0.0515 -0.0532
 5752W        W 7952   8.046   2.842   9.520  0.3184 -0.2037  0.1434
 5753W        W 7953  10.181   1.163  22.258  0.1768  0.0083  0.1018
 5754W        W 7954   7.815   5.011   3.414  0.0523  0.1786 -0.0511
 5755W        W 7955  14.441   0.827   2.347 -0.0620  0.0911 -0.0584
 5756W        W 7956   1.307   0.524  21.222 -0.0984  0.0376  0.0827
 5757W        W 7957   0.687   4.566   3.978  0.1189  0.1882 -0.2089
 5758W        W 7958   9.743   3.229   8.565 -0.0837  0.1184  0.1731
 5759W        W 7959  26.365   0.750   6.933  0.1108  0.0517  0.1401
 5760W        W 7960  18.428   0.126  30.922 -0.2622  0.0222  0.0246
 5761W        W 7961  19.382   1.209   7.747  0.0996 -0.3889 -0.2383
 5762W        W 7962  12.512   4.121   6.683  0.1606  0.0527 -0.1477
 5763W        W 7963   7.754   4.733   7.941 -0.0273 -0.2983  0.0073
 5764W        W 7964   6.896   1.449  21.102  0.1404  0.3086  0.1257
 5765W        W 7965   4.189   6.358   1.851 -0.1781 -0.1067  0.0338
 5766W        W 7966   8.386   4.977  21.818 -0.1123 -0.3622 -0.0221
 5767W        W 7967   2.367   1.860  33.690 -0.1182  0.1561 -0.2707
 5768W        W 7968  24.598   3.028   8.881 -0.1131 -0.0695  0.1230
 5769W        W 7969  11.582   4.273  12.007 -0.1123  0.0982 -0.1088
 5770W        W 7970   8.417   1.377   5.758  0.2324 -0.2130  0.3207
 5771W        W 7971  21.473   6.108  23.412  0.1501  0.0925  0.0552
 5772W        W 7972  13.459   0.465   3.211 -0.0331  0.1556  0.3632
 5773W        W 7973  23.527   6.334  32.663  0.0194  0.0144 -0.1763
 5774W        W 7974  12.080   2.870   4.536  0.0238 -0.0889  0.0662
 5775W        W 7975  19.668   0.814  24.351 -0.2930 -0.1617  0.0045
 5776W        W 7976   2.171   3.279   7.029  0.1170  0.0228  0.1976
 5777W        W 7977   7.609   0.776  35.783  0.2275 -0.2202 -0.4213
 5778W        W 7978   9.589   4.185  24.541  0.0938 -0.1051  0.1381
 5779W        W 7979   9.612   1.617  34.983  0.2446 -0.3013 -0.0625
 5780W        W 7980  10.681   0.622  29.242 -0.1171  0.0354  0.1755
 5781W        W 7981   2.963   1.630  11.978 -0.3812 -0.2548 -0.0421
 5782W        W 7982  24.861   4.867  26.514  0.2765 -0.0418 -0.0276
 5783W        W 7983  17.998   4.448  12.620 -0.1448 -0.1329  0.3685
 5784W        W 7984  24.012   3.483  22.550 -0.2142 -0.0020 -0.0924
 5785W        W 7985   4.127   3.959  13.734  0.2265  0.0780  0.0285
 5786W        W 7986   6.020   1.207   2.271  0.0192 -0.0018 -0.0855
 5787W        W 7987  19.567   2.764   7.036 -0.0562  0.1943 -0.0336
 5788W        W 7988   7.096   6.415  10.519  0.2059 -0.2280 -0.0594
 5789W        W 7989  13.586   3.756  32.982  0.2534 -0.2754 -0.1164
 5790W        W 7990  21.022   2.537   1.170 -0.0857  0.2426 -0.0144
 5791W        W 7991   5.825   0.275  12.256 -0.0197  0.0980  0.0794
 5792W        W 7992  18.821   2.311  12.094 -0.0193  0.2600  0.1084
 5793W        W 7993  14.771   5.260   1.599  0.0565 -0.0782 -0.1312
 5794W        W 7994  13.777   4.647  13.715  0.1693  0.0716 -0.3102
 5795W        W 7995  22.006   4.424   0.086  0.0660  0.2328  0.0416
 5796W        W 7996  19.004   6.348  26.683 -0.2182 -0.1332  0.0048
 5797W        W 7997  11.698   0.085  28.841  0.1711 -0.0398  0.0703
 5798W        W 7998  22.164   6.072  21.710  0.1138  0.2064  0.0963
 5799W        W 7999  13.851   3.690  22.791  0.0345  0.0495 -0.0967
 5800W        W 8000   5.960   5.054  13.576  0.4318  0.0560  0.0057
 5801W        W 8001   8.775   4.095  23.243  0.1980 -0.2354 -0.1235
 5802W        W 8002  12.243   6.480  31.021  0.0798  0.0283  0.4861
 5803W        W 8003   5.293   3.208  28.462 -0.1120 -0.1743 -0.2055
 5804W        W 8004  20.561   3.004  35.155  0.3265 -0.2241 -0.0403
 5805W        W 8005   8.928   0.927  15.658 -0.0122 -0.2515  0.1573
 5806W        W 8006  22.042   1.478  13.123 -0.1341 -0.1492  0.2001
 5807W        W 8007  13.267   6.476  12.058 -0.0141  0.1792  0.1493
 5808W        W 8008   8.055   4.986  13.899 -0.1863 -0.1655  0.0160
 5809W        W 8009  20.825   1.516   1.378 -0.1108  0.0139  0.2184
 5810W        W 8010   6.203   3.875   2.269  0.1300  0.2382  0.0624
 5811W        W 8011  16.516   6.372  27.696  0.2294 -0.3669 -0.2517
 5812W        W 8012  12.266   3.667  14.676  0.1542  0.2123  0.0375
 5813W        W 8013   8.975   1.799   2.154 -0.1175  0.0979  0.0990
 5814W        W 8014   9.352   2.383   7.647 -0.2381 -0.1178  0.2851
 5815W        W 8015  14.778   2.329  33.200  0.0004  0.0145 -0.1922
 5816W        W 8016  13.003   1.807  30.376 -0.2908 -0.0724 -0.1546
 5817W        W 8017   5.668   6.189  32.796 -0.0660 -0.1428 -0.0931
 5818W        W 8018  12.664   3.566  24.473 -0.3169 -0.0333  0.1593
 5819W        W 8019  20.934   4.364  25.717  0.0437  0.1009  0.0324
 5820W        W 8020   3.485   2.457  10.313  0.1390 -0.2603  0.0864
 5821W        W 8021   7.693   1.940  21.284 -0.1184 -0.0117  0.0931
 5822W        W 8022  10.709   0.261   1.334 -0.2265 -0.2370 -0.1673
 5823W        W 8023   2.362   6.534  13.017  0.0282 -0.1196  0.2634
 5824W        W 8024  16.137   2.402  32.691 -0.0803 -0.1185  0.1919
 5825W        W 8025  17.265   2.407   9.428  0.2043 -0.0653  0.2381
 5826W        W 8026  23.051   2.883   5.282 -0.2884  0.0715 -0.0988
 5827W        W 8027  17.277   2.223  12.999  0.2322  0.0654  0.0458
 5828W        W 8028   4.528   4.576   2.000 -0.2724 -0.2316  0.0945
 5829W        W 8029  17.610   5.374   0.377  0.1971 -0.0845 -0.0009
 5830W        W 8030  11.263   0.971   2.355  0.2256  0.0734  0.2232
 5831W        W 8031   4.446   5.275   7.059  0.2677 -0.0508  0.3178
 5832W        W 8032  12.230   5.579   7.991  0.3195 -0.1183  0.0233
 5833W        W 8033   9.588   2.155  25.914  0.1381 -0.0471  0.0395
 5834W        W 8034  24.808   4.228  23.909 -0.0359  0.0128 -0.2162
 5835W        W 8035   7.709   2.332   5.972 -0.0935 -0.3753  0.2693
 5836W        W 8036  19.421   2.398   5.638  0.0566 -0.0803  0.0821
 5837W        W 8037  13.530   5.777   9.482 -0.0505 -0.0509 -0.0176
 5838W        W 8038   3.499   0.284  33.686 -0.2189 -0.1164  0.0060
 5839W        W 8039  15.712   6.408   9.971 -0.0093 -0.0820 -0.0840
 5840W        W 8040   0.040   4.814   9.624 -0.3092  0.0253  0.4957
 5841W        W 8041  17.851   3.378  28.683 -0.0154  0.0920  0.0680
 5842W        W 8042   3.517   5.421   9.690  0.3704  0.0185 -0.4051
 5843W        W 8043  24.054   1.822   1.752  0.1435 -0.1462 -0.0483
 5844W        W 8044  20.197   2.489  27.859  0.0733  0.0866 -0.2500
 5845W        W 8045  12.449   3.194  23.075 -0.1146 -0.3634  0.0615
 5846W        W 8046  14.069   2.971  15.335  0.3071  0.1504 -0.1412
 5847W        W 8047  17.810   2.251  24.329 -0.3370  0.3305  0.0246
 5848W        W 8048   4.889   0.342  31.686 -0.0668  0.0471 -0.0972
 5849W        W 8049  15.948   3.156  28.851  0.1566  0.2896  0.1755
 5850W        W 8050  22.232   4.357  27.498  0.2298  0.0561 -0.2134
 5851W        W 8051  16.684   3.497  22.181 -0.0128 -0.1402 -0.2261
 5852W        W 8052  18.799   3.915  27.104 -0.1877 -0.0368 -0.1374
 5853W        W 8053  12.394   1.147   9.601 -0.1095  0.0739 -0.1914
 5854W        W 8054   4.532   1.261   2.320 -0.0993 -0.4716 -0.0527
 5855W        W 8055   7.399   0.013  24.863  0.0700 -0.3100  0.0763
 5856W        W 8056  16.731   6.121  15.372 -0.0270 -0.1364 -0.1510
 5857W        W 8057  14.863   2.137   1.044 -0.0501  0.0687 -0.0413
 5858W        W 8058  17.547   5.274  23.421  0.0824 -0.1946 -0.0563
 5859W        W 8059  22.589   4.510  15.004 -0.0175  0.2580  0.2740
 5860W        W 8060   6.592   4.837  27.966  0.3865  0.1019 -0.0452
 5861W        W 8061   9.773   6.320  35.904  0.0205 -0.0488 -0.1034
 5862W        W 8062   0.910   4.881  29.559 -0.0144  0.1119  0.1607
 5863W        W 8063   7.519   1.083   1.234  0.0963  0.0601  0.0080
 5864W        W 8064  22.742   0.193  30.043  0.1307  0.0058 -0.1446
 5865W        W 8065  17.205   4.036   4.270  0.1071  0.1715  0.0808
 5866W        W 8066   8.796   2.186  12.285  0.2290  0.1837 -0.1227
 5867W        W 8067  22.043   5.329   1.170 -0.0281  0.2591  0.0998
 5868W        W 8068   2.583   3.416   8.083 -0.0162 -0.3280 -0.0676
 5869W        W 8069   3.622   0.295  15.313  0.1722 -0.4185 -0.6328
 5870W        W 8070   3.087   1.097  31.577  0.0486  0.1371 -0.1826
 5871W        W 8071   3.811   6.601   5.882  0.1681 -0.1359 -0.3072
 5872W        W 8072  18.528   1.897  23.300  0.2203  0.0726 -0.0395
 5873W        W 8073  23.651   0.210   0.036  0.0515  0.1145  0.2648
 5874W        W 8074  10.648   4.874  29.023  0.0268  0.2058 -0.0818
 5875W        W 8075  16.005   1.094  20.458 -0.1249  0.0518 -0.1080
 5876W        W 8076  22.652   4.571  25.360 -0.0502  0.0067  0.3147
 5877W        W 8077   5.033   0.525   8.260  0.0266 -0.0560 -0.0813
 5878W        W 8078   5.246   5.678   8.096 -0.0945  0.3053  0.1238
 5879W        W 8079   6.591   5.068  35.944 -0.0320 -0.0670  0.0879
 5880W        W 8080   7.660   0.955  23.807 -0.2105 -0.2208 -0.3365
 5881W        W 8081   2.246   5.029  23.936  0.1792 -0.2884  0.0817
 5882W        W 8082  25.123   5.333  32.034  0.0495  0.0214 -0.0178
 5883W        W 8083  18.675   5.659  27.329  0.2079 -0.0391 -0.2552
 5884W        W 8084  19.876   5.135  28.365  0.1499  0.0004 -0.1946
 5885W        W 8085   5.382   6.276   5.668 -0.1360 -0.0496 -0.1429
 5886W        W 8086  11.504   3.256  24.711 -0.3796  0.1194 -0.0385
 5887W        W 8087  11.051   3.915  30.274  0.1211 -0.1577 -0.2254
 5888W        W 8088   9.956   3.971  34.193 -0.1183 -0.1050  0.0037
 5889W        W 8089   9.271   0.295   5.593  0.5317 -0.2896  0.3115
 5890W        W 8090  26.343   6.266  24.452  0.1084  0.3437 -0.1717
 5891W        W 8091  10.207   1.004  36.057  0.1320 -0.2132  0.0865
 5892W        W 8092  23.353   5.995   7.575  0.0574 -0.3502  0.1084
 5893W        W 8093   1.786   4.388   9.700 -0.1612 -0.3405 -0.0578
 5894W        W 8094  14.805   2.872  31.018 -0.2021  0.0120  0.1015
 5895W        W 8095  15.582   1.923   9.601 -0.3699  0.0458 -0.1432
 5896W        W 8096  16.695   0.518  30.575 -0.0692  0.2153 -0.0670
 5897W        W 8097   5.957   5.106   6.915  0.1872 -0.0102 -0.0715
 5898W        W 8098   5.261   1.596  10.416 -0.4514  0.2637  0.2839
 5899W        W 8099  19.966   0.196   8.842 -0.0080  0.0035  0.1110
 5900W        W 8100  18.245   2.266  27.806  0.0344 -0.0200  0.0650
 5901W        W 8101  20.157   6.364  31.937 -0.1814 -0.0546 -0.1724
 5902W        W 8102   5.247   3.970  24.216 -0.0405 -0.1197  0.0206
 5903W        W 8103   1.687   0.743  22.587 -0.2304 -0.0893 -0.2482
 5904W        W 8104  18.911   5.343  13.127 -0.0505  0.0225  0.1676
 5905W        W 8105   4.692   2.232  28.697 -0.2086 -0.0046 -0.1781
 5906W        W 8106   0.081   6.560  28.746 -0.0268 -0.3625 -0.4543
 5907W        W 8107  20.838   5.016  10.194 -0.3473  0.2241 -0.2142
 5908W        W 8108   8.244   5.410   4.861  0.1673  0.2665 -0.2382
 5909W        W 8109  26.270   2.047   5.798  0.1953 -0.2065 -0.1310
 5910W        W 8110   7.628   1.734  26.370  0.3045 -0.1349  0.0719
 5911W        W 8111   1.771   3.886  31.609 -0.1405 -0.2662 -0.3593
 5912W        W 8112  18.341   6.477   8.938  0.0456 -0.1820 -0.2934
 5913W        W 8113  16.950   3.723  14.387  0.0446  0.0153  0.2721
 5914W        W 8114  17.601   6.558  22.984 -0.1093  0.0974  0.0235
 5915W        W 8115   7.858   1.904  31.743 -0.0378 -0.1065 -0.0855
 5916W        W 8116  12.529   5.488  13.522 -0.0330  0.2372  0.3848
 5917W        W 8117  20.273   3.239   9.558 -0.0183 -0.1787  0.1549
 5918W        W 8118  21.390   2.164  30.379 -0.1399  0.3586 -0.1576
 5919W        W 8119   9.713   1.540  11.029  0.1216  0.0674  0.1880
 5920W        W 8120  18.824   2.667  14.690 -0.0979 -0.1763  0.0310
 5921W        W 8121  18.800   3.859  25.178 -0.1376 -0.2036 -0.0377
 5922W        W 8122  25.903   1.924  23.010  0.1564  0.0934 -0.0585
 5923W        W 8123   9.386   1.693   1.553 -0.0902  0.2390 -0.0897
 5924W        W 8124  12.399   1.949  27.933  0.1963 -0.0868  0.2304
 5925W        W 8125   2.701   0.585  30.850  0.2247 -0.0921  0.3013
 5926W        W 8126  14.082   2.430  32.942  0.0813 -0.1143  0.0492
 5927W        W 8127   7.493   3.498  21.692  0.0228 -0.0071 -0.1329
 5928W        W 8128  13.729   3.242  32.855  0.0176  0.1556 -0.0043
 5929W        W 8129  13.217   3.967   0.020 -0.0179 -0.4612 -0.2391
 5930W        W 8130  24.731   4.022  22.971 -0.3595  0.0688 -0.2162
 5931W        W 8131  19.165   1.455  13.422  0.0402  0.2098 -0.1107
 5932W        W 8132  14.051   3.548   6.440  0.0262 -0.1665  0.1260
 5933W        W 8133   7.474   2.906   6.392  0.0800  0.0347 -0.0748
 5934W        W 8134  23.451   0.100  14.845 -0.1235 -0.1475  0.3070
 5935W        W 8135   3.468   6.116  13.420 -0.1017 -0.2280  0.1870
 5936W        W 8136  11.443   6.248   6.917 -0.0851  0.1043 -0.0156
 5937W        W 8137  20.809   2.081   8.748  0.1491 -0.1728 -0.0284
 5938W        W 8138   1.697   1.272   5.858  0.1065  0.2482 -0.2744
 5939W        W 8139  15.190   4.921  14.773 -0.0597 -0.0576  0.0434
 5940W        W 8140  12.658   1.689   0.982  0.2687 -0.0811 -0.0620
 5941W        W 8141  13.877   4.525  33.144 -0.1708 -0.2430  0.1376
 5942W        W 8142   1.093   5.585   9.974  0.0398  0.0354 -0.0974
 5943W        W 8143   5.112   2.808   0.405  0.0673 -0.1127 -0.1304
 5944W        W 8144   4.677   4.456  32.538  0.0866 -0.1310 -0.2784
 5945W        W 8145  22.805   5.870   3.799 -0.0131 -0.0108 -0.0983
 5946W        W 8146  20.936   1.871  34.684  0.0506 -0.0293 -0.0292
 5947W        W 8147   9.679   1.581  32.964  0.0700  0.1579  0.1299
 5948W        W 8148   9.345   3.642  33.337  0.0222 -0.1355 -0.0422
 5949W        W 8149  18.524   1.417  23.496 -0.1014  0.0637  0.0478
 5950W        W 8150   2.233   1.375  23.457  0.1022 -0.1465 -0.0421
 5951W        W 8151   6.372   1.719   1.962 -0.1127  0.1247  0.0205
 5952W        W 8152   4.630   5.664   2.028 -0.2644  0.2185  0.0976
 5953W        W 8153  11.358   1.494  11.387 -0.0548  0.1148  0.2835
 5954W        W 8154  19.449   0.953  23.067 -0.2381  0.1452  0.1517
 5955W        W 8155  14.759   5.554  12.885  0.2052  0.1393  0.0570
 5956W        W 8156   5.863   5.083   0.461 -0.0459 -0.1155  0.0542
 5957W        W 8157  17.116   2.373  25.958  0.0241 -0.2471 -0.1930
 5958W        W 8158   0.183   1.024  32.051  0.2662 -0.1450  0.1195
 5959W        W 8159  12.696   6.463  29.637 -0.2299 -0.1884  0.1375
 5960W        W 8160   6.659   1.657  34.036 -0.2499  0.1615 -0.0835
 5961W        W 8161   9.879   3.348   7.525 -0.4657 -0.1064  0.0455
 5962W        W 8162   7.237   3.722  28.019  0.1264  0.0399  0.4608
 5963W        W 8163   9.616   0.132  34.038  0.1114  0.0243 -0.0709
 5964W        W 8164  23.024   3.929   0.084  0.1668 -0.1346 -0.1088
 5965W        W 8165  11.240   1.618   8.285  0.0030  0.0526 -0.3153
 5966W        W 8166   0.912   5.633  25.911  0.1586  0.0919 -0.3035
 5967W        W 8167   8.733   2.400   8.180 -0.4902 -0.1159  0.1719
 5968W        W 8168  16.848   5.447  10.324 -0.0781 -0.1656  0.0563
 5969W        W 8169  26.396   4.508  20.762 -0.1437 -0.1948  0.2001
 5970W        W 8170   3.532   0.802  34.832  0.0054 -0.2041  0.1399
 5971W        W 8171  13.981   3.849  21.322  0.0444 -0.0412 -0.2392
 5972W        W 8172  20.252   5.679  12.704  0.1601 -0.3329  0.2169
 5973W        W 8173  14.616   1.829   9.414  0.0905 -0.1037 -0.1072
 5974W        W 8174   6.249   5.850  22.958 -0.0765 -0.0083  0.2446
 5975W        W 8175  19.819   3.074  14.469  0.0922  0.1042 -0.2485
 5976W        W 8176  23.192   2.316  14.602 -0.0734 -0.0426  0.0765
 5977W        W 8177  10.480   0.739   9.645  0.0012 -0.0560 -0.0659
 5978W        W 8178  18.122   6.021  24.517 -0.3992  0.1682  0.2297
 5979W        W 8179  12.498   2.321  34.485 -0.1486 -0.2909  0.0007
 5980W        W 8180  12.265   0.729  31.445 -0.0871  0.1463 -0.0636
 5981W        W 8181   7.514   4.415   0.874 -0.3126 -0.3237  0.1132
 5982W        W 8182  10.768   1.712   5.418 -0.1092  0.0645  0.0664
 5983W        W 8183  15.843   4.518   2.139 -0.0715  0.3419  0.3079
 5984W        W 8184  22.858   6.481  28.700  0.0047  0.1338  0.2252
 5985W        W 8185   4.051   5.671  28.012  0.1229 -0.2491 -0.3453
 5986W        W 8186  21.960   1.319  23.148 -0.1766 -0.2371 -0.0523
 5987W        W 8187   2.493   1.259  13.061  0.4113  0.0296 -0.0413
 5988W        W 8188  11.066   2.100  26.783 -0.0599 -0.0785 -0.0403
 5989W        W 8189  21.939   6.152  27.647 -0.3755  0.1318 -0.0281
 5990W        W 8190  16.390   2.743  11.126  0.0419  0.2827 -0.0625
 5991W        W 8191   1.791   5.846   4.518  0.0185  0.2135 -0.1638
 5992W        W 8192  18.882   5.550  24.553 -0.4035  0.0475 -0.0069
 5993W        W 8193   6.787   0.322  32.902 -0.1991 -0.1834  0.2050
 5994W        W 8194   2.525   5.883  16.049 -0.0586  0.1092 -0.2716
 5995W        W 8195   8.802   4.263  35.008  0.1853 -0.1597  0.0488
 5996W        W 8196  22.153   4.795   8.469 -0.1907  0.1634 -0.0489
 5997W        W 8197   2.678   3.620  21.557  0.1089  0.1638 -0.1842
 5998W        W 8198  15.411   2.530  30.398 -0.4045 -0.0901 -0.0511
 5999W        W 8199  17.021   2.793   9.028 -0.2526  0.0841  0.2136
 6000W        W 8200  21.653   1.816  23.146 -0.3597 -0.0887 -0.1181
 6001W        W 8201  12.453   6.003  34.114 -0.2151  0.0569 -0.0634
 6002W        W 8202   5.888   3.977   5.731  0.1256 -0.2247  0.0445
 6003W        W 8203  17.979   4.406  31.959 -0.1375 -0.1795  0.1632
 6004W        W 8204   7.654   4.522  23.878  0.1000  0.2357 -0.1525
 6005W        W 8205  23.868   4.551   1.480 -0.0894 -0.1066  0.0440
 6006W        W 8206  15.493   1.732  13.351 -0.1506 -0.1457  0.2356
 6007W        W 8207   7.821   5.102   4.074  0.1162 -0.1103 -0.0268
 6008W        W 8208  20.764   0.904  10.176 -0.4352 -0.0398  0.2580
 6009W        W 8209   3.858   4.324   8.884  0.1343  0.0374  0.2522
 6010W        W 8210  13.325   3.587   8.659  0.0513 -0.1328 -0.2426
 6011W        W 8211   6.229   4.303   8.727  0.2097 -0.0168  0.2994
 6012W        W 8212   4.897   4.712  25.176 -0.2005 -0.0837  0.0278
 6013W        W 8213  18.177   6.426  15.012  0.2605 -0.0264 -0.0427
 6014W        W 8214  20.238   1.961  22.049  0.1149  0.1500 -0.2606
 6015W        W 8215   9.702   4.998  13.555  0.1540 -0.0309  0.1690
 6016W        W 8216  25.799   4.958   1.691  0.1570 -0.1315  0.0135
 6017W        W 8217  24.779   4.193  14.829 -0.1581  0.0188 -0.0222
 6018W        W 8218  16.514   5.803  33.753  0.0342 -0.2748  0.0934
 6019W        W 8219   2.999   5.476  11.823 -0.2620 -0.2072  0.1563
 6020W        W 8220  24.581   5.634   1.790  0.0901  0.0808  0.2121
 6021W        W 8221  13.298   0.856  10.248 -0.1973 -0.1857  0.0545
 6022W        W 8222  12.152   1.422   8.858 -0.0390 -0.0553 -0.0502
 6023W        W 8223  26.100   5.160  11.644  0.0612  0.0500 -0.0441
 6024W        W 8224  24.649   6.402  29.158  0.0661 -0.1772  0.0114
 6025W        W 8225  14.647   1.099  10.075 -0.0954 -0.0774  0.1199
 6026W        W 8226  23.728   4.981  34.254 -0.1809 -0.2232 -0.0542
 6027W        W 8227   2.440   0.407  28.404  0.0788 -0.0818  0.2363
 6028W        W 8228  16.454   4.637  13.856  0.2445 -0.1035 -0.0141
 6029W        W 8229   7.270   0.609   9.212  0.0864  0.0134  0.1579
 6030W        W 8230   9.420   6.570  30.956 -0.3680 -0.1740  0.1716
 6031W        W 8231  11.148   5.979   4.608 -0.1646  0.3139 -0.1484
 6032W        W 8232  25.147   0.784  25.532 -0.1864  0.0607  0.3357
 6033W        W 8233  14.110   3.830   4.700 -0.1272  0.0487 -0.0378
 6034W        W 8234  20.357   2.641  24.843  0.3378  0.0517 -0.0932
 6035W        W 8235  24.812   3.818   8.111  0.1681 -0.2398  0.0904
 6036W        W 8236  13.416   5.669  34.133 -0.0898  0.1571  0.4452
 6037W        W 8237   4.442   1.139   0.208  0.1939  0.2328  0.1244
 6038W        W 8238  12.297   5.741  20.338  0.5196  0.0228 -0.0381
 6039W        W 8239  25.410   0.578   7.100  0.1470  0.1052  0.4303
 6040W        W 8240  15.770   0.228  21.979 -0.1332  0.0425  0.0015
 6041W        W 8241   8.262   0.630  32.109  0.2029 -0.1344 -0.0423
 6042W        W 8242   3.666   5.586  31.813  0.0757  0.2244  0.0317
 6043W        W 8243  25.863   1.082  23.335 -0.0897 -0.2121  0.0198
 6044W        W 8244  24.497   4.109  10.051 -0.4571 -0.0148 -0.2513
 6045W        W 8245  19.412   0.395   3.400  0.0526 -0.0903  0.0572
 6046W        W 8246   5.919   0.312  25.954 -0.0511  0.0193 -0.0666
 6047W        W 8247  18.275   2.470   9.284  0.0592 -0.0527  0.0562
 6048W        W 8248   3.335   1.163   8.625 -0.4093 -0.0113 -0.0808
 6049W        W 8249   4.271   1.164  14.428  0.1602  0.1150  0.0490
 6050W        W 8250   1.807   6.455  23.665  0.3697 -0.1540 -0.0008
 6051W        W 8251   5.593   1.250  11.289 -0.0685 -0.1812  0.3760
 6052W        W 8252   3.881   3.216   9.485 -0.0863  0.2340  0.3505
 6053W        W 8253  11.393   0.250   3.044  0.1982 -0.0416 -0.0220
 6054W        W 8254  17.964   6.535   5.053  0.5000 -0.1005  0.1068
 6055W        W 8255   2.237   1.869  24.594 -0.0027  0.1813 -0.1107
 6056W        W 8256  12.044   1.642  35.202  0.0563  0.0048  0.0503
 6057W        W 8257   0.897   1.685  33.485  0.1764  0.1773 -0.1161
 6058W        W 8258  22.866   4.413  11.052  0.1620  0.0110 -0.0334
 6059W        W 8259  25.091   5.916   3.787 -0.2310 -0.1876  0.1725
 6060W        W 8260   2.591   4.924  13.363 -0.3493 -0.0429 -0.0614
 6061W        W 8261   9.020   5.876  32.398 -0.5757 -0.0697 -0.0723
 6062W        W 8262  11.324   3.842  12.036  0.2215  0.0593 -0.2449
 6063W        W 8263  18.643   3.664  14.577 -0.1792  0.0811  0.0646
 6064W        W 8264  21.015   3.519   6.711 -0.1069  0.2774  0.0973
 6065W        W 8265  17.761   1.244  22.456  0.0583 -0.1126 -0.0376
 6066W        W 8266   4.664   5.296  32.071  0.0012 -0.2526  0.1357
 6067W        W 8267  16.436   3.445   8.969  0.2928  0.2727  0.0950
 6068W        W 8268  22.780   2.890   6.096 -0.2060  0.1841 -0.0799
 6069W        W 8269  18.011   1.034   2.030  0.2327  0.2858 -0.0394
 6070W        W 8270  12.755   3.865   7.018 -0.2649 -0.0447  0.1480
 6071W        W 8271   8.981   0.433  10.267 -0.0498  0.0422  0.2522
 6072W        W 8272   5.695   5.460   0.137  0.2078  0.1689  0.1387
 6073W        W 8273   6.994   1.587  14.975  0.0270 -0.0796 -0.0415
 6074W        W 8274  24.252   4.257  14.048  0.1897 -0.0185 -0.1898
 6075W        W 8275  22.359   1.379  31.033  0.0661 -0.1615  0.2133
 6076W        W 8276   5.944   0.804  24.448  0.2766 -0.0841  0.3032
 6077W        W 8277  11.168   1.826   2.682 -0.1490 -0.3071  0.3034
 6078W        W 8278  26.059   2.351   5.224  0.1613 -0.1103 -0.0785
 6079W        W 8279  12.504   4.716  31.689 -0.1044  0.0661 -0.2243
 6080W        W 8280   7.232   5.038   2.143  0.0939  0.1070  0.0551
 6081W        W 8281  16.171   5.532  15.495  0.0184  0.0445  0.0756
 6082W        W 8282   6.420   0.831  31.482  0.0324  0.0670 -0.2948
 6083W        W 8283  25.277   0.281  15.141  0.2334 -0.0029  0.1113
 6084W        W 8284  15.000   4.691  29.564 -0.2206 -0.1293 -0.0446
 6085W        W 8285  18.179   1.335   4.549 -0.0930  0.2947 -0.1831
 6086W        W 8286   1.127   5.958  14.862  0.2014  0.3103  0.0194
 6087W        W 8287   3.159   5.483  32.028  0.1083  0.0076  0.0182
 6088W        W 8288   6.809   1.413   3.726  0.1255 -0.0701 -0.0156
 6089W        W 8289  16.154   2.184   8.168  0.0828 -0.0433 -0.1106
 6090W        W 8290  17.084   4.986  33.638  0.2380  0.1112 -0.1283
 6091W        W 8291  10.874   2.972  14.014  0.2526  0.1964 -0.1659
 6092W        W 8292   1.080   6.291   0.901 -0.1788  0.0993 -0.1599
 6093W        W 8293   0.254   1.790   4.850 -0.0597 -0.0938  0.1751
 6094W        W 8294  20.443   4.233  12.829 -0.0738  0.1988 -0.0870
 6095W        W 8295  13.568   3.771   9.272  0.0418  0.0397 -0.3907
 6096W        W 8296   5.992   0.891  33.978  0.1944 -0.1102  0.0936
 6097W        W 8297  21.472   5.966   7.901 -0.0456 -0.2397  0.0201
 6098W        W 8298   3.258   0.772  21.632 -0.0357 -0.1080  0.1150
 6099W        W 8299  16.915   1.994  27.937 -0.2259  0.0066  0.0068
 6100W        W 8300  24.628   2.709  13.254  0.2226 -0.1636  0.1614
 6101W        W 8301  25.298   0.242   2.094  0.2408  0.2514 -0.0157
 6102W        W 8302   0.600   6.190  29.709  0.2754  0.0620  0.2551
 6103W        W 8303  16.363   0.387  26.592 -0.1782  0.1448 -0.2148
 6104W        W 8304  12.057   2.246  26.092 -0.0683 -0.0719 -0.0876
 6105W        W 8305   2.031   2.822  27.266  0.2875  0.0982  0.1779
 6106W        W 8306  12.091   5.094   0.068 -0.1895  0.2125 -0.0787
 6107W        W 8307   0.851   5.034  13.741 -0.0724  0.1417  0.2354
 6108W        W 8308   0.498   0.874  22.287  0.0776  0.1456  0.2840
 6109W        W 8309   6.277   2.864   0.458  0.0425 -0.1794 -0.1616
 6110W        W 8310  11.523   1.204  22.370  0.2141 -0.1050 -0.0095
 6111W        W 8311  18.860   2.567   2.073  0.0871  0.1336  0.3728
 6112W        W 8312  11.863   2.577  22.035 -0.0539 -0.1410  0.0591
 6113W        W 8313  23.122   0.270   6.584 -0.0623  0.0008  0.0115
 6114W        W 8314  15.909   0.150   0.710  0.1438 -0.0352 -0.0231
 6115W        W 8315  13.426   2.699  23.982 -0.3114 -0.3471  0.0670
 6116W        W 8316   8.278   1.830   0.693 -0.1117  0.3932  0.0078
 6117W        W 8317  15.332   4.525   5.405 -0.0639 -0.1557 -0.1271
 6118W        W 8318  22.360   1.396  28.735  0.2424 -0.0264 -0.2249
 6119W        W 8319   3.318   4.943  21.972 -0.0380  0.0875 -0.0527
 6120W        W 8320  10.973   3.859  33.460 -0.1326  0.1445 -0.3643
 6121W        W 8321  24.049   4.847   8.453 -0.2666 -0.1239  0.1078
 6122W        W 8322   1.138   3.009  33.535 -0.0405  0.1624 -0.2071
 6123W        W 8323   7.271   6.583   5.712 -0.2447  0.0389  0.0407
 6124W        W 8324   8.614   2.179   5.586  0.0984  0.0539  0.0348
 6125W        W 8325   5.931   1.712  21.059  0.1288 -0.1220  0.0192
 6126W        W 8326  23.223   3.958  31.696  0.3777  0.1407 -0.1269
 6127W        W 8327  11.667   4.908   5.689  0.1590 -0.2170  0.0035
 6128W        W 8328   5.140   0.955  24.706  0.0767 -0.0023 -0.1187
 6129W        W 8329   1.340   4.124  34.463  0.1858 -0.1891 -0.3407
 6130W        W 8330  13.990   2.859  31.337 -0.0073  0.1865  0.5942
 6131W        W 8331   3.311   0.030  11.630  0.0381 -0.1294  0.3442
 6132W        W 8332  19.342   4.596   8.864 -0.1571 -0.1455 -0.0531
 6133W        W 8333  17.090   5.461  31.958  0.0728  0.2132 -0.1890
 6134W        W 8334  14.308   1.753  11.570  0.2080  0.2891  0.0812
 6135W        W 8335   7.528   3.121   8.811  0.2165 -0.0375 -0.0065
 6136W        W 8336  12.251   4.214   5.177 -0.1827 -0.0356 -0.0695
 6137W        W 8337   6.412   2.893  22.874 -0.0858  0.0387  0.2282
 6138W        W 8338  14.370   4.197  30.610 -0.1200 -0.0607 -0.3375
 6139W        W 8339  15.781   4.905  11.543  0.1681 -0.3889  0.1394
 6140W        W 8340  23.426   5.038  14.263  0.0767  0.1215  0.0045
 6141W        W 8341   7.274   5.889   0.717 -0.2096 -0.0509  0.0881
 6142W        W 8342   7.679   5.746   4.470  0.0028 -0.0386  0.0468
 6143W        W 8343  10.794   5.357  23.841 -0.2084  0.1201  0.1548
 6144W        W 8344  18.274   4.462  12.183  0.1564  0.0447  0.3107
 6145W        W 8345   3.560   0.744   7.841 -0.0045  0.3913 -0.1307
 6146W        W 8346  16.133   3.049   8.742  0.1870  0.0573  0.0027
 6147W        W 8347   0.370   2.558  33.516  0.1818  0.0646  0.0852
 6148W        W 8348  20.284   0.020   6.964 -0.0579  0.1382  0.1829
 6149W        W 8349   8.297   6.193   7.100 -0.2022  0.2589 -0.1335
 6150W        W 8350  17.217   0.732  31.232  0.1917  0.0692 -0.0260
 6151W        W 8351  16.070   6.017  29.931  0.2198  0.0417  0.2286
 6152W        W 8352  23.675   4.535  11.112  0.1794 -0.0068  0.2236
 6153W        W 8353  26.164   4.218   1.935  0.2598  0.1478 -0.1043
 6154W        W 8354  17.598   6.468  26.665 -0.0538 -0.0244  0.2950
 6155W        W 8355   5.441   5.093  13.486 -0.1117 -0.1772  0.0118
 6156W        W 8356   8.639   5.637  26.643 -0.1377 -0.2810  0.5173
 6157W        W 8357  22.925   1.805  34.993  0.2669  0.1996 -0.1214
 6158W        W 8358  14.461   1.037  14.845 -0.3115 -0.0673  0.1304
 6159W        W 8359  19.132   3.065  12.263  0.0471 -0.1638 -0.1780
 6160W        W 8360  13.599   4.132  33.352  0.4456  0.0862  0.0939
 6161W        W 8361  17.040   1.300  12.773 -0.2250  0.1336 -0.1323
 6162W        W 8362   3.989   0.849  21.953 -0.4236  0.3158  0.1138
 6163W        W 8363  26.104   3.389   3.313  0.1681  0.0325  0.1010
 6164W        W 8364  14.924   3.752  22.038  0.0938  0.2338 -0.1807
 6165W        W 8365   3.847   4.669  12.844  0.2254  0.0296 -0.6425
 6166W        W 8366  19.655   2.188   5.241 -0.0959 -0.0978  0.0240
 6167W        W 8367   5.869   3.366  26.869 -0.0149 -0.0458  0.0685
 6168W        W 8368  10.864   0.892  12.528 -0.1184 -0.1925  0.1562
 6169W        W 8369  14.258   5.616  11.784 -0.1622 -0.1500 -0.0197
 6170W        W 8370  14.516   5.069   7.674 -0.2182  0.0025  0.0909
 6171W        W 8371   8.504   4.413   9.732 -0.2436  0.0357  0.3093
 6172W        W 8372   5.634   2.543  30.041  0.2016  0.1774  0.1317
 6173W        W 8373  12.648   2.821   3.032  0.0227 -0.2861  0.1132
 6174W        W 8374  11.126   0.289  27.984 -0.2689 -0.2820  0.0005
 6175W        W 8375  22.271   3.914  26.135  0.0456 -0.2724  0.4450
 6176W        W 8376   0.958   0.715  22.170  0.1809 -0.1409 -0.0188
 6177W        W 8377  20.015   4.061  34.941 -0.0978  0.2807 -0.2036
 6178W        W 8378   0.345   0.490  23.829 -0.0162 -0.0842  0.1063
 6179W        W 8379  15.790   2.665   8.759 -0.3489 -0.0407  0.1645
 6180W        W 8380  12.039   5.913  21.429  0.1348  0.0000 -0.0451
 6181W        W 8381  12.339   2.464  21.437 -0.1665  0.1837 -0.0133
 6182W        W 8382  18.011   4.266   6.403 -0.0913 -0.2555  0.2190
 6183W        W 8383   6.156   3.147   8.694  0.1360  0.1052 -0.1575
 6184W        W 8384   1.181   3.712   7.441 -0.3258 -0.0966  0.1716
 6185W        W 8385  14.190   5.208  25.577  0.0779  0.0272 -0.4440
 6186W        W 8386  23.800   2.234   5.522  0.0005  0.0615  0.3642
 6187W        W 8387  11.259   5.375   6.694 -0.0342 -0.0305  0.0865
 6188W        W 8388  12.275   5.227  25.644  0.1295  0.0248  0.2012
 6189W        W 8389  12.287   4.021  31.017 -0.2411 -0.0225  0.0249
 6190W        W 8390  20.108   3.812  32.165 -0.0050  0.2654  0.3251
 6191W        W 8391  19.787   6.422  25.445  0.2886  0.0762  0.0408
 6192W        W 8392  13.071   6.437   3.808  0.1943 -0.0210 -0.0594
 6193W        W 8393  18.202   4.811  21.822  0.0850  0.0361 -0.0532
 6194W        W 8394  23.249   6.511  23.014  0.0666  0.2133  0.0739
 6195W        W 8395   2.623   2.116  23.855  0.2286  0.0366  0.0757
 6196W        W 8396  24.243   2.420   8.358 -0.0932  0.2165 -0.1685
 6197W        W 8397   7.304   4.348  13.645  0.1236  0.0006 -0.0699
 6198W        W 8398  21.675   5.567  27.014  0.1129  0.1331  0.0531
 6199W        W 8399   8.962   3.156   5.644 -0.0297 -0.1288  0.0527
 6200W        W 8400  21.262   2.158  25.889 -0.1167  0.1027 -0.0769
 6201W        W 8401  15.989   0.784  31.180  0.0826 -0.1012 -0.0540
 6202W        W 8402  12.948   3.090  13.798  0.1850 -0.2976 -0.0341
 6203W        W 8403  16.940   3.213  24.482  0.0018 -0.2775  0.2482
 6204W        W 8404  25.228   4.155  10.639 -0.1560  0.1459  0.2048
 6205W        W 8405  15.753   4.156   4.647 -0.1265 -0.0637  0.0151
 6206W        W 8406   3.933   0.554  12.065 -0.1005 -0.0527 -0.0821
 6207W        W 8407   7.383   3.861  28.584  0.0091  0.1366  0.2432
 6208W        W 8408  25.642   0.714  28.923  0.1166 -0.0256  0.2626
 6209W        W 8409  12.098   2.486  27.643 -0.0244  0.3691  0.0250
 6210W        W 8410  20.214   4.593  31.725 -0.0503 -0.0043 -0.0700
 6211W        W 8411  18.309   0.908   7.144  0.0802  0.0216 -0.1830
 6212W        W 8412  14.931   2.142  13.846  0.1840 -0.1063 -0.2529
 6213W        W 8413  19.359   0.699   8.502  0.0633  0.0063 -0.2692
 6214W        W 8414  23.497   3.486   3.059  0.0939  0.1199  0.1054
 6215W        W 8415  18.556   4.649  34.604 -0.0345 -0.0607 -0.2304
 6216W        W 8416  20.423   5.834  13.230  0.1656 -0.1825 -0.1916
 6217W        W 8417  10.660   4.770  15.323  0.3085  0.0061 -0.1935
 6218W        W 8418  18.823   2.174  31.031  0.3260  0.1548  0.0323
 6219W        W 8419  26.020   6.500  27.876 -0.2052  0.1739 -0.0987
 6220W        W 8420  23.505   4.574  14.236 -0.0031  0.0831  0.1221
 6221W        W 8421   4.278   0.435  29.765 -0.0198  0.0030  0.2020
 6222W        W 8422   2.256   4.513  29.393  0.0376 -0.0042 -0.0443
 6223W        W 8423  24.390   3.253  33.793 -0.2782 -0.2004 -0.0201
 6224W        W 8424   5.515   3.645  33.032  0.3194  0.1054 -0.0152
 6225W        W 8425  20.036   1.196  35.304  0.1078 -0.1397 -0.1494
 6226W        W 8426   6.886   5.854   7.444  0.0774 -0.0935 -0.1583
 6227W        W 8427   2.216   2.908  32.406  0.2905 -0.0902  0.1276
 6228W        W 8428   7.974   6.293  11.008  0.6054  0.1623  0.0515
 6229W        W 8429  16.561   5.167  14.186 -0.1862  0.0181 -0.0746
 6230W        W 8430   6.490   0.356  26.776 -0.0624  0.3609 -0.0557
 6231W        W 8431   9.553   2.909   0.876  0.1257  0.1265 -0.0792
 6232W        W 8432   0.572   0.044   1.137  0.2121 -0.1892 -0.0923
 6233W        W 8433  12.185   2.941  31.472  0.4999 -0.1120  0.1067
 6234W        W 8434   3.742   3.453  34.698 -0.0460 -0.1720  0.1636
 6235W        W 8435   4.461   4.881   0.189  0.0520 -0.0803  0.3048
 6236W        W 8436  13.827   0.179   4.054 -0.0170 -0.1745  0.0815
 6237W        W 8437  21.502   0.530  21.105  0.0755  0.0853 -0.1653
 6238W        W 8438   4.806   3.345   1.301  0.0581  0.0650  0.3260
 6239W        W 8439  20.220   2.760  30.333  0.0905  0.0337 -0.2313
 6240W        W 8440   8.198   0.379   7.239  0.3589  0.0151 -0.0760
 6241W        W 8441  13.808   4.985   7.894  0.0900 -0.0474 -0.0882
 6242W        W 8442  25.509   5.818  13.851  0.0186  0.1752 -0.2507
 6243W        W 8443  10.305   3.236   1.861  0.1762  0.0126 -0.2354
 6244W        W 8444  12.043   1.361  33.665 -0.0500  0.1705  0.0701
 6245W        W 8445   8.621   2.698  12.905  0.2593  0.1305 -0.0726
 6246W        W 8446   6.658   3.502  28.177  0.0118  0.0212 -0.3196
 6247W        W 8447  14.966   3.942  10.286  0.0531  0.2413 -0.0612
 6248W        W 8448   2.035   2.162   4.569  0.0577  0.1742 -0.1339
 6249W        W 8449  10.646   3.415  14.928 -0.0427  0.3000  0.1122
 6250W        W 8450   5.117   4.860   4.956  0.6376  0.3667 -0.1122
 6251W        W 8451   9.518   2.236  14.824  0.2388 -0.0530 -0.3591
 6252W        W 8452  21.878   4.914  13.353  0.1812 -0.2270 -0.2122
 6253W        W 8453   3.135   5.982  24.146  0.0965 -0.1997 -0.0974
 6254W        W 8454   6.908   2.929  20.987 -0.1762 -0.0498  0.2523
 6255W        W 8455  12.509   0.753   9.932 -0.0033  0.2632 -0.0470
 6256W        W 8456   5.964   1.564  28.746 -0.3059 -0.0441 -0.1268
 6257W        W 8457  14.848   1.002  34.125  0.1962 -0.1037 -0.0236
 6258W        W 8458  23.911   2.737   1.393 -0.1875 -0.0687  0.1512
 6259W        W 8459  12.707   1.934  32.029  0.0392  0.0094  0.4991
 6260W        W 8460  25.897   4.152   9.692 -0.2076  0.2384  0.0830
 6261W        W 8461   9.329   2.554  31.910 -0.2541 -0.0007 -0.0611
 6262W        W 8462  26.063   6.106   5.443  0.2773  0.1498 -0.1653
 6263W        W 8463   9.230   4.294  11.647 -0.2269 -0.2927  0.0416
 6264W        W 8464  24.575   0.683   9.720  0.2562 -0.0813  0.0425
 6265W        W 8465  10.650   1.572  28.727 -0.0135 -0.1838 -0.2075
 6266W        W 8466   4.035   5.716   5.756 -0.2503 -0.0563 -0.0726
 6267W        W 8467  10.699   0.806   5.624 -0.0856  0.2553 -0.0564
 6268W        W 8468  19.219   6.215  29.458 -0.2836 -0.0710 -0.0018
 6269W        W 8469  24.234   1.241  24.345  0.2939  0.1233 -0.0404
 6270W        W 8470  18.549   3.523  26.439  0.2360 -0.1067  0.0433
 6271W        W 8471  22.837   3.305  30.922  0.0022 -0.0634  0.0133
 6272W        W 8472   6.433   5.808  25.223  0.0065  0.0670 -0.1088
 6273W        W 8473  14.633   0.927  27.792  0.1014  0.0829  0.0021
 6274W        W 8474   0.333   2.085  21.172 -0.2942  0.1298 -0.2192
 6275W        W 8475  23.221   4.751   8.061 -0.0744  0.0423 -0.1550
 6276W        W 8476  19.437   4.099  13.794 -0.0632 -0.1208 -0.2049
 6277W        W 8477   4.963   2.767  13.643  0.0166 -0.0658  0.0829
 6278W        W 8478  13.728   0.820  27.906 -0.3589  0.3065 -0.1957
 6279W        W 8479   6.505   1.621   9.220  0.5709  0.1405 -0.1319
 6280W        W 8480  22.187   1.147   3.441 -0.0577 -0.2258  0.2622
 6281W        W 8481  19.671   0.236  27.725 -0.1934 -0.0713 -0.1558
 6282W        W 8482  25.305   4.228  35.309 -0.2712  0.3339  0.1139
 6283W        W 8483  20.231   1.435  22.347  0.1809  0.1245 -0.1301
 6284W        W 8484  18.868   2.650  22.135  0.0530  0.0978 -0.0804
 6285W        W 8485  23.697   5.177  23.798 -0.0315  0.0777  0.0698
 6286W        W 8486  23.891   3.812  34.484  0.0081  0.0709 -0.1713
 6287W        W 8487  23.453   3.055  22.419 -0.2368 -0.2794 -0.0856
 6288W        W 8488  12.655   3.534  29.779 -0.1377 -0.0336  0.2656
 6289W        W 8489  15.172   4.496  34.213 -0.4175 -0.0725 -0.0076
 6290W        W 8490   0.597   5.470   3.026  0.0423 -0.0541 -0.0532
 6291W        W 8491  12.202   0.216  30.634 -0.1246 -0.1218 -0.4119
 6292W        W 8492  17.509   2.757   8.904  0.0606 -0.1627  0.0346
 6293W        W 8493  13.347   4.675  34.832 -0.0858  0.2564  0.1259
 6294W        W 8494  23.589   2.807  10.806  0.2959 -0.1318  0.3757
 6295W        W 8495  12.281   3.747  21.154  0.0201 -0.2149 -0.0208
 6296W        W 8496  13.527   2.255   7.134  0.1801  0.0939 -0.0635
 6297W        W 8497  18.029   3.634  25.456  0.1251  0.1921  0.1391
 6298W        W 8498  14.335   4.344  34.053  0.1865  0.0222  0.1062
 6299W        W 8499   7.317   6.261  30.057  0.0469 -0.1439 -0.2114
 6300W        W 8500   0.804   2.834   6.609 -0.2169  0.3218  0.3176
 6301W        W 8501   2.027   4.345   1.863  0.0775  0.2779  0.0343
 6302W        W 8502  20.650   1.142   7.359 -0.1566 -0.2009  0.1343
 6303W        W 8503  18.869   4.197  27.503  0.1384 -0.1283 -0.0952
 6304W        W 8504  16.347   5.943  26.684 -0.0266  0.1227 -0.2308
 6305W        W 8505   3.946   6.273  30.161 -0.3852  0.1041  0.2195
 6306W        W 8506  14.626   3.808   0.550  0.1199  0.3182  0.0918
 6307W        W 8507  18.919   1.194   6.044  0.0128  0.3200  0.0101
 6308W        W 8508   5.587   0.355  27.888  0.1288 -0.0966  0.1288
 6309W        W 8509  10.574   4.397  27.492 -0.1804  0.0025 -0.0196
 6310W        W 8510  18.990   1.951  31.730  0.0689 -0.1027  0.3281
 6311W        W 8511  11.372   4.508  32.458  0.1357 -0.1599 -0.1334
 6312W        W 8512  24.216   3.450  25.589  0.0372 -0.1365  0.3080
 6313W        W 8513   8.521   4.837  26.972  0.3214  0.0503  0.1606
 6314W        W 8514  17.075   1.647   7.830 -0.0848 -0.3232  0.0909
 6315W        W 8515  21.329   3.469   9.791  0.1666  0.0871  0.0961
 6316W        W 8516  26.276   5.198   7.248 -0.0870 -0.2113  0.0029
 6317W        W 8517  10.919   1.642   6.382 -0.1360  0.2336  0.2181
 6318W        W 8518   4.400   6.503  13.423 -0.1092  0.2200 -0.0869
 6319W        W 8519   3.795   5.200  13.366 -0.2294 -0.0226 -0.3218
 6320W        W 8520  21.951   6.321  32.243 -0.0926 -0.0011  0.1219
 6321W        W 8521   4.018   4.172  20.946 -0.4813 -0.1955  0.3049
 6322W        W 8522  26.378   4.192  11.849 -0.0090 -0.0796  0.0338
 6323W        W 8523  24.090   2.599   7.026 -0.0857  0.1033  0.0861
 6324W        W 8524   1.286   5.107  26.579  0.2615  0.1065 -0.0709
 6325W        W 8525   2.227   4.387  21.037 -0.0022  0.0480 -0.3152
 6326W        W 8526   3.215   2.786  29.998 -0.2258 -0.2426  0.2344
 6327W        W 8527  17.137   6.117  33.164 -0.0586 -0.3419 -0.0840
 6328W        W 8528  15.263   0.193  12.771  0.0591  0.0361 -0.3314
 6329W        W 8529  25.495   1.207  34.915  0.2071 -0.0959  0.2580
 6330W        W 8530  25.128   1.158   1.286  0.1907  0.1147  0.1574
 6331W        W 8531  14.817   6.434  35.219 -0.0594  0.1386 -0.2853
 6332W        W 8532   8.403   2.137  21.464 -0.1572  0.1803  0.2557
 6333W        W 8533  25.638   5.257  20.715 -0.0881 -0.0531 -0.1547
 6334W        W 8534   4.758   0.412  14.978 -0.1789 -0.0206  0.0599
 6335W        W 8535   9.252   1.633  28.494  0.1477 -0.3293  0.0458
 6336W        W 8536  16.102   6.547  14.566  0.0087 -0.5301 -0.0055
 6337W        W 8537  18.287   5.292  11.975 -0.1544 -0.3865 -0.0456
 6338W        W 8538   7.290   0.949   6.335  0.1876  0.0597 -0.0595
 6339W        W 8539  14.788   4.288  21.852 -0.1870 -0.1627  0.0592
 6340W        W 8540   9.937   5.016  12.673  0.0522  0.0369 -0.0188
 6341W        W 8541  15.885   5.650  25.438  0.2608 -0.0504  0.1644
 6342W        W 8542   1.494   5.589  20.951  0.0563 -0.1549  0.0432
 6343W        W 8543  19.692   5.009  27.860  0.0002  0.0281  0.1469
 6344W        W 8544  18.381   3.158  31.456  0.2030 -0.1699 -0.0110
 6345W        W 8545  10.827   3.602   4.264  0.1148 -0.3584  0.0174
 6346W        W 8546  10.457   3.406  10.511 -0.1619 -0.0440 -0.0303
 6347W        W 8547   1.045   3.684   8.663 -0.2674 -0.2665  0.0435
 6348W        W 8548  17.177   4.737  26.700 -0.1619  0.1408 -0.2306
 6349W        W 8549  16.423   2.049   9.626 -0.0640 -0.2986 -0.2019
 6350W        W 8550  16.643   3.698   5.564 -0.0827 -0.0649  0.2665
 6351W        W 8551   8.498   5.333   5.310 -0.0182  0.2932  0.0399
 6352W        W 8552  25.510   1.666  23.662  0.0348 -0.0043  0.1019
 6353W        W 8553  21.323   4.764   6.956  0.2295  0.0594  0.4697
 6354W        W 8554  24.558   1.984   7.453 -0.1055 -0.1775 -0.1750
 6355W        W 8555  14.324   0.508  10.037  0.0616 -0.1175 -0.0960
 6356W        W 8556  18.288   3.903   4.475 -0.0423 -0.2247  0.3303
 6357W        W 8557   4.255   1.583   7.203  0.0355  0.1707 -0.0870
 6358W        W 8558  10.584   3.090  23.421 -0.3599  0.0258 -0.0992
 6359W        W 8559  24.439   4.546   2.914 -0.1254  0.2895  0.1778
 6360W        W 8560  25.938   4.051   1.418 -0.3281 -0.2097 -0.0293
 6361W        W 8561   8.328   3.953   4.253  0.0404  0.1915 -0.2043
 6362W        W 8562  24.156   1.916   9.894 -0.2489 -0.1091  0.0885
 6363W        W 8563   2.097   5.193   2.094  0.0651  0.1582 -0.1477
 6364W        W 8564  17.692   5.701   7.002  0.1271 -0.1106  0.0372
 6365W        W 8565   5.621   5.190  10.236 -0.1425 -0.0473  0.1383
 6366W        W 8566   1.905   4.747  31.693 -0.2611  0.1519 -0.1463
 6367W        W 8567  25.843   3.166  33.489  0.0750 -0.1598  0.0125
 6368W        W 8568   8.040   0.547   3.489 -0.2172 -0.0502  0.2402
 6369W        W 8569  13.963   5.791  24.531  0.0702 -0.1073  0.2031
 6370W        W 8570   2.064   4.182  10.841 -0.0670 -0.2742 -0.2119
 6371W        W 8571  17.076   1.172   2.205  0.0419  0.0238  0.1543
 6372W        W 8572  12.909   4.428   5.776  0.1628  0.1612  0.0145
 6373W        W 8573   4.250   4.997  32.035  0.2011  0.1436 -0.0616
 6374W        W 8574  20.457   0.368  26.152  0.2372  0.2557  0.0854
 6375W        W 8575   2.728   3.612   0.401 -0.1760  0.0287  0.1016
 6376W        W 8576  18.686   5.543   6.847 -0.1432  0.2175  0.3901
 6377W        W 8577  15.610   6.295  32.895  0.5108 -0.0458  0.1485
 6378W        W 8578  15.223   5.937   1.382  0.0009  0.1751  0.0091
 6379W        W 8579   9.837   0.239  14.531 -0.0075  0.0635 -0.1635
 6380W        W 8580  13.336   4.889   2.897  0.2463  0.1711  0.2556
 6381W        W 8581   1.852   5.950   1.379  0.3509  0.2254  0.0781
 6382W        W 8582  13.532   4.090   5.550  0.1028  0.0994  0.0045
 6383W        W 8583  24.905   3.679  14.259  0.0068  0.0120  0.1373
 6384W        W 8584  10.739   1.126  26.923 -0.3788  0.1215  0.1065
 6385W        W 8585  15.491   4.347  31.955  0.0384  0.4554  0.4785
 6386W        W 8586   0.952   2.562  12.665 -0.0694 -0.1339 -0.2083
 6387W        W 8587  25.324   0.262   7.434 -0.1192  0.0244  0.0500
 6388W        W 8588  13.289   5.266  21.796 -0.0550  0.0899  0.1624
 6389W        W 8589  12.211   3.418   9.149  0.2105 -0.0040 -0.0651
 6390W        W 8590  22.486   5.260   4.819  0.1306 -0.1842  0.1379
 6391W        W 8591  21.564   2.028   8.660  0.3372  0.4625  0.0514
 6392W        W 8592   8.575   4.014  15.063  0.0664  0.0515  0.2260
 6393W        W 8593   2.808   5.957  12.073 -0.0193 -0.1612 -0.1086
 6394W        W 8594  24.040   5.121  29.428 -0.2266  0.3699  0.1304
 6395W        W 8595  15.753   4.560  34.310 -0.0636  0.0363 -0.2727
 6396W        W 8596   5.643   5.274  35.744  0.2235 -0.0729  0.1242
 6397W        W 8597   2.883   0.905   3.151  0.1602  0.2019 -0.0279
 6398W        W 8598  24.246   4.652   2.466  0.5378  0.0175  0.3428
 6399W        W 8599  20.376   0.358  27.161 -0.0625  0.0302 -0.0733
 6400W        W 8600  15.790   6.028  12.399 -0.1685  0.3273 -0.1495
 6401W        W 8601  24.243   6.336  28.633  0.0926 -0.0925 -0.1916
 6402W        W 8602  19.619   1.235  31.548  0.2063 -0.1190  0.1057
 6403W        W 8603   2.255   4.302  27.817 -0.0032 -0.2629 -0.4701
 6404W        W 8604  23.539   0.819  12.475  0.0396 -0.0754 -0.1263
 6405W        W 8605   7.018   4.858  33.685  0.0602 -0.2323  0.0444
 6406W        W 8606  23.124   4.067   5.881 -0.1186 -0.1949 -0.2302
 6407W        W 8607  19.136   4.084   6.345 -0.3739  0.0309  0.0274
 6408W        W 8608  17.992   4.515   3.627 -0.2094  0.1307 -0.1636
 6409W        W 8609   9.458   5.745  26.569 -0.0312  0.2925 -0.0736
 6410W        W 8610  11.478   3.684   9.185  0.2246 -0.5855  0.0654
 6411W        W 8611  22.379   0.939   8.152  0.0360 -0.2818 -0.0560
 6412W        W 8612   4.122   6.145   9.957 -0.2987  0.0496  0.1107
 6413W        W 8613  11.647   2.784  28.587 -0.2429  0.2474  0.2745
 6414W        W 8614  17.356   5.178   4.484  0.0353  0.2616 -0.0424
 6415W        W 8615   7.285   0.563   2.597  0.2450  0.0483  0.0340
 6416W        W 8616  20.348   5.447   3.027 -0.1438  0.1913  0.0342
 6417W        W 8617  16.039   4.353  27.030  0.0034 -0.0292  0.0461
 6418W        W 8618   3.663   0.796  10.537 -0.2964  0.0382  0.0489
 6419W        W 8619   1.220   3.782  34.805  0.0247  0.1460 -0.0682
 6420W        W 8620   3.912   1.885   5.172  0.3313  0.0976  0.2819
 6421W        W 8621   6.878   0.365  23.403 -0.1209  0.1765  0.0468
 6422W        W 8622   0.572   0.789  14.622 -0.0966 -0.0110  0.0293
 6423W        W 8623   7.280   1.261  32.940  0.1470  0.1267 -0.0534
 6424W        W 8624  19.799   2.820   2.439 -0.2091 -0.0527 -0.1633
 6425W        W 8625   6.158   6.228  27.574 -0.0588  0.1734 -0.1599
 6426W        W 8626  18.317   0.442   8.577  0.0165 -0.0170  0.2233
 6427W        W 8627  14.225   4.322  21.032  0.3656 -0.0563 -0.0558
 6428W        W 8628   9.275   5.747  10.864  0.2276 -0.0928 -0.0470
 6429W        W 8629   4.307   3.153  29.718  0.1604 -0.0679  0.0121
 6430W        W 8630  24.802   3.518   2.404 -0.1517 -0.0808  0.0386
 6431W        W 8631   9.078   5.425  15.746  0.0693 -0.1775 -0.2193
 6432W        W 8632   7.296   4.517   1.358  0.0648 -0.0114 -0.0620
 6433W        W 8633  25.122   0.405  22.340 -0.0620  0.0615 -0.0250
 6434W        W 8634   6.034   4.602  12.123  0.0956 -0.1617 -0.6428
 6435W        W 8635  18.254   6.356  25.432 -0.0650  0.1239 -0.1774
 6436W        W 8636  14.205   4.100   1.436  0.0361 -0.1441  0.3697
 6437W        W 8637   7.242   2.733  30.057 -0.0111 -0.0485 -0.0431
 6438W        W 8638   7.848   1.271  12.935 -0.1352  0.2523  0.1992
 6439W        W 8639   7.596   4.582  25.746 -0.3147 -0.0895 -0.1525
 6440W        W 8640  12.096   0.932  24.758 -0.0243 -0.0541  0.0309
 6441W        W 8641  14.291   1.189   5.834 -0.2205 -0.0397 -0.1242
 6442W        W 8642  11.930   3.569  25.018  0.1038  0.1068  0.1896
 6443W        W 8643  13.916   3.161  24.589  0.1004 -0.0773  0.1829
 6444W        W 8644  23.816   1.552  34.746  0.0113 -0.1802  0.0881
 6445W        W 8645   4.239   1.714  26.466  0.1967 -0.0457  0.1530
 6446W        W 8646  22.004   3.773   8.909  0.0933  0.0165 -0.1244
 6447W        W 8647  11.825   3.923  26.027  0.1142 -0.2673  0.1813
 6448W        W 8648   7.748   4.022   1.030 -0.1233 -0.0327 -0.1552
 6449W        W 8649   0.898   6.303   6.681  0.1213  0.0567 -0.2347
 6450W        W 8650   5.600   1.077   4.745 -0.1409  0.2869  0.0858
 6451W        W 8651  23.167   5.439  21.518 -0.0683  0.0758  0.1069
 6452W        W 8652   2.179   3.918  29.022  0.0920 -0.1518  0.0413
 6453W        W 8653  14.616   3.232   8.706 -0.1097 -0.1117  0.2591
 6454W        W 8654  15.220   5.114   9.652  0.1245  0.0735 -0.0114
 6455W        W 8655   7.390   1.178  14.177 -0.1836  0.0936  0.2415
 6456W        W 8656   3.480   4.202  29.451  0.0405  0.0705 -0.1370
 6457W        W 8657  12.496   5.905  11.184 -0.1423 -0.2359  0.1893
 6458W        W 8658  20.553   0.697   4.147  0.0107 -0.0295 -0.2334
 6459W        W 8659  14.883   2.448  20.226 -0.0260 -0.3536 -0.0528
 6460W        W 8660  10.362   5.837  29.008 -0.0891 -0.0643  0.1264
 6461W        W 8661  20.263   6.531  11.111  0.2237  0.0086 -0.0604
 6462W        W 8662  11.642   3.034  25.171 -0.1768 -0.0753 -0.1446
 6463W        W 8663  12.214   1.440  33.139 -0.4153  0.2689 -0.1378
 6464W        W 8664  19.804   1.232  35.759 -0.1312 -0.1744 -0.1447
 6465W        W 8665  23.156   4.514  29.104 -0.0463 -0.0001  0.0896
 6466W        W 8666   0.731   5.500   3.884 -0.0168 -0.0819 -0.2197
 6467W        W 8667  23.621   4.044   1.687 -0.1261  0.1172 -0.0202
 6468W        W 8668   2.584   5.273  29.059  0.2185 -0.3743 -0.1558
 6469W        W 8669  20.321   6.274  10.247  0.3029  0.2431  0.1353
 6470W        W 8670   4.780   3.286  34.901  0.2157 -0.0118  0.3102
 6471W        W 8671  24.026   0.340   2.396  0.1299  0.0986 -0.2568
 6472W        W 8672  13.628   1.137  27.571  0.2320 -0.3352 -0.2540
 6473W        W 8673   4.227   1.897  31.151  0.0302 -0.0646  0.3259
 6474W        W 8674  11.053   0.440   8.335  0.1376 -0.1670 -0.0022
 6475W        W 8675  16.254   5.680  27.251  0.0411  0.0704  0.2102
 6476W        W 8676  10.508   2.132   5.136 -0.0683 -0.1801  0.0459
 6477W        W 8677   7.300   0.055   6.492 -0.3516  0.3590 -0.0172
 6478W        W 8678  15.448   0.045  15.508 -0.1837  0.1017 -0.0690
 6479W        W 8679  24.227   1.685  28.112  0.0662  0.0125 -0.1609
 6480W        W 8680  17.839   4.141  34.893 -0.0992 -0.0466  0.2516
 6481W        W 8681   4.558   6.466  10.658 -0.1702 -0.1511 -0.2373
 6482W        W 8682   4.926   1.889  23.853  0.0413 -0.0762 -0.0335
 6483W        W 8683   0.823   6.396   9.203  0.1073 -0.3335 -0.0291
 6484W        W 8684   1.211   3.979  24.896 -0.1811  0.1089 -0.1067
 6485W        W 8685   3.504   5.395  15.426  0.2090  0.1017  0.1299
 6486W        W 8686  14.305   1.600  22.536  0.1471  0.0421 -0.2005
 6487W        W 8687  20.520   5.287  15.051  0.1343 -0.4121  0.0104
 6488W        W 8688  11.642   3.188  15.247 -0.0497 -0.0531  0.1410
 6489W        W 8689   3.196   3.280  13.604 -0.0073  0.0964 -0.1243
 6490W        W 8690   6.343   3.058   1.732  0.1726  0.1424  0.0514
 6491W        W 8691  12.892   5.781  24.253  0.0127 -0.0286 -0.1044
 6492W        W 8692  14.011   4.425  33.594  0.0971  0.0324  0.1079
 6493W        W 8693  16.198   4.281  20.913  0.0747  0.0713  0.1772
 6494W        W 8694  21.357   5.622   9.962 -0.0284  0.0816 -0.0798
 6495W        W 8695  11.965   2.837   8.289 -0.1762  0.0873  0.0285
 6496W        W 8696  13.013   2.993  21.357 -0.1298  0.2138 -0.1568
 6497W        W 8697   2.282   3.594  11.132  0.0354  0.1328  0.1404
 6498W        W 8698  13.042   3.663  12.024  0.1500  0.0975 -0.1357
 6499W        W 8699  21.526   0.551   2.001 -0.0647 -0.2226  0.0028
 6500W        W 8700   4.342   4.758   7.803  0.1262 -0.0531 -0.5226
 6501W        W 8701  19.969   6.555  35.460 -0.1636 -0.1925  0.0689
 6502W        W 8702  18.327   3.283  30.454  0.1903 -0.1301 -0.0205
 6503W        W 8703  18.305   0.996  23.941  0.4196 -0.1402 -0.0777
 6504W        W 8704  17.027   3.757   1.673  0.1021 -0.0178  0.3404
 6505W        W 8705  25.821   6.219  34.960 -0.0254  0.1579  0.0501
 6506W        W 8706  20.380   5.376  34.734 -0.2067  0.3059 -0.0204
 6507W        W 8707  21.389   1.151  31.242 -0.1259  0.2217  0.1994
 6508W        W 8708  24.384   1.516   1.563  0.1031 -0.1542 -0.0070
 6509W        W 8709  19.403   2.485  22.161 -0.3985  0.2556  0.0471
 6510W        W 8710  11.428   6.144  28.805  0.1485 -0.0225  0.2293
 6511W        W 8711  11.614   6.186  24.438  0.2691  0.2267  0.0729
 6512W        W 8712   6.744   0.565  14.906  0.1863 -0.0766  0.0276
 6513W        W 8713   9.427   2.787  10.865  0.4956 -0.1275  0.2918
 6514W        W 8714   6.705   6.102  14.121  0.0658  0.0124 -0.3144
 6515W        W 8715  15.782   0.233   2.459 -0.1570  0.1272  0.0440
 6516W        W 8716  18.024   5.542  35.610  0.1246  0.2227  0.0700
 6517W        W 8717   4.001   5.401  24.692  0.0190 -0.1543 -0.1609
 6518W        W 8718   3.443   6.426   6.159 -0.0809  0.1601  0.2000
 6519W        W 8719  16.916   6.084   6.467 -0.1277 -0.0308 -0.0073
 6520W        W 8720   9.285   2.475  29.769  0.0631 -0.2991  0.0628
 6521W        W 8721   1.216   1.554  14.334 -0.0693 -0.0647 -0.4588
 6522W        W 8722   8.230   6.506   2.826  0.1013  0.0963  0.0391
 6523W        W 8723  16.502   3.587   9.519 -0.1217  0.0476 -0.0441
 6524W        W 8724  25.457   5.154   4.146 -0.0778  0.1275 -0.0891
 6525W        W 8725  22.304   4.833   7.309 -0.1034 -0.0578  0.3932
 6526W        W 8726   6.970   5.862   8.752 -0.0774 -0.1512  0.1319
 6527W        W 8727  16.593   2.254  15.873 -0.3854  0.2566 -0.2752
 6528W        W 8728   9.543   4.112  29.233 -0.1225 -0.3983  0.0130
 6529W        W 8729   5.834   3.071  28.669 -0.1221 -0.0269 -0.4661
 6530W        W 8730   4.999   4.769  22.770  0.1692  0.0521 -0.0515
 6531W        W 8731  18.659   2.558  24.814  0.2392 -0.0510 -0.3636
 6532W        W 8732  21.880   0.334  21.854 -0.2075  0.2025 -0.0133
 6533W        W 8733  25.255   2.007  30.565  0.0470  0.1608  0.1450
 6534W        W 8734  20.188   2.627  35.725 -0.1740  0.0985 -0.1026
 6535W        W 8735  25.397   6.391   4.339  0.1075  0.0640  0.0855
 6536W        W 8736  13.506   0.670  30.804  0.4547  0.3088 -0.2929
 6537W        W 8737   0.297   0.397  30.257 -0.0392  0.0662  0.1528
 6538W        W 8738  14.505   4.215  21.416 -0.1069  0.0119 -0.1266
 6539W        W 8739  13.399   2.833   9.480  0.0897  0.1776 -0.2457
 6540W        W 8740   1.893   4.006   4.578  0.0947  0.2441 -0.0637
 6541W        W 8741  19.979   2.070   6.401 -0.2275 -0.0363 -0.0812
 6542W        W 8742   2.297   2.765  12.502 -0.0122 -0.2118 -0.0551
 6543W        W 8743   1.970   0.069  13.394  0.0946  0.1720  0.1455
 6544W        W 8744  14.318   2.946  25.038 -0.0666 -0.1479  0.1791
 6545W        W 8745   2.195   1.533  22.643 -0.0132  0.0326  0.0512
 6546W        W 8746  12.315   2.446  35.657  0.2614  0.3605 -0.3639
 6547W        W 8747  25.299   6.120   1.026  0.0790  0.3599  0.0228
 6548W        W 8748  22.292   4.297   3.012 -0.4241  0.1651  0.0570
 6549W        W 8749  12.771   1.423  31.180 -0.1845 -0.1681  0.0696
 6550W        W 8750  26.269   3.276   5.403  0.0011  0.0244  0.0387
 6551W        W 8751  25.131   4.352  31.997  0.0566 -0.0461  0.0647
 6552W        W 8752  16.054   1.686  32.187 -0.2349 -0.0640  0.2540
 6553W        W 8753   9.236   1.913   2.838  0.0322  0.3506 -0.1094
 6554W        W 8754  11.150   0.589  32.652 -0.2491  0.1274  0.1121
 6555W        W 8755  17.024   2.820  22.520 -0.0735  0.0250  0.1297
 6556W        W 8756  20.078   3.219   0.308 -0.1737 -0.3682 -0.0285
 6557W        W 8757   3.037   2.747  27.037 -0.0234 -0.0051 -0.1410
 6558W        W 8758  11.576   0.680  22.403 -0.1234 -0.1181 -0.1761
 6559W        W 8759  13.236   2.483   7.496 -0.1952 -0.1771  0.1168
 6560W        W 8760   6.532   4.517   9.595 -0.1036  0.2712 -0.0200
 6561W        W 8761  10.522   1.117   4.551  0.0598 -0.2874 -0.0104
 6562W        W 8762   0.729   6.260  20.439 -0.1855  0.1225  0.1808
 6563W        W 8763  20.897   1.983  30.931 -0.0135 -0.0103  0.1452
 6564W        W 8764  14.051   4.246   0.562  0.0100 -0.0892 -0.0529
 6565W        W 8765  21.025   4.850  32.104  0.3299  0.1788 -0.0040
 6566W        W 8766   0.592   3.322  30.389 -0.0059 -0.0191 -0.0989
 6567W        W 8767  25.392   0.084  24.510 -0.3703  0.2594  0.0856
 6568W        W 8768  22.896   1.032  26.877  0.2565  0.1001 -0.1055
 6569W        W 8769   6.538   5.748   2.321 -0.3682 -0.0166  0.3428
 6570W        W 8770  12.707   6.545   6.847 -0.0372  0.4461  0.1681
 6571W        W 8771   5.400   1.464  11.775 -0.1992 -0.0231 -0.3345
 6572W        W 8772  12.410   2.644   1.918  0.0131  0.0084 -0.0140
 6573W        W 8773  10.851   1.920  12.568 -0.0900  0.0798  0.4645
 6574W        W 8774   7.822   6.203  12.235  0.1969  0.1449  0.0805
 6575W        W 8775  24.841   4.316   1.860  0.2650 -0.0892 -0.1897
 6576W        W 8776   7.196   2.791  32.117 -0.2765 -0.2625 -0.0309
 6577W        W 8777  12.461   0.459   2.339  0.1069  0.1717  0.1442
 6578W        W 8778  21.439   3.868  24.707  0.1157  0.4205 -0.1891
 6579W        W 8779  17.200   3.946   8.625  0.1811  0.0028  0.0004
 6580W        W 8780  21.970   4.826  14.094 -0.3927 -0.0241  0.0646
 6581W        W 8781  12.041   4.136   4.064  0.0469 -0.0311  0.1072
 6582W        W 8782  16.307   0.616   7.628 -0.1119 -0.0748 -0.0650
 6583W        W 8783  13.643   0.212  27.241 -0.0389 -0.1597 -0.0758
 6584W        W 8784  11.395   6.179  14.214 -0.0487 -0.1027 -0.1998
 6585W        W 8785  15.394   1.351   5.657  0.2490 -0.2617 -0.3416
 6586W        W 8786  15.935   4.826   8.082  0.1039 -0.0537  0.0184
 6587W        W 8787  13.258   1.888  34.751 -0.0449 -0.1829 -0.0147
 6588W        W 8788   1.173   5.067   6.251 -0.3725 -0.0432  0.0627
 6589W        W 8789  17.535   1.246  12.757 -0.0914  0.2905  0.0106
 6590W        W 8790  22.972   2.424  13.980 -0.0531  0.3014 -0.0918
 6591W        W 8791   5.895   4.581  28.685 -0.5670 -0.0302 -0.0505
 6592W        W 8792   1.708   2.953   7.876 -0.2297 -0.0191  0.1786
 6593W        W 8793  25.730   2.681  28.566 -0.0388 -0.0007 -0.1339
 6594W        W 8794   8.400   3.251  21.980 -0.1178  0.3315  0.2204
 6595W        W 8795  25.108   1.706   8.664 -0.0589  0.4731  0.0383
 6596W        W 8796  20.554   0.328   1.115 -0.0015 -0.2073 -0.0780
 6597W        W 8797   8.362   4.210  14.043 -0.1537 -0.0472 -0.0788
 6598W        W 8798  20.848   3.265  23.653 -0.1199 -0.3385 -0.0452
 6599W        W 8799  14.349   3.188   9.121  0.0525 -0.1418 -0.2610
 6600W        W 8800  23.349   3.987   3.517 -0.0733  0.1291  0.0287
 6601W        W 8801   3.710   5.953  25.085 -0.0558 -0.2630 -0.1604
 6602W        W 8802   8.779   0.045   0.490 -0.3090 -0.0268 -0.3783
 6603W        W 8803  18.753   1.237  31.039 -0.3138  0.1975  0.2716
 6604W        W 8804  11.619   4.285  15.975  0.2383  0.2109  0.1836
 6605W        W 8805  14.224   0.994  24.707  0.0780 -0.0715 -0.1559
 6606W        W 8806  19.091   0.393  35.605  0.1058 -0.2836  0.0453
 6607W        W 8807  23.029   1.588   2.518 -0.0816 -0.1859  0.1622
 6608W        W 8808  24.869   2.910  25.983 -0.0958 -0.0681 -0.0803
 6609W        W 8809  12.980   5.812   5.192  0.0208 -0.0850 -0.0485
 6610W        W 8810  25.640   4.095  26.883 -0.2085  0.0749 -0.2371
 6611W        W 8811  19.779   6.312  31.598 -0.0028 -0.1403  0.1100
 6612W        W 8812   7.271   0.183  34.907 -0.0167  0.0758  0.3910
 6613W        W 8813  10.770   4.374  15.030  0.0888 -0.3631  0.1091
 6614W        W 8814  11.320   1.300  10.505  0.2502  0.0513 -0.1867
 6615W        W 8815  24.920   5.555  10.339  0.1559 -0.2204 -0.0112
 6616W        W 8816  17.896   3.983  28.692  0.1048 -0.2550 -0.4357
 6617W        W 8817  23.914   0.126   5.077  0.0485 -0.0838 -0.1421
 6618W        W 8818  17.717   3.387  22.364  0.1194 -0.3149  0.0091
 6619W        W 8819  23.047   3.235  26.614 -0.2427  0.0770 -0.0594
 6620W        W 8820  16.638   4.687   1.406 -0.0242 -0.2643 -0.1703
 6621W        W 8821   2.492   3.540  33.201  0.0543  0.1233  0.4001
 6622W        W 8822  18.704   2.087  28.340 -0.0444 -0.0548  0.0146
 6623W        W 8823   7.921   5.466   0.927  0.0117 -0.1751  0.0189
 6624W        W 8824  21.431   0.578   6.965  0.3004 -0.1974  0.1617
 6625W        W 8825   5.012   3.297  31.296  0.0278 -0.0045  0.1750
 6626W        W 8826   8.127   1.824  29.879  0.1548  0.0323 -0.5623
 6627W        W 8827  23.070   0.245   0.834 -0.1554  0.4242 -0.1945
 6628W        W 8828  20.199   3.630  32.696 -0.2572 -0.1659  0.0918
 6629W        W 8829   4.085   1.876  29.712  0.0293 -0.0538  0.0140
 6630W        W 8830  21.930   1.088   8.275  0.2068 -0.0886 -0.1377
 6631W        W 8831  15.546   3.086  32.530  0.1766 -0.1782 -0.0455
 6632W        W 8832  22.610   1.672  13.228  0.0857 -0.0673 -0.0547
 6633W        W 8833   8.554   6.404  27.223 -0.0038 -0.0965  0.1477
 6634W        W 8834   2.933   3.186  33.183  0.2559 -0.1127  0.2164
 6635W        W 8835   7.990   4.853  24.574 -0.0733 -0.0350  0.1098
 6636W        W 8836  24.519   5.958   0.582 -0.1239  0.3094 -0.0542
 6637W        W 8837  20.946   0.716   7.745 -0.0033 -0.0984  0.1062
 6638W        W 8838   8.502   0.496   0.615  0.1749 -0.0579  0.1674
 6639W        W 8839  24.653   4.258  24.889  0.0842 -0.2144  0.0381
 6640W        W 8840  18.001   0.716  32.244  0.2309 -0.3577 -0.0021
 6641W        W 8841   5.003   6.002   9.474  0.2403 -0.2683 -0.0681
 6642W        W 8842  21.807   0.168   2.970 -0.2662 -0.2571  0.2914
 6643W        W 8843  23.495   3.723  11.096 -0.0853 -0.0116 -0.1270
 6644W        W 8844   7.369   3.755   3.284 -0.1349  0.2456 -0.1623
 6645W        W 8845  14.628   5.898   3.023 -0.3005 -0.0596  0.0932
 6646W        W 8846  13.878   0.841   2.364  0.0429  0.0440  0.1332
 6647W        W 8847  21.140   2.228   2.165 -0.1965  0.0273  0.0088
 6648W        W 8848   9.545   1.602  20.860 -0.0802  0.0856  0.0145
 6649W        W 8849   2.595   4.280  29.086 -0.0687  0.0547 -0.2176
 6650W        W 8850  19.499   1.490  34.523 -0.1560  0.1385 -0.2927
 6651W        W 8851  14.632   3.111  22.710  0.0731  0.1596  0.0024
 6652W        W 8852  19.368   5.671  24.562 -0.0444 -0.0730 -0.1981
 6653W        W 8853  23.247   2.145   5.405 -0.1076 -0.1081  0.1599
 6654W        W 8854  25.491   0.048  34.165  0.3476 -0.0148  0.0344
 6655W        W 8855  18.305   3.579  12.033  0.2143 -0.1654  0.2558
 6656W        W 8856   7.139   5.232   4.204 -0.2462 -0.0223 -0.0186
 6657W        W 8857  25.699   0.274  23.707  0.1871  0.1779 -0.0502
 6658W        W 8858  24.240   5.830   8.750  0.0017 -0.1688  0.1896
 6659W        W 8859  11.355   3.829  14.896  0.2236  0.1031  0.3130
 6660W        W 8860  12.902   0.906  28.474  0.0001 -0.2680  0.0178
 6661W        W 8861  10.386   5.531  31.916  0.1995  0.1478 -0.2608
 6662W        W 8862  24.297   6.382  22.065 -0.0607 -0.2103 -0.0136
 6663W        W 8863  18.016   4.687  13.849  0.0232 -0.3411 -0.4257
 6664W        W 8864   1.697   5.183   8.181  0.3326 -0.1119 -0.3649
 6665W        W 8865  23.080   1.929  10.325  0.0602 -0.1301 -0.1393
 6666W        W 8866   4.967   4.096  11.526  0.1407  0.2347  0.2162
 6667W        W 8867  13.852   1.629  27.452 -0.1500 -0.3118  0.1559
 6668W        W 8868  21.032   1.496  27.690  0.2301 -0.2319  0.1441
 6669W        W 8869  26.191   5.464  20.659  0.2057 -0.0172 -0.1600
 6670W        W 8870  15.240   1.292   6.313 -0.0395  0.0745 -0.0689
 6671W        W 8871   4.115   1.276  35.949 -0.1671  0.1197  0.1456
 6672W        W 8872  19.915   2.393   7.208  0.0781  0.1984  0.1258
 6673W        W 8873  14.339   3.869  34.181 -0.2871 -0.0291  0.1596
 6674W        W 8874   6.500   2.024  22.658  0.0412 -0.0135  0.4153
 6675W        W 8875  20.674   6.491  27.122 -0.0784 -0.0797 -0.2229
 6676W        W 8876  26.377   0.048  12.844 -0.3392 -0.0485 -0.0240
 6677W        W 8877  15.313   5.490  31.816  0.1201  0.1652  0.1398
 6678W        W 8878   3.525   2.155   4.935 -0.0567 -0.1671 -0.2235
 6679W        W 8879  13.997   5.633  21.463 -0.0046  0.3004  0.0612
 6680W        W 8880  24.875   5.077  13.029  0.1543  0.0647  0.0158
 6681W        W 8881  16.455   6.218  10.263 -0.1477 -0.0636  0.2596
 6682W        W 8882  17.478   0.285   7.397 -0.2679  0.1118  0.1723
 6683W        W 8883  15.506   5.413  35.380  0.0197  0.1991 -0.1763
 6684W        W 8884   6.748   6.023   5.409  0.0545 -0.4758  0.0260
 6685W        W 8885  23.887   1.008  25.449 -0.0290  0.2739 -0.0922
 6686W        W 8886   1.439   5.790  30.872  0.1102 -0.2914 -0.0828
 6687W        W 8887  25.416   5.587   1.058 -0.2873 -0.0914 -0.2675
 6688W        W 8888   4.489   4.884   1.434 -0.1443 -0.0517 -0.1031
 6689W        W 8889  23.522   6.557   3.894 -0.1415  0.2147 -0.0487
 6690W        W 8890  12.697   3.660  10.358 -0.0432  0.2397 -0.0202
 6691W        W 8891  13.894   1.023   0.905  0.0503 -0.1449 -0.1387
 6692W        W 8892   4.254   2.743   4.713 -0.4440  0.0229 -0.0901
 6693W        W 8893  13.443   1.431  28.071  0.0966 -0.1220  0.3662
 6694W        W 8894  16.544   5.605  34.428 -0.2064 -0.0048  0.3996
 6695W        W 8895   8.951   6.384   2.807  0.0144  0.0515 -0.1632
 6696W        W 8896  25.100   1.690  11.904  0.3993  0.2106  0.1353
 6697W        W 8897   0.891   3.401   0.495  0.0345  0.2963  0.2100
 6698W        W 8898   9.739   5.677   7.045 -0.2355 -0.1733 -0.2486
 6699W        W 8899  24.666   4.086  35.630  0.2728 -0.4315 -0.1767
 6700W        W 8900  26.004   2.293  34.041 -0.2529 -0.0876 -0.0363
 6701W        W 8901  14.948   1.058  15.602 -0.2137 -0.0659 -0.0385
 6702W        W 8902  26.094   3.445  14.794 -0.0762  0.3287 -0.0406
 6703W        W 8903  23.218   3.081  20.941 -0.1658  0.1663  0.2817
 6704W        W 8904  14.082   6.188  24.846 -0.1113  0.0224 -0.3456
 6705W        W 8905  23.726   5.416   2.832 -0.0311  0.0335  0.2512
 6706W        W 8906   5.494   2.282   1.144 -0.4004  0.0782 -0.0818
 6707W        W 8907  26.327   2.624  27.654 -0.1986  0.0328 -0.1784
 6708W        W 8908  11.137   5.889   3.060 -0.1567  0.1243 -0.1312
 6709W        W 8909  25.253   2.744  23.923  0.1641  0.1164 -0.0942
 6710W        W 8910   7.053   3.218  21.419 -0.3469 -0.2633  0.1455
 6711W        W 8911  10.239   1.515   9.678 -0.0468 -0.0733  0.1822
 6712W        W 8912  20.121   3.900  23.665 -0.2567  0.0587 -0.0639
 6713W        W 8913   9.378   1.865  13.567  0.3263  0.2099 -0.0514
 6714W        W 8914  19.187   4.854  34.227 -0.2027  0.2674 -0.0309
 6715W        W 8915   9.668   1.656  14.922 -0.0339  0.0338 -0.1127
 6716W        W 8916  11.933   2.668  33.186  0.2397  0.0474 -0.2567
 6717W        W 8917  14.891   5.327  24.145  0.0618 -0.1794  0.1188
 6718W        W 8918   5.951   4.032  21.735  0.1250 -0.0697 -0.1625
 6719W        W 8919  17.560   1.091  24.644 -0.0048 -0.3104  0.2541
 6720W        W 8920  24.476   5.920  14.432  0.2101  0.0365  0.0620
 6721W        W 8921  20.459   3.204  34.488  0.0401 -0.3976 -0.2825
 6722W        W 8922  24.428   4.792  21.182  0.1030 -0.1503 -0.0411
 6723W        W 8923  21.164   1.941  27.523  0.4579  0.0701  0.0142
 6724W        W 8924  19.790   4.087   8.853  0.0116  0.3635 -0.2091
 6725W        W 8925  15.323   5.432  29.636 -0.2251  0.1042  0.0557
 6726W        W 8926   6.247   1.816  14.426  0.0107 -0.0271  0.2071
 6727W        W 8927  22.348   2.750   2.778  0.2305  0.2772 -0.1467
 6728W        W 8928  11.408   2.069  34.502  0.0037  0.0392  0.2335
 6729W        W 8929  15.980   5.236   3.111 -0.0535  0.0891  0.1533
 6730W        W 8930  16.430   2.727  30.220  0.0125 -0.0493 -0.0587
 6731W        W 8931   8.784   4.731  29.069 -0.0234  0.1067  0.2747
 6732W        W 8932  25.780   2.892  30.775 -0.2270  0.0640 -0.0229
 6733W        W 8933  16.462   5.305   6.467 -0.2423 -0.1873 -0.1311
 6734W        W 8934  22.702   2.005   9.793  0.2131  0.1274  0.1642
 6735W        W 8935   1.735   2.789  23.719  0.0207 -0.0690 -0.0336
 6736W        W 8936  24.970   1.619  30.858 -0.2516 -0.1527 -0.2107
 6737W        W 8937  24.008   3.298  24.200 -0.1665 -0.1104  0.3728
 6738W        W 8938   9.618   4.911  12.113  0.0140 -0.2120 -0.1633
 6739W        W 8939  17.440   4.105   5.979  0.0731 -0.1587 -0.2212
 6740W        W 8940   8.337   0.199  33.890 -0.1835 -0.2931 -0.2808
 6741W        W 8941  11.631   0.906  32.718  0.0200 -0.2020 -0.0311
 6742W        W 8942  15.141   6.304  10.589 -0.1451  0.1416  0.0018
 6743W        W 8943   1.690   3.812  12.715 -0.1393 -0.0705 -0.1371
 6744W        W 8944  12.930   0.895  32.376  0.0091 -0.1032 -0.0436
 6745W        W 8945   3.130   6.296  30.397 -0.1556 -0.0092  0.2243
 6746W        W 8946  15.588   3.659  34.564 -0.3030  0.1111 -0.3721
 6747W        W 8947  15.120   2.013   4.336  0.1964  0.0277 -0.1029
 6748W        W 8948   2.926   3.426  34.826  0.0255 -0.4578  0.3517
 6749W        W 8949  16.025   4.298  10.327 -0.0693  0.0390  0.3227
 6750W        W 8950  23.172   0.847  24.305  0.0316 -0.2476  0.3013
 6751W        W 8951  21.267   4.270  27.704  0.1897 -0.1078  0.2116
 6752W        W 8952   3.590   4.413   1.968 -0.3335 -0.0016 -0.4110
 6753W        W 8953  23.908   4.000   5.102 -0.0608  0.2380  0.0895
 6754W        W 8954   7.497   4.191  26.516  0.0728  0.2563  0.2852
 6755W        W 8955  21.947   3.273  14.075 -0.1461  0.0994  0.0462
 6756W        W 8956  12.681   5.759   8.727 -0.0615  0.0427 -0.2388
 6757W        W 8957   7.278   0.869  24.151  0.2035 -0.0597 -0.0948
 6758W        W 8958  22.339   6.340  24.292  0.0487  0.1463  0.1825
 6759W        W 8959   8.301   2.994  32.525  0.0516 -0.1948 -0.1249
 6760W        W 8960  10.302   6.450   1.496 -0.1200  0.2497 -0.0516
 6761W        W 8961   2.702   0.039  12.143  0.1573  0.1186 -0.1973
 6762W        W 8962   9.986   1.322  25.464  0.0178  0.2021 -0.3358
 6763W        W 8963   1.201   4.965   2.110  0.1800 -0.0613 -0.0436
 6764W        W 8964   5.676   3.557  25.040  0.0540  0.0815  0.1312
 6765W        W 8965   2.194   5.710   0.476 -0.1855 -0.0643 -0.0388
 6766W        W 8966   1.344   0.683  13.483 -0.0865  0.0374 -0.0675
 6767W        W 8967  23.332   2.024  25.853  0.3045 -0.3054  0.4522
 6768W        W 8968  22.939   3.865  32.937  0.2416 -0.2340 -0.0370
 6769W        W 8969  21.782   5.914  22.454  0.2071  0.0451  0.0508
 6770W        W 8970   1.236   4.673   8.459  0.0964  0.1171  0.0537
 6771W        W 8971   4.828   4.293  13.805  0.1195 -0.0254  0.0548
 6772W        W 8972   5.806   4.006  23.212  0.1392  0.3675 -0.1754
 6773W        W 8973   6.192   0.046  28.487  0.1055  0.0973  0.0384
 6774W        W 8974  16.136   3.195  28.359 -0.1863  0.3948 -0.1272
 6775W        W 8975  13.024   2.205  28.941  0.0247 -0.0485 -0.0486
 6776W        W 8976  25.983   2.645  12.352 -0.0224  0.1330  0.1517
 6777W        W 8977  23.542   1.571  35.754 -0.1430  0.0262  0.0773
 6778W        W 8978  16.847   3.203  10.334 -0.1494 -0.0234 -0.0936
 6779W        W 8979  19.156   4.789  33.307 -0.2028 -0.3138 -0.0170
 6780W        W 8980  25.162   1.509   3.272 -0.4206 -0.3719 -0.1441
 6781W        W 8981  14.577   5.666  35.667  0.4732  0.2103  0.2633
 6782W        W 8982  23.602   3.685  14.499  0.0722  0.1228  0.1558
 6783W        W 8983  21.288   0.806  10.287  0.2476 -0.1288  0.0581
 6784W        W 8984  13.325   0.371  30.417  0.1009  0.2898 -0.2335
 6785W        W 8985   7.750   3.668  22.107  0.0304 -0.0104 -0.0950
 6786W        W 8986  20.665   3.466  11.536  0.2497  0.0512 -0.1026
 6787W        W 8987  12.678   0.921  22.744 -0.1474 -0.1713 -0.0470
 6788W        W 8988  16.594   6.579  30.497  0.2823 -0.1008  0.0274
 6789W        W 8989  23.195   6.417  11.655  0.3584  0.1171  0.5946
 6790W        W 8990  20.462   3.508   3.480  0.1896  0.1555  0.2831
 6791W        W 8991  18.279   2.648  31.575 -0.2476 -0.1622  0.1065
 6792W        W 8992   5.774   5.822  28.916  0.0663  0.1084  0.1744
 6793W        W 8993  16.207   0.861  12.011  0.2998  0.0454 -0.1614
 6794W        W 8994   1.109   4.371   0.622 -0.3516  0.0548  0.0282
 6795W        W 8995   9.412   3.212   3.015 -0.2101 -0.0986 -0.3277
 6796W        W 8996   7.416   3.022  21.108 -0.1520 -0.3547 -0.0136
 6797W        W 8997   1.238   0.687  32.952  0.1595 -0.0053 -0.1895
 6798W        W 8998  17.343   4.496  33.225 -0.1354  0.0527  0.0588
 6799W        W 8999   1.411   0.680   1.919  0.0501 -0.0123  0.2293
 6800W        W 9000  13.595   1.842  14.110  0.1046  0.1589 -0.1989
 6801W        W 9001   6.314   2.225   7.045  0.0427 -0.1394  0.0016
 6802W        W 9002   5.938   1.285   8.405  0.3361 -0.3827 -0.1612
 6803W        W 9003  23.833   2.306  20.641  0.2090  0.0885  0.2555
 6804W        W 9004   6.715   2.694  12.720 -0.2251  0.1636  0.0018
 6805W        W 9005  10.726   4.880   3.940  0.3017  0.2518  0.1577
 6806W        W 9006   8.795   6.483  25.075  0.1490 -0.1059  0.1022
 6807W        W 9007  18.808   5.329   6.112 -0.0805 -0.1148  0.0459
 6808W        W 9008   5.656   1.186   9.396 -0.2426 -0.1389 -0.0682
 6809W        W 9009  13.354   0.076  24.570  0.1410 -0.1430  0.1675
 6810W        W 9010   4.318   1.821  21.924  0.1807 -0.0567  0.2302
 6811W        W 9011  15.223   1.010   7.715  0.1515 -0.1447  0.0670
 6812W        W 9012  23.285   1.030  23.273 -0.2490  0.1452 -0.1220
 6813W        W 9013  17.005   0.987   9.024  0.1724  0.0541 -0.0729
 6814W        W 9014  17.924   0.621   5.123 -0.0792  0.0825  0.1384
 6815W        W 9015  17.558   0.293   3.035 -0.0667  0.1090 -0.3212
 6816W        W 9016  23.694   5.807  25.551 -0.0938  0.0410  0.2477
 6817W        W 9017  15.180   1.937  12.035 -0.1746 -0.3513  0.1465
 6818W        W 9018  22.911   4.304   5.326  0.3143 -0.0249  0.0708
 6819W        W 9019  26.315   2.246  22.955  0.2412 -0.3306  0.0758
 6820W        W 9020  24.768   6.250   2.607 -0.0151  0.0855 -0.1205
 6821W        W 9021  24.607   0.420   1.904  0.2324 -0.2785  0.1956
 6822W        W 9022  21.858   3.059  31.029  0.2244 -0.0965  0.1703
 6823W        W 9023  18.850   6.179  30.970  0.1621  0.1012  0.2005
 6824W        W 9024  12.086   6.588  22.752  0.0400 -0.0824 -0.0139
 6825W        W 9025  17.775   0.735  26.944 -0.1795 -0.1922  0.0773
 6826W        W 9026  23.364   2.476  25.492  0.1117 -0.2485  0.0344
 6827W        W 9027   0.925   6.251  21.475 -0.1423  0.3343  0.0137
 6828W        W 9028  18.566   6.321   2.033 -0.0636 -0.0472  0.0757
 6829W        W 9029   0.443   6.531  27.532 -0.1551 -0.1299 -0.1552
 6830W        W 9030  16.740   4.398  21.021  0.2154  0.0681 -0.1658
 6831W        W 9031   4.182   2.509  11.406  0.0050  0.1275  0.1612
 6832W        W 9032   9.648   5.478  21.423  0.3813 -0.0332 -0.0822
 6833W        W 9033   0.078   3.629   7.521 -0.0795  0.0266  0.0065
 6834W        W 9034  10.272   3.113  13.393 -0.0423  0.2295  0.1271
 6835W        W 9035  18.890   0.945  24.710  0.1534 -0.0120 -0.2060
 6836W        W 9036  12.528   6.144   1.772  0.0429 -0.2266 -0.1528
 6837W        W 9037  16.786   4.794   2.987  0.1867 -0.3095 -0.2036
 6838W        W 9038  20.521   5.863   7.414 -0.2447  0.0502 -0.1488
 6839W        W 9039  24.684   1.544   8.420  0.0752  0.0499 -0.0696
 6840W        W 9040   4.690   6.434   5.767  0.1123  0.0144  0.0964
 6841W        W 9041  22.098   4.932   8.000  0.0163  0.1347  0.0445
 6842W        W 9042   9.754   0.264   5.558  0.0348 -0.1598 -0.0263
 6843W        W 9043   1.214   3.629  12.638 -0.0771  0.0898 -0.1194
 6844W        W 9044   4.391   6.254  14.929  0.0624 -0.0445  0.1068
 6845W        W 9045  20.054   5.717  12.189 -0.0292  0.0324  0.0086
 6846W        W 9046   6.606   1.413  30.183  0.2177  0.2525  0.0514
 6847W        W 9047   4.196   3.360   4.650  0.0422  0.0123 -0.0752
 6848W        W 9048  10.833   3.851  15.066  0.2763  0.0030  0.0196
 6849W        W 9049   1.730   2.634  33.957 -0.0571 -0.0447  0.0867
 6850W        W 9050  21.040   3.488   5.007  0.3957 -0.2147 -0.0058
 6851W        W 9051  21.206   5.562   6.024 -0.2807 -0.0450 -0.2666
 6852W        W 9052  10.239   2.947  23.115  0.0880 -0.2682  0.1101
 6853W        W 9053  21.867   2.417   1.829 -0.0444 -0.1526 -0.1439
 6854W        W 9054   0.867   3.754  25.232  0.0869  0.4244 -0.2203
 6855W        W 9055  18.486   5.119  22.259  0.0652 -0.0654 -0.0722
 6856W        W 9056  25.320   3.802  13.797 -0.0777  0.0247 -0.1710
 6857W        W 9057  18.733   5.572  11.983 -0.1608  0.0303  0.1614
 6858W        W 9058   8.338   3.562   0.427  0.3271  0.2814  0.2787
 6859W        W 9059  17.848   4.323  30.198 -0.4671 -0.0184  0.0172
 6860W        W 9060   7.668   3.191   2.165  0.0672 -0.0790 -0.0187
 6861W        W 9061   6.302   1.555  21.377  0.0697  0.2086  0.0377
 6862W        W 9062  14.618   4.412  28.484 -0.0274  0.0555  0.1718
 6863W        W 9063   2.249   6.257  28.737  0.0417  0.0215 -0.0001
 6864W        W 9064   6.808   6.278  23.074 -0.2455  0.0467  0.2012
 6865W        W 9065  16.074   1.421   0.932 -0.2911  0.0658  0.0474
 6866W        W 9066  24.843   3.553   5.490 -0.0167  0.1345  0.2945
 6867W        W 9067  15.258   2.815  32.840  0.0999 -0.1208 -0.0540
 6868W        W 9068   8.140   4.330  25.887 -0.0837 -0.0114 -0.3321
 6869W        W 9069  10.270   2.879  10.209  0.1259 -0.0059  0.3655
 6870W        W 9070   1.648   0.219   3.130  0.1950 -0.2354 -0.2432
 6871W        W 9071   9.804   4.589  13.975 -0.1071  0.3393  0.2241
 6872W        W 9072  23.546   5.812  21.412 -0.1182  0.1096 -0.2983
 6873W        W 9073  18.130   5.576  32.610  0.1079  0.0288  0.1225
 6874W        W 9074  16.047   3.469  27.479 -0.0369  0.0788 -0.3608
 6875W        W 9075  25.293   2.309  30.160  0.1050 -0.1740  0.2259
 6876W        W 9076  15.016   0.093   3.473  0.2337 -0.0889  0.0108
 6877W        W 9077   3.048   6.179  28.465 -0.1344  0.0261 -0.0410
 6878W        W 9078   5.286   1.558  29.071  0.0796 -0.1477  0.1845
 6879W        W 9079   6.966   3.671   8.794 -0.1302 -0.0182 -0.1659
 6880W        W 9080  19.778   3.490  23.523  0.1117  0.1918 -0.1702
 6881W        W 9081  23.545   3.696  24.775 -0.1228  0.1938  0.0647
 6882W        W 9082  11.850   2.096  22.287 -0.2927 -0.0902 -0.2054
 6883W        W 9083  13.276   0.288   8.085  0.0789 -0.1000  0.1230
 6884W        W 9084  23.549   3.506  22.163  0.1155  0.2270  0.4442
 6885W        W 9085  24.016   1.872   7.597 -0.2004 -0.0256  0.2125
 6886W        W 9086   3.541   6.521  30.037  0.3171  0.1456  0.0419
 6887W        W 9087   4.325   4.490  12.842 -0.1356  0.2167  0.1599
 6888W        W 9088  20.544   0.139  28.544 -0.3606 -0.1775 -0.2069
 6889W        W 9089  12.426   2.097  11.740 -0.0976  0.1831  0.0891
 6890W        W 9090   8.204   0.444  24.621  0.3053 -0.0242 -0.2183
 6891W        W 9091  10.306   3.736  28.729 -0.2884  0.0033 -0.0016
 6892W        W 9092  26.045   5.980   1.441  0.0302 -0.0791 -0.3619
 6893W        W 9093   3.891   0.367  12.857 -0.1270  0.0678  0.0428
 6894W        W 9094   8.672   1.001  28.577 -0.1533 -0.0104  0.0929
 6895W        W 9095  23.459   5.311  31.050  0.2617 -0.1676 -0.1227
 6896W        W 9096  11.363   0.598  25.223  0.0514  0.2359  0.0011
 6897W        W 9097  13.431   4.031  29.907  0.0884  0.3510 -0.0916
 6898W        W 9098  15.061   6.343   3.833  0.1348 -0.1026  0.0774
 6899W        W 9099   5.365   0.376   0.574 -0.2128 -0.2119 -0.3104
 6900W        W 9100  25.189   4.804  10.149 -0.0007 -0.0270 -0.2949
 6901W        W 9101  19.312   6.392  25.177  0.2219  0.1179 -0.2438
 6902W        W 9102  13.155   5.452  32.198  0.0666  0.0899  0.1036
 6903W        W 9103  14.111   5.044   9.341  0.2601  0.0001 -0.0845
 6904W        W 9104  23.236   6.453   7.893 -0.0086  0.2339 -0.0614
 6905W        W 9105  20.183   0.173   0.810  0.0531  0.4366 -0.1649
 6906W        W 9106  25.616   0.868  35.244 -0.1397  0.3167 -0.0834
 6907W        W 9107  13.975   1.810  10.275  0.1200  0.4686  0.1515
 6908W        W 9108   3.672   4.287  11.870 -0.2441 -0.0313 -0.1885
 6909W        W 9109   2.255   2.805  30.392 -0.0407  0.0479 -0.0251
 6910W        W 9110  13.202   1.042  11.190 -0.0929  0.2101  0.3088
 6911W        W 9111  19.727   3.297   6.920 -0.0374 -0.3010 -0.2041
 6912W        W 9112  21.866   4.686   7.517 -0.1071  0.0991 -0.0809
 6913W        W 9113   9.995   3.295  30.031 -0.0129  0.0318 -0.1364
 6914W        W 9114  20.525   3.750   8.341  0.2046 -0.1426  0.0414
 6915W        W 9115   2.620   5.395  32.987  0.1864  0.1310  0.3031
 6916W        W 9116   4.809   2.346  25.251  0.0037  0.1070  0.0928
 6917W        W 9117   8.185   0.244  31.190 -0.0266  0.1589 -0.1330
 6918W        W 9118   1.349   6.507  10.130 -0.0069 -0.2997 -0.0424
 6919W        W 9119  18.416   0.577  14.612  0.1277  0.0288  0.1175
 6920W        W 9120  15.257   6.117  32.460  0.2783 -0.2489  0.2054
 6921W        W 9121  16.772   2.913   4.102 -0.2561 -0.2449  0.0590
 6922W        W 9122  15.701   0.310   5.448 -0.0391  0.2788 -0.1669
 6923W        W 9123  24.593   2.650  32.943 -0.2148  0.2437  0.3099
 6924W        W 9124  24.347   3.038   3.377  0.0156 -0.0484  0.1772
 6925W        W 9125  17.019   2.736  26.315 -0.2888 -0.5087 -0.0152
 6926W        W 9126   9.857   3.114  22.654 -0.0836 -0.0200  0.0439
 6927W        W 9127   8.132   5.184  25.767  0.2321 -0.0762 -0.2794
 6928W        W 9128  22.066   6.178  21.210  0.1722 -0.3812 -0.0213
 6929W        W 9129  21.283   3.345   8.795  0.0949 -0.0420 -0.0957
 6930W        W 9130   8.852   3.270  31.268  0.1027 -0.1374 -0.2782
 6931W        W 9131  10.474   1.048  33.264 -0.0458  0.1120  0.0700
 6932W        W 9132  13.730   5.028  11.092 -0.0711 -0.0561  0.0363
 6933W        W 9133  26.105   4.562   2.336  0.1378  0.0093 -0.2607
 6934W        W 9134  13.797   1.887  22.935 -0.3349 -0.2075  0.1965
 6935W        W 9135  14.179   3.459  25.831 -0.0283  0.0433  0.1397
 6936W        W 9136  21.124   4.810  20.764 -0.0562  0.0707 -0.1112
 6937W        W 9137  23.563   6.069  34.381 -0.2429  0.1526  0.0471
 6938W        W 9138  13.197   4.105  29.405  0.2727  0.2258 -0.0581
 6939W        W 9139  19.136   2.954   6.741  0.0522 -0.0192 -0.3010
 6940W        W 9140   8.875   0.348   0.880 -0.0804  0.0583  0.1220
 6941W        W 9141  10.997   4.350  29.576 -0.2778  0.1258  0.0701
 6942W        W 9142  18.188   5.796  25.507 -0.2746 -0.0109  0.2615
 6943W        W 9143  13.373   1.992  22.292 -0.0457  0.2190 -0.0562
 6944W        W 9144   7.777   3.511  29.681  0.3489  0.1860 -0.3078
 6945W        W 9145  18.535   1.339  34.795 -0.0850  0.2249  0.2487
 6946W        W 9146  21.086   2.569   9.477  0.0674  0.0648  0.2197
 6947W        W 9147   4.206   5.659  27.550 -0.1898  0.2342  0.0948
 6948W        W 9148  19.814   2.645  29.211  0.1341 -0.1320 -0.1552
 6949W        W 9149  17.442   5.769  28.443  0.0411 -0.0365  0.1400
 6950W        W 9150   8.384   3.525   3.369 -0.0635  0.0299 -0.1769
 6951W        W 9151  22.671   0.454  25.769 -0.3111 -0.1891  0.2305
 6952W        W 9152   8.164   3.104   3.265  0.1557 -0.0796  0.0738
 6953W        W 9153   3.344   3.302  34.397 -0.0056  0.0041  0.0073
 6954W        W 9154   0.868   6.013  25.054  0.0733  0.2720 -0.1437
 6955W        W 9155  16.383   5.089  26.078 -0.0371 -0.0199  0.0573
 6956W        W 9156  17.069   0.021  10.961 -0.0121 -0.1891 -0.0756
 6957W        W 9157   8.834   4.797   2.510  0.5536  0.1780 -0.1468
 6958W        W 9158  17.763   2.814  14.156  0.0517  0.0356  0.0065
 6959W        W 9159   4.173   5.883   1.838 -0.1296 -0.2944 -0.1578
 6960W        W 9160   0.060   1.614   9.756 -0.0487 -0.3074 -0.1901
 6961W        W 9161  12.129   4.783   9.556 -0.1135 -0.0096 -0.2435
 6962W        W 9162   3.649   3.518  15.256  0.3584 -0.0643 -0.0680
 6963W        W 9163   1.878   4.161  30.531  0.2657  0.0640  0.1869
 6964W        W 9164   4.457   1.488  23.725 -0.1933  0.0963  0.2495
 6965W        W 9165  21.875   4.572   4.798 -0.1541  0.2070  0.2683
 6966W        W 9166  24.601   3.269   4.741 -0.2326  0.1466  0.0245
 6967W        W 9167  21.512   2.313   9.114 -0.0543  0.1988 -0.1604
 6968W        W 9168  11.259   5.658  23.944 -0.1883  0.0566  0.4438
 6969W        W 9169  20.734   1.274  26.850 -0.0237 -0.0737 -0.1670
 6970W        W 9170  20.245   2.820   2.959 -0.0220  0.0275 -0.1271
 6971W        W 9171  14.760   5.329   9.821  0.0009  0.0608  0.2774
 6972W        W 9172  24.918   0.464  35.268 -0.0772  0.0500 -0.0157
 6973W        W 9173  15.782   4.507  35.929  0.1055 -0.1559 -0.2235
 6974W        W 9174  16.926   5.558   5.671 -0.0592 -0.3942 -0.0865
 6975W        W 9175  25.051   1.233  25.831 -0.3462  0.3006 -0.1556
 6976W        W 9176  24.832   5.043  27.022  0.0939  0.0513 -0.0750
 6977W        W 9177  18.768   1.630   9.179  0.0131  0.0675  0.2473
 6978W        W 9178   2.535   1.463  35.816 -0.0069  0.0708 -0.1775
 6979W        W 9179  13.747   0.622  32.285  0.0167  0.1644 -0.2204
 6980W        W 9180  25.809   2.353  25.972 -0.2165  0.0449  0.1710
 6981W        W 9181   5.474   3.934   5.298  0.2137 -0.0035 -0.2466
 6982W        W 9182  17.951   4.157  13.547  0.0587  0.0574 -0.5184
 6983W        W 9183  23.510   1.837  35.224  0.3237  0.0081 -0.1620
 6984W        W 9184   4.086   0.581  26.890 -0.0110 -0.0519 -0.0724
 6985W        W 9185   0.808   3.184  23.096 -0.2813  0.1712 -0.0172
 6986W        W 9186  12.409   4.864   5.078  0.0075  0.2474  0.0969
 6987W        W 9187   2.091   1.732  28.068  0.3077 -0.0927  0.0731
 6988W        W 9188  15.925   1.535  33.474  0.0511  0.1473 -0.4517
 6989W        W 9189  14.053   0.543  30.720 -0.2511 -0.1654 -0.4704
 6990W        W 9190  14.101   4.532  14.176  0.1563  0.0827  0.0774
 6991W        W 9191   9.208   6.407  24.325  0.0856 -0.0195 -0.1809
 6992W        W 9192  21.259   2.703   4.570  0.0644 -0.1588  0.3002
 6993W        W 9193   7.272   6.143  30.607  0.1241 -0.1071  0.1739
 6994W        W 9194  12.449   4.579   4.052  0.0239 -0.2240 -0.1475
 6995W        W 9195  22.440   3.980  28.256  0.0453 -0.1241  0.1228
 6996W        W 9196   7.981   3.179  33.149 -0.1337 -0.0215 -0.2299
 6997W        W 9197   4.111   1.130  13.174 -0.0763  0.4392  0.0580
 6998W        W 9198  11.511   2.626  12.735  0.2044  0.0213  0.1496
 6999W        W 9199   6.781   3.674  33.876  0.0862 -0.0317  0.0487
 7000W        W 9200  11.742   0.566  21.847 -0.0234  0.2623 -0.0116
 7001W        W 9201  25.811   2.987   7.335 -0.0123  0.2875  0.4085
 7002W        W 9202   8.210   5.282  27.527  0.3106  0.0314  0.0862
 7003W        W 9203   5.566   3.136  25.489 -0.2262 -0.2054 -0.1671
 7004W        W 9204  24.431   2.808   6.688 -0.1218  0.4211  0.1600
 7005W        W 9205  24.147   0.218  23.567 -0.1351  0.1284  0.0629
 7006W        W 9206  20.715   2.156   1.948 -0.1336 -0.1046 -0.1872
 7007W        W 9207  20.103   1.291  22.896  0.1353 -0.1283 -0.0297
 7008W        W 9208  11.261   4.773  10.423  0.0428  0.0355  0.0959
 7009W        W 9209  20.668   0.119   9.124  0.0682  0.2152 -0.2125
 7010W        W 9210  17.913   2.572  33.176  0.1743  0.0044  0.0403
 7011W        W 9211  13.372   4.059  30.853 -0.0739  0.2449  0.3216
 7012W        W 9212   0.975   6.391  33.829  0.2768 -0.1640 -0.0915
 7013W        W 9213  24.411   4.061   0.973 -0.1034  0.1326 -0.1438
 7014W        W 9214  23.695   0.370   4.117  0.0499 -0.0693  0.2874
 7015W        W 9215  10.034   6.082  25.893  0.1459  0.2643  0.2362
 7016W        W 9216  14.500   4.434   5.929 -0.1061  0.1692  0.2312
 7017W        W 9217   3.965   0.383  27.353  0.0703  0.0417 -0.1438
 7018W        W 9218   4.677   1.398   7.049  0.0041  0.1191 -0.5023
 7019W        W 9219   7.880   2.570  23.227  0.1601  0.2805  0.2717
 7020W        W 9220   4.236   0.892   6.045 -0.1970 -0.0754 -0.0592
 7021W        W 9221  14.300   6.311  32.790 -0.1210 -0.1777 -0.3394
 7022W        W 9222   7.026   0.988   6.935  0.2049 -0.2038  0.2744
 7023W        W 9223  16.766   4.241  28.228 -0.0998 -0.0350 -0.2090
 7024W        W 9224  13.012   4.959  26.496  0.1677 -0.2457 -0.1651
 7025W        W 9225   9.536   1.496  15.381 -0.1242 -0.4194  0.0914
 7026W        W 9226  21.487   5.657  11.331  0.2366 -0.1770 -0.0306
 7027W        W 9227  21.423   3.717  22.910  0.2392 -0.0908  0.0700
 7028W        W 9228  20.271   0.802  33.440  0.1945 -0.0261  0.1334
 7029W        W 9229   6.529   5.381  12.402 -0.2363  0.1036 -0.0593
 7030W        W 9230  19.392   1.172   3.761  0.2536 -0.0089 -0.1232
 7031W        W 9231  13.795   4.750  30.556  0.1784  0.4321 -0.1795
 7032W        W 9232   0.595   2.661  12.360  0.2892 -0.0902 -0.0044
 7033W        W 9233   2.739   1.535  32.657 -0.0199 -0.1534 -0.1420
 7034W        W 9234  13.789   3.829   4.268  0.1978  0.2794  0.0953
 7035W        W 9235  23.889   4.934  21.950 -0.1719  0.0495 -0.1607
 7036W        W 9236   7.194   5.452   4.626 -0.1848  0.1312 -0.3970
 7037W        W 9237  21.195   2.418  12.262  0.0053 -0.4749 -0.1910
 7038W        W 9238  26.285   0.231   6.744 -0.1020  0.1867  0.1448
 7039W        W 9239  10.793   0.420  21.673  0.1228  0.0762  0.1480
 7040W        W 9240   6.322   5.697  30.446  0.0326 -0.0824 -0.0059
 7041W        W 9241  22.552   5.931  22.853  0.3894  0.2291  0.0770
 7042W        W 9242  21.673   2.126  34.823 -0.0236 -0.1040  0.0535
 7043W        W 9243  23.420   0.864  26.709 -0.1335 -0.0346  0.2095
 7044W        W 9244  26.072   5.005  20.663  0.1070  0.0676 -0.1167
 7045W        W 9245   0.541   2.806  10.740  0.1440  0.3256 -0.3598
 7046W        W 9246  17.658   5.020   9.416 -0.0927 -0.2040 -0.1537
 7047W        W 9247   1.624   5.634  23.494 -0.0299 -0.3878  0.2082
 7048W        W 9248  25.737   1.023  26.321 -0.3933  0.3547 -0.1339
 7049W        W 9249  22.830   1.562  27.011  0.1874 -0.0878  0.1290
 7050W        W 9250  20.303   5.602  21.151  0.1799 -0.0923 -0.1097
 7051W        W 9251   5.240   2.405   8.481 -0.0043  0.0699 -0.2157
 7052W        W 9252  22.363   3.619  33.834  0.3942  0.1052  0.3232
 7053W        W 9253   9.896   3.633  33.174  0.1951 -0.1845 -0.2312
 7054W        W 9254   2.235   3.735   8.723  0.0400 -0.2411 -0.1345
 7055W        W 9255  23.267   5.896  13.413  0.2562  0.0967 -0.1185
 7056W        W 9256  21.175   0.242   2.201 -0.3667  0.2825 -0.2745
 7057W        W 9257  13.905   0.113  28.670  0.0545  0.0190 -0.0326
 7058W        W 9258  19.357   1.170  32.190 -0.0126  0.0668 -0.0843
 7059W        W 9259   2.255   2.317  28.726 -0.1017  0.0902  0.3386
 7060W        W 9260   9.611   5.533   8.694  0.0380 -0.2810 -0.0572
 7061W        W 9261   6.700   4.519   4.805  0.0529  0.1301 -0.0367
 7062W        W 9262   1.461   4.057   9.912  0.2857 -0.0236  0.1558
 7063W        W 9263  22.852   2.415  32.484  0.2751  0.0224 -0.1613
 7064W        W 9264   4.546   1.172   9.310 -0.1265 -0.0084 -0.0284
 7065W        W 9265  15.443   3.045   2.026  0.0960 -0.0737 -0.0170
 7066W        W 9266  19.207   2.684  21.748 -0.2060  0.0564 -0.2487
 7067W        W 9267  16.805   4.200  23.585 -0.0435  0.0585  0.1088
 7068W        W 9268  15.911   4.285  33.801 -0.3155  0.0739 -0.3191
 7069W        W 9269   7.568   5.797   1.153 -0.0506 -0.1110 -0.1204
 7070W        W 9270  20.160   2.590   1.479 -0.0962  0.2692  0.2840
 7071W        W 9271  19.444   1.231  27.667  0.1154  0.1360 -0.0533
 7072W        W 9272   6.443   5.065   2.261  0.1479 -0.2077  0.0034
 7073W        W 9273   6.409   0.500  24.831 -0.1174  0.2292 -0.0686
 7074W        W 9274   3.728   6.472   7.422 -0.0359  0.1805 -0.0312
 7075W        W 9275   2.732   3.332   2.405 -0.1398 -0.2118 -0.1550
 7076W        W 9276   0.962   3.510   9.285  0.0371  0.2152  0.0939
 7077W        W 9277  19.514   2.268   2.887  0.0165 -0.3829 -0.1324
 7078W        W 9278  11.323   4.467   0.142 -0.1150  0.0689 -0.0328
 7079W        W 9279  22.934   3.593  21.048 -0.2235 -0.0357 -0.3413
 7080W        W 9280  12.234   0.945  22.923  0.1882 -0.0078  0.0785
 7081W        W 9281  19.379   3.614  13.959 -0.0171 -0.0427  0.2607
 7082W        W 9282   4.279   5.019   2.867 -0.1036 -0.2111  0.0575
 7083W        W 9283  22.591   6.046  32.003 -0.0196  0.2031 -0.0224
 7084W        W 9284   4.932   6.529  33.449 -0.1274 -0.1016  0.0276
 7085W        W 9285  11.336   0.590  13.818 -0.0733  0.0984 -0.1354
 7086W        W 9286  19.107   5.886   7.101  0.1429  0.1452  0.0625
 7087W        W 9287  11.222   4.639  13.143 -0.3555 -0.0157  0.0950
 7088W        W 9288   9.536   0.793   2.756  0.2667 -0.0254 -0.2232
 7089W        W 9289  10.111   0.627   9.132  0.0513 -0.3148  0.2738
 7090W        W 9290  15.419   5.237   5.092 -0.1086  0.2829 -0.3391
 7091W        W 9291  13.728   1.126  11.115  0.1647 -0.0891 -0.0180
 7092W        W 9292   3.666   1.245   8.014 -0.2246  0.2174 -0.3003
 7093W        W 9293  15.146   3.661   7.649  0.0623 -0.0929  0.0357
 7094W        W 9294   1.311   1.980  11.168  0.0209 -0.1256 -0.1374
 7095W        W 9295   4.923   2.606  32.094 -0.0728 -0.3224  0.0807
 7096W        W 9296  17.151   0.939  13.605  0.0212  0.0458  0.0670
 7097W        W 9297  16.062   1.395  23.836 -0.1094 -0.2900  0.2136
 7098W        W 9298  21.629   2.716  27.587 -0.0183  0.0407  0.2974
 7099W        W 9299  18.106   2.167   2.883 -0.1312  0.0493 -0.0603
 7100W        W 9300  15.709   2.814  35.735 -0.1061  0.2265 -0.1754
 7101W        W 9301   4.291   2.284  25.042  0.1635  0.0370  0.0350
 7102W        W 9302  17.823   2.071  14.726  0.0158 -0.3809  0.2214
 7103W        W 9303  16.757   1.978  20.466  0.1826  0.2966  0.1503
 7104W        W 9304  10.446   2.909  26.254  0.0328  0.1563  0.0183
 7105W        W 9305   0.995   5.777  34.462  0.0599  0.1328  0.0711
 7106W        W 9306  24.294   6.417  30.840  0.2018  0.1451  0.1293
 7107W        W 9307  16.780   2.528  30.542 -0.1023  0.1559 -0.1263
 7108W        W 9308   3.427   0.612  27.557 -0.1753 -0.1982  0.0717
 7109W        W 9309  25.122   2.389   7.260  0.0474  0.0798 -0.1536
 7110W        W 9310   0.512   2.111  32.352  0.0489 -0.1407 -0.2572
 7111W        W 9311   6.634   0.467   9.454  0.2116 -0.1149  0.2670
 7112W        W 9312   0.311   3.157   7.276  0.1355  0.2124 -0.0747
 7113W        W 9313  17.369   1.591  12.377 -0.4785  0.0462  0.0395
 7114W        W 9314  13.581   2.668   2.570  0.0209  0.1439  0.2382
 7115W        W 9315  17.111   4.550  10.182 -0.1962  0.1565 -0.3488
 7116W        W 9316   4.812   4.312  27.002  0.1144 -0.0207  0.1792
 7117W        W 9317  15.896   3.759  25.057  0.0918 -0.0614  0.1963
 7118W        W 9318  11.721   0.821  13.449 -0.3477 -0.0942 -0.3374
 7119W        W 9319  13.201   6.571   6.762 -0.1700 -0.0090  0.1984
 7120W        W 9320  10.639   2.730  35.903  0.1822  0.0916 -0.0274
 7121W        W 9321  14.933   3.882  14.756 -0.1478 -0.2595  0.0658
 7122W        W 9322  25.746   3.035  35.088  0.1012  0.0230 -0.0040
 7123W        W 9323  23.163   2.671  34.398  0.2669 -0.0343  0.1075
 7124W        W 9324  19.226   1.845  30.959 -0.0780 -0.0566 -0.2509
 7125W        W 9325   5.368   6.253  35.646  0.0386 -0.3712  0.5077
 7126W        W 9326   2.093   0.350  10.519  0.0075 -0.0283 -0.0620
 7127W        W 9327   9.658   2.557   6.501 -0.0532 -0.3451  0.0798
 7128W        W 9328  21.362   2.155  31.166  0.0950 -0.1077  0.1859
 7129W        W 9329   5.237   4.886  21.872 -0.0692  0.2332 -0.2399
 7130W        W 9330  10.575   4.250   7.073 -0.3926 -0.1624 -0.0378
 7131W        W 9331   0.586   2.876  22.740 -0.2398 -0.0322 -0.0589
 7132W        W 9332  12.033   5.085  32.605  0.0133 -0.1648 -0.0264
 7133W        W 9333   7.665   0.420   6.507  0.1801  0.3408  0.0076
 7134W        W 9334   0.832   4.670  14.419  0.0714  0.1285  0.1378
 7135W        W 9335  21.511   0.588   2.989 -0.1614 -0.2357 -0.0074
 7136W        W 9336   6.559   5.836  13.693 -0.2561  0.0217  0.0214
 7137W        W 9337   3.039   1.944  13.942 -0.0320 -0.0814  0.2927
 7138W        W 9338  12.407   4.661  22.744  0.1971 -0.0230  0.2044
 7139W        W 9339  21.896   0.505   2.592  0.0500 -0.1096  0.0925
 7140W        W 9340  21.576   0.244  12.142 -0.1807  0.2099 -0.1771
 7141W        W 9341   1.085   3.585  26.505  0.0498  0.1133  0.1849
 7142W        W 9342  20.870   3.712  31.768 -0.0335  0.0231  0.2934
 7143W        W 9343   9.468   2.340  14.348  0.0126 -0.0471 -0.1521
 7144W        W 9344  22.589   1.508  29.242 -0.2189  0.0951 -0.2282
 7145W        W 9345   2.661   4.421  25.158 -0.2178 -0.2820 -0.0422
 7146W        W 9346   4.152   6.601  21.517 -0.3050 -0.1481  0.2064
 7147W        W 9347  25.446   1.134   3.058 -0.0837 -0.0674  0.0623
 7148W        W 9348   6.971   1.899  35.168  0.0999 -0.2154 -0.4425
 7149W        W 9349  25.616   3.268   3.558  0.0423  0.0319 -0.2354
 7150W        W 9350  18.688   2.189  23.867 -0.0089 -0.3639  0.2889
 7151W        W 9351   1.240   1.440   0.234 -0.0302 -0.0007 -0.1561
 7152W        W 9352  25.486   0.543   3.967  0.1629 -0.0968  0.1009
 7153W        W 9353  18.675   3.169   3.274 -0.0565  0.0846  0.2668
 7154W        W 9354  12.689   1.083   4.096 -0.0089 -0.0363  0.0153
 7155W        W 9355  18.116   5.994  13.160  0.0121 -0.1972 -0.0664
 7156W        W 9356   5.405   5.412   3.808  0.3480  0.2313 -0.0199
 7157W        W 9357   8.747   0.599   7.191 -0.1448 -0.0535 -0.0902
 7158W        W 9358  12.217   6.369   3.262 -0.0347 -0.2706 -0.1828
 7159W        W 9359  22.761   2.386  10.124 -0.0260  0.0924 -0.0801
 7160W        W 9360  19.220   4.268   7.967  0.1713 -0.1161 -0.3125
 7161W        W 9361   4.363   3.309   7.032 -0.2221 -0.0266 -0.0708
 7162W        W 9362  21.648   5.523  25.487  0.2904 -0.0203  0.0038
 7163W        W 9363  20.883   3.298  10.695  0.0437  0.0987  0.0376
 7164W        W 9364   2.338   2.918   0.053  0.1339 -0.0575  0.3969
 7165W        W 9365   4.286   0.577   2.851 -0.0687  0.1357  0.2236
 7166W        W 9366   6.200   5.652   8.576 -0.0643  0.1767 -0.0917
 7167W        W 9367   2.139   0.908  33.344 -0.0187  0.1353 -0.2412
 7168W        W 9368  12.821   4.947  25.545 -0.0990 -0.1737 -0.0732
 7169W        W 9369  12.796   2.388  33.352 -0.3143  0.0477  0.1281
 7170W        W 9370   7.460   5.618  35.110 -0.0512  0.2278 -0.0532
 7171W        W 9371  24.759   3.410  34.316  0.1911  0.1605  0.1107
 7172W        W 9372  11.964   0.346   3.726  0.0365  0.2837 -0.3301
 7173W        W 9373  11.157   6.234  27.987  0.1673 -0.1634  0.1819
 7174W        W 9374  19.596   3.781  24.288  0.0604  0.0120 -0.1750
 7175W        W 9375   9.706   3.478  21.310 -0.1984 -0.0820 -0.0179
 7176W        W 9376  15.590   3.370  14.511 -0.0616 -0.2235  0.0531
 7177W        W 9377  14.739   4.118   2.389 -0.2536 -0.1449 -0.3971
 7178W        W 9378  14.486   2.555  21.239  0.3795 -0.1339  0.0317
 7179W        W 9379  17.862   6.282   6.728  0.0082  0.2839 -0.1331
 7180W        W 9380   2.834   2.048  31.981 -0.0813 -0.2291  0.2825
 7181W        W 9381  16.876   2.424  23.020 -0.0482  0.2129  0.0332
 7182W        W 9382  22.411   0.594  27.669  0.0078  0.2436 -0.2568
 7183W        W 9383  17.528   6.494   4.136  0.2275 -0.2569 -0.0914
 7184W        W 9384  23.657   2.802  11.346 -0.1440 -0.0672  0.0556
 7185W        W 9385   5.652   5.564  32.080 -0.0237  0.1982  0.1741
 7186W        W 9386   3.297   1.333  14.802  0.0897 -0.1689  0.0020
 7187W        W 9387   8.196   0.504  30.717 -0.1859 -0.0321  0.1827
 7188W        W 9388  23.245   3.333  13.385 -0.0285  0.1721 -0.1698
 7189W        W 9389   8.655   0.143  14.024 -0.1069  0.4241  0.1948
 7190W        W 9390   7.885   4.508   5.628 -0.0189  0.2608  0.2687
 7191W        W 9391   5.297   1.935  34.676  0.1150  0.0601  0.0876
 7192W        W 9392   3.094   1.143   0.816 -0.0059 -0.0993  0.1225
 7193W        W 9393   2.486   0.255   9.311 -0.0740  0.1274  0.1156
 7194W        W 9394   5.297   2.245   3.125 -0.0948 -0.0557  0.0108
 7195W        W 9395   8.036   1.559   5.206  0.4825 -0.1173 -0.2772
 7196W        W 9396  19.086   0.560  21.197 -0.0817 -0.1623  0.0281
 7197W        W 9397  16.239   2.209   2.862 -0.4156 -0.1060  0.2136
 7198W        W 9398  20.560   5.848  14.725  0.0578 -0.1389  0.1259
 7199W        W 9399   6.272   1.945  25.910 -0.1586  0.2111  0.0058
 7200W        W 9400   3.362   6.359  31.027 -0.2794 -0.2425  0.2585
 7201W        W 9401   0.044   4.430  23.473 -0.0165 -0.2564 -0.1108
 7202W        W 9402   0.353   1.528  16.108 -0.0596  0.0069 -0.0676
 7203W        W 9403  14.403   2.750   8.461  0.2702 -0.0216  0.2438
 7204W        W 9404  12.170   5.511   7.125 -0.1195  0.0325  0.1153
 7205W        W 9405  25.926   1.482   8.386 -0.6534  0.0898  0.1259
 7206W        W 9406  15.155   4.959  34.298 -0.0944  0.4312  0.1350
 7207W        W 9407   2.181   4.864  22.359 -0.0978 -0.0229 -0.0165
 7208W        W 9408   3.094   2.116  11.338 -0.1594  0.2012  0.1972
 7209W        W 9409  19.006   1.986  11.778  0.0454  0.0212 -0.0993
 7210W        W 9410  10.178   6.473   8.246  0.1319  0.1097 -0.2262
 7211W        W 9411   2.517   6.093  11.338  0.0296  0.0339  0.0085
 7212W        W 9412  21.341   4.917  10.532  0.0566 -0.0422  0.1674
 7213W        W 9413  17.371   2.652  11.382  0.0029 -0.0477 -0.0108
 7214W        W 9414  15.267   2.954  25.194 -0.0004 -0.2498 -0.1265
 7215W        W 9415  10.906   3.371  25.643  0.0472 -0.1544 -0.1307
 7216W        W 9416   8.254   2.101  12.302  0.0786  0.4570 -0.3177
 7217W        W 9417  22.535   5.351   1.430 -0.1660 -0.2789  0.0683
 7218W        W 9418   6.863   1.429   2.081  0.0706 -0.0503  0.0701
 7219W        W 9419   8.951   2.565   3.473 -0.0255  0.3442  0.1592
 7220W        W 9420  20.660   2.222  35.003 -0.2392 -0.4248 -0.0335
 7221W        W 9421   1.024   4.410  11.621  0.0359  0.1203  0.0007
 7222W        W 9422  11.278   4.850   0.481 -0.1074  0.0517  0.1918
 7223W        W 9423   1.122   2.148  21.116  0.0310 -0.0085  0.1598
 7224W        W 9424   2.732   6.494   9.095 -0.1489  0.1944 -0.1310
 7225W        W 9425  20.017   2.689  28.297 -0.0299  0.3322  0.0391
 7226W        W 9426  11.769   0.079  32.185 -0.1266 -0.2997 -0.1033
 7227W        W 9427   3.484   5.170  25.315  0.0400 -0.2887  0.2840
 7228W        W 9428   7.350   6.460  14.249  0.0859 -0.0932 -0.1852
 7229W        W 9429  25.735   6.143  20.391 -0.0791 -0.0609 -0.2435
 7230W        W 9430  13.132   2.333  28.420 -0.3207  0.2054  0.1918
 7231W        W 9431  17.327   6.073  25.799  0.0128  0.0029 -0.1557
 7232W        W 9432  15.250   0.072  29.056 -0.1295  0.2838 -0.2805
 7233W        W 9433   5.592   4.651   3.144  0.0419 -0.0746 -0.3832
 7234W        W 9434   4.739   3.315  31.928  0.1949  0.0639  0.0640
 7235W        W 9435   3.861   5.965  21.179  0.3082 -0.0771  0.1010
 7236W        W 9436  20.113   6.025  33.346  0.0380 -0.1112 -0.0013
 7237W        W 9437   9.450   4.010  11.351 -0.0851  0.3049  0.0270
 7238W        W 9438  10.148   0.502   9.951 -0.1655 -0.1598 -0.0486
 7239W        W 9439   9.270   0.014   3.030 -0.0202 -0.3741 -0.0987
 7240W        W 9440  13.824   2.146  16.190  0.3229  0.3322  0.0551
 7241W        W 9441  15.518   5.910   5.308  0.0381  0.0581  0.3975
 7242W        W 9442   7.281   4.922  11.185  0.0497  0.0330  0.0350
 7243W        W 9443  18.018   0.018  20.879 -0.1369 -0.0986  0.4584
 7244W        W 9444  22.968   0.585  27.517 -0.0218 -0.4653  0.0911
 7245W        W 9445  21.620   2.590  28.097  0.1212  0.0462 -0.1994
 7246W        W 9446  22.930   5.414   3.956  0.0520 -0.0294 -0.0312
 7247W        W 9447   9.327   2.843  27.005  0.0353  0.0248  0.3262
 7248W        W 9448  17.397   5.592  27.122  0.0159  0.0787  0.0259
 7249W        W 9449   4.363   1.513  24.342  0.1022  0.0795 -0.3367
 7250W        W 9450  22.150   5.966  29.696 -0.0248  0.0786 -0.1461
 7251W        W 9451   8.003   0.674  26.771  0.0166  0.1104 -0.2097
 7252W        W 9452   2.028   5.009  30.352  0.0364 -0.0177 -0.1387
 7253W        W 9453  20.828   2.605  29.008 -0.0849  0.1502 -0.0428
 7254W        W 9454   3.709   2.655  27.084 -0.0182 -0.1085 -0.4250
 7255W        W 9455   9.039   3.358   3.917  0.0969  0.0682 -0.0446
 7256W        W 9456  10.457   1.026  14.571 -0.1312  0.0647 -0.1083
 7257W        W 9457  23.553   6.398  27.357 -0.1465 -0.1755  0.0908
 7258W        W 9458  16.895   1.690  14.558  0.0836 -0.3248 -0.0928
 7259W        W 9459   9.458   4.395  25.566  0.1378 -0.1017 -0.0576
 7260W        W 9460  17.294   2.511   3.577 -0.1392 -0.4241 -0.1653
 7261W        W 9461  21.183   3.573  30.498  0.3219 -0.0886 -0.0620
 7262W        W 9462  25.954   5.380  11.120  0.0282 -0.1025  0.1328
 7263W        W 9463  23.038   3.053  29.712 -0.3270  0.0253 -0.0313
 7264W        W 9464   8.078   5.204   1.362 -0.0607 -0.3530 -0.1408
 7265W        W 9465   0.815   1.581   2.270  0.0122 -0.0076  0.1147
 7266W        W 9466   0.111   4.483   4.844 -0.1067  0.0843 -0.1071
 7267W        W 9467   0.596   5.505  26.987  0.1083 -0.2891 -0.1139
 7268W        W 9468   2.030   5.375  24.888 -0.1167 -0.1427  0.0603
 7269W        W 9469  18.372   0.587  28.912  0.1313  0.0143 -0.3051
 7270W        W 9470  19.077   5.680  25.696 -0.1390 -0.2820  0.3901
 7271W        W 9471  11.183   0.799  32.075 -0.0846 -0.0731 -0.4034
 7272W        W 9472  25.873   2.390  12.766 -0.5527  0.4185  0.2379
 7273W        W 9473   1.398   0.030  28.888  0.0206 -0.1702  0.1183
 7274W        W 9474  18.098   4.035   0.947  0.0535 -0.1207  0.0598
 7275W        W 9475   4.806   1.916  22.044 -0.2349  0.3113  0.0973
 7276W        W 9476  25.560   4.329  22.578 -0.3120  0.0992 -0.5134
 7277W        W 9477   8.100   4.300  32.528  0.0277  0.0325 -0.0150
 7278W        W 9478   8.241   4.058  23.148  0.1258  0.1451 -0.4044
 7279W        W 9479   0.927   3.026  12.373 -0.0652  0.0064 -0.3052
 7280W        W 9480   2.423   5.626   2.697  0.4305 -0.1972  0.1315
 7281W        W 9481  21.128   4.149   7.557  0.1729 -0.0285 -0.1485
 7282W        W 9482   1.567   1.939  34.636  0.0074 -0.0939  0.0036
 7283W        W 9483   6.724   2.713   5.772  0.1264  0.1751 -0.0942
 7284W        W 9484  23.719   3.381   4.242 -0.0083  0.0593 -0.0977
 7285W        W 9485  12.612   0.857  35.442  0.2018  0.0811  0.1011
 7286W        W 9486  18.735   0.174  30.318  0.1164  0.2218 -0.2539
 7287W        W 9487  16.415   6.435  21.061 -0.0595 -0.2825 -0.1117
 7288W        W 9488   2.100   6.498  35.495  0.1541  0.0945  0.1753
 7289W        W 9489   3.949   1.321  13.999 -0.3011 -0.0356  0.2294
 7290W        W 9490  18.103   4.265  29.282 -0.0850  0.0759  0.4913
 7291W        W 9491  17.598   4.386  30.920 -0.2443 -0.3552  0.3853
 7292W        W 9492  16.136   5.735  29.471 -0.0052 -0.0310  0.0194
 7293W        W 9493  17.081   6.129  23.565 -0.0265 -0.0387 -0.1216
 7294W        W 9494  23.059   2.070  33.565  0.2462 -0.0194 -0.0397
 7295W        W 9495  12.199   6.471  10.506 -0.0788 -0.1197  0.0945
 7296W        W 9496   4.960   2.773  33.148  0.2063  0.1207 -0.1770
 7297W        W 9497   8.585   0.090  32.984  0.1275  0.0323  0.2539
 7298W        W 9498   3.100   2.018   3.810  0.0353  0.1309  0.1138
 7299W        W 9499  24.655   3.013   2.375  0.1393 -0.0831 -0.0350
 7300W        W 9500  21.649   0.062  29.546  0.4000 -0.2389 -0.1422
 7301W        W 9501   9.580   6.338  32.739 -0.0229 -0.2515 -0.0912
 7302W        W 9502  25.270   5.131  12.502  0.1370 -0.1914 -0.0308
 7303W        W 9503  16.793   6.382  26.377 -0.0180  0.4052 -0.0088
 7304W        W 9504   1.042   4.967  21.376  0.2506 -0.0164  0.1645
 7305W        W 9505  26.264   4.797  33.894  0.6209 -0.2764 -0.2676
 7306W        W 9506   7.619   1.442  35.095 -0.0986  0.2538  0.0311
 7307W        W 9507  11.046   6.282  12.011  0.1712  0.2900 -0.0050
 7308W        W 9508   8.915   3.692   7.700  0.0692 -0.3086  0.0509
 7309W        W 9509  10.189   3.840   5.206 -0.0441 -0.0426 -0.0455
 7310W        W 9510  10.636   5.728  35.011  0.0056  0.3767 -0.0163
 7311W        W 9511   8.910   4.104   7.294  0.0819  0.0326  0.0422
 7312W        W 9512  11.294   0.362  26.938  0.0461 -0.0296  0.2213
 7313W        W 9513  18.158   2.090  10.568  0.3325  0.0879  0.0460
 7314W        W 9514   3.909   6.589   5.328  0.1206 -0.1395 -0.2470
 7315W        W 9515   5.171   5.684   3.016 -0.0755  0.1671  0.0646
 7316W        W 9516  23.699   6.517  33.095 -0.3066  0.1115  0.0657
 7317W        W 9517   7.615   5.172  22.727  0.3359 -0.2602 -0.2577
 7318W        W 9518   3.357   1.562  29.501 -0.2666 -0.1492  0.1402
 7319W        W 9519   7.932   2.833   3.590  0.2932  0.2438 -0.0676
 7320W        W 9520  22.321   5.522  24.176 -0.0434  0.1840 -0.1166
 7321W        W 9521  14.685   6.362   8.978  0.0296 -0.1392  0.0184
 7322W        W 9522   1.070   6.475  25.660 -0.1845  0.0298 -0.0366
 7323W        W 9523  20.201   2.791  31.784  0.0004 -0.3599 -0.0937
 7324W        W 9524   4.676   4.268  33.016 -0.2748 -0.0920  0.1036
 7325W        W 9525   8.697   6.228  30.677 -0.3047 -0.1945 -0.1319
 7326W        W 9526   5.749   4.398  30.860  0.1938  0.0997  0.0443
 7327W        W 9527  19.471   0.166   9.569 -0.0544  0.0042 -0.1173
 7328W        W 9528  25.782   2.696  29.221 -0.0674  0.1333 -0.1507
 7329W        W 9529  19.647   4.931  26.699 -0.1308  0.1261 -0.0124
 7330W        W 9530   4.954   2.439  24.770 -0.0862 -0.1360  0.3469
 7331W        W 9531   6.534   4.985  21.376  0.0865  0.0073 -0.0065
 7332W        W 9532  15.419   5.191  12.414  0.0318  0.1289  0.0036
 7333W        W 9533  15.551   5.541   2.905  0.0605 -0.0873  0.1401
 7334W        W 9534  10.844   5.989   5.714  0.2331 -0.1807  0.1875
 7335W        W 9535   9.608   4.419  31.839  0.1912 -0.0639 -0.1535
 7336W        W 9536  22.597   2.486  21.030 -0.0078 -0.1150  0.0625
 7337W        W 9537  16.918   5.708  30.723  0.0605  0.3508  0.2747
 7338W        W 9538  21.565   0.955  15.007 -0.1606 -0.2645 -0.0061
 7339W        W 9539  13.849   3.457  13.543 -0.0476 -0.0437  0.0656
 7340W        W 9540   0.598   2.674   3.086  0.1595  0.1862 -0.1288
 7341W        W 9541   0.092   3.519  23.296 -0.0171  0.1596  0.1017
 7342W        W 9542   2.002   4.895  34.018  0.0398 -0.0432  0.3107
 7343W        W 9543   8.988   6.167  12.100  0.0897  0.1441 -0.0015
 7344W        W 9544  15.582   3.573  32.823  0.3460 -0.1673 -0.0223
 7345W        W 9545   3.677   6.378   0.958  0.1912 -0.0769  0.0395
 7346W        W 9546  22.900   6.223   5.950 -0.4134 -0.0850 -0.1796
 7347W        W 9547  11.461   2.076  14.338 -0.0055 -0.2027 -0.2798
 7348W        W 9548  11.070   6.398   2.397  0.2194  0.0725 -0.3640
 7349W        W 9549   5.839   1.642  24.850 -0.2651 -0.2726  0.1008
 7350W        W 9550   1.975   5.502  12.663  0.2569  0.1242 -0.1124
 7351W        W 9551   2.913   1.422  26.899  0.2051 -0.0191 -0.2097
 7352W        W 9552  22.202   2.335  13.590  0.2744 -0.0813 -0.1495
 7353W        W 9553   0.532   4.584  13.907 -0.0498 -0.0357  0.0293
 7354W        W 9554  15.604   5.387  28.354 -0.1098 -0.1595  0.2991
 7355W        W 9555  18.524   1.817   0.815 -0.0472  0.0861  0.2303
 7356W        W 9556   8.584   3.330  34.731 -0.2217 -0.0456  0.3111
 7357W        W 9557  11.209   1.336  21.200  0.1017  0.2422 -0.0719
 7358W        W 9558  19.337   0.501   5.728  0.2530 -0.0652 -0.0134
 7359W        W 9559  18.945   6.559   2.243  0.2694  0.0240 -0.1315
 7360W        W 9560  22.830   2.921  32.777  0.1103 -0.2320 -0.1745
 7361W        W 9561  15.711   6.053  24.908  0.2734 -0.1173 -0.0348
 7362W        W 9562   1.877   0.830   0.489  0.1183  0.3342  0.1133
 7363W        W 9563   9.906   3.113  31.051 -0.3753  0.0315 -0.0602
 7364W        W 9564  12.415   2.090   8.501 -0.2861 -0.0728  0.0592
 7365W        W 9565  20.392   0.836  25.780 -0.2182  0.0220  0.0356
 7366W        W 9566   8.384   5.701  33.172 -0.4004 -0.0517  0.0174
 7367W        W 9567   6.359   5.782  26.744 -0.2851 -0.0299  0.0170
 7368W        W 9568  26.373   4.162   2.904 -0.0385  0.1472 -0.0971
 7369W        W 9569  18.713   6.027  20.659 -0.1588 -0.0091 -0.1406
 7370W        W 9570  12.594   1.984  15.252  0.1056  0.0006 -0.0597
 7371W        W 9571  23.257   6.065  14.286  0.1273 -0.1185 -0.0571
 7372W        W 9572  15.177   3.431  15.416 -0.2983  0.0695  0.2038
 7373W        W 9573   3.583   4.599  25.152 -0.5067  0.0640 -0.1180
 7374W        W 9574   1.634   4.796  13.141  0.1348  0.3903  0.0123
 7375W        W 9575   6.415   0.686  32.918  0.3189  0.0376  0.1470
 7376W        W 9576   3.239   6.452  12.947  0.1314 -0.0405 -0.1225
 7377W        W 9577   6.653   0.882  31.026  0.1582 -0.0139  0.0647
 7378W        W 9578  10.013   5.917  24.537 -0.2806  0.3921 -0.0044
 7379W        W 9579  23.478   4.867   9.252 -0.0772  0.0314  0.1907
 7380W        W 9580   3.010   4.727  33.495 -0.0762 -0.0338  0.1160
 7381W        W 9581  21.946   3.235  27.089 -0.0720  0.1161  0.4384
 7382W        W 9582  14.863   0.395  13.676  0.1850 -0.1458  0.1989
 7383W        W 9583   4.423   4.758  28.643 -0.0234  0.0689 -0.1226
 7384W        W 9584  14.118   1.477  33.328 -0.3674 -0.3314  0.0519
 7385W        W 9585   4.244   5.437  35.951  0.4832  0.0739 -0.0064
 7386W        W 9586  23.049   3.886  28.994 -0.0830  0.0500 -0.1546
 7387W        W 9587  24.948   1.904   0.988  0.0631 -0.0763 -0.1601
 7388W        W 9588  23.300   2.509  25.978  0.0779  0.1186 -0.2874
 7389W        W 9589   5.337   4.635   2.672  0.0745 -0.1523 -0.1962
 7390W        W 9590   0.089   2.703  31.715  0.0955  0.0348  0.0019
 7391W        W 9591  25.851   6.323  34.419 -0.3478 -0.2537  0.1237
 7392W        W 9592  22.295   2.719  28.602 -0.0087  0.0081  0.1970
 7393W        W 9593   7.669   6.418  21.238  0.1215  0.0894 -0.0171
 7394W        W 9594   2.027   5.914  35.479  0.1137  0.1261  0.1111
 7395W        W 9595   3.852   2.204   4.481 -0.0919 -0.4366  0.0623
 7396W        W 9596  15.584   4.121  12.540  0.1343 -0.0940  0.0175
 7397W        W 9597   2.921   3.710  16.109  0.2308 -0.0568  0.0624
 7398W        W 9598   0.817   4.732   6.090  0.2744  0.0843 -0.0985
 7399W        W 9599  20.813   2.355  32.363 -0.1527 -0.1103  0.0460
 7400W        W 9600   4.220   5.605   5.236  0.0261  0.0307  0.1846
 7401W        W 9601  15.032   2.153   2.363  0.1608 -0.0398 -0.4141
 7402W        W 9602   2.678   5.657   4.785 -0.0693 -0.0308 -0.0310
 7403W        W 9603  11.080   3.464  14.568  0.1723 -0.2388  0.0739
 7404W        W 9604  19.238   5.047  26.969 -0.3762  0.1752 -0.1050
 7405W        W 9605  14.138   2.364   4.566  0.0151  0.0014 -0.0341
 7406W        W 9606   8.275   1.088  24.415 -0.0190  0.0790 -0.0127
 7407W        W 9607  25.468   5.257  13.635  0.0996  0.1602 -0.1267
 7408W        W 9608   0.329   5.444  32.407 -0.1625  0.1579  0.0330
 7409W        W 9609   7.271   3.100  26.391 -0.1708 -0.0010  0.1887
 7410W        W 9610  24.205   4.939  25.439  0.0434 -0.2993  0.0178
 7411W        W 9611  10.606   6.433  12.637 -0.3527  0.0737  0.1358
 7412W        W 9612  16.690   3.265   3.632  0.4358 -0.3294  0.2955
 7413W        W 9613   9.575   6.369   3.356 -0.1666 -0.1184  0.3642
 7414W        W 9614   2.986   5.934  21.712 -0.3060  0.1439 -0.3203
 7415W        W 9615  17.105   1.538  27.102 -0.0013  0.0625 -0.1905
 7416W        W 9616  19.659   4.730  29.940  0.0287 -0.0797  0.1703
 7417W        W 9617  13.234   2.266  10.105 -0.0207  0.0435  0.1099
 7418W        W 9618  18.826   1.425  24.668  0.1069  0.0508  0.1128
 7419W        W 9619   7.890   5.736  33.206 -0.2231 -0.0427 -0.2033
 7420W        W 9620  22.030   5.374  33.807 -0.3231  0.2579 -0.1949
 7421W        W 9621   7.579   3.027  14.509  0.1166  0.3360 -0.0825
 7422W        W 9622  19.932   5.979  13.009 -0.1814 -0.3967 -0.0775
 7423W        W 9623  19.696   1.511  22.610 -0.0702  0.3267 -0.0776
 7424W        W 9624  18.533   5.999   1.621  0.1263 -0.1947  0.1638
 7425W        W 9625   8.805   3.168  13.079  0.3408  0.0227 -0.1246
 7426W        W 9626   6.710   5.605  13.292  0.0230  0.2284  0.0182
 7427W        W 9627  13.303   2.525  25.439 -0.0698  0.0822 -0.1350
 7428W        W 9628  21.904   4.097  32.623  0.1100  0.3249 -0.1558
 7429W        W 9629   2.255   1.244  31.370  0.1241 -0.0373 -0.4981
 7430W        W 9630  15.694   3.770   0.579 -0.1086 -0.1817 -0.0342
 7431W        W 9631  20.410   2.317  33.607  0.0482 -0.0682 -0.0340
 7432W        W 9632   9.611   0.599  31.545 -0.3301 -0.0339 -0.1530
 7433W        W 9633  23.914   1.974  11.894 -0.0880  0.3294 -0.2408
 7434W        W 9634  20.192   4.988  31.979  0.1694 -0.2591 -0.1864
 7435W        W 9635   4.730   5.364   2.885  0.0669 -0.0433 -0.0888
 7436W        W 9636   1.653   3.630  10.274 -0.3958  0.0683  0.0593
 7437W        W 9637  22.644   3.010  35.135 -0.1274 -0.0496  0.1445
 7438W        W 9638  21.819   0.447  26.809 -0.0397 -0.0167  0.0608
 7439W        W 9639   7.378   2.989   8.281 -0.4613 -0.0136  0.1174
 7440W        W 9640   4.948   1.878  23.023 -0.1697 -0.1932  0.0454
 7441W        W 9641  16.311   1.504   7.358 -0.0787 -0.2454 -0.0824
 7442W        W 9642  23.291   2.273  35.038 -0.3084  0.0329  0.1326
 7443W        W 9643  17.057   0.292  23.464 -0.0586 -0.0753 -0.0312
 7444W        W 9644  20.035   1.147  21.702 -0.0257  0.0829 -0.0421
 7445W        W 9645   0.992   4.802  33.698 -0.0563 -0.0315 -0.1770
 7446W        W 9646  17.741   2.877  25.459  0.2663 -0.1710  0.0259
 7447W        W 9647  26.231   5.898  23.106  0.2111 -0.4366  0.0646
 7448W        W 9648  23.458   3.473   9.442  0.1604  0.1735 -0.1613
 7449W        W 9649  16.087   1.495  24.968  0.4164 -0.0583  0.1183
 7450W        W 9650  17.723   2.382  10.638  0.0185  0.0379 -0.1103
 7451W        W 9651  24.000   4.805   7.572  0.1235 -0.1322 -0.0943
 7452W        W 9652  22.437   1.227  26.839 -0.2149  0.0224  0.0630
 7453W        W 9653  17.062   2.527   1.901 -0.2101  0.0015  0.1218
 7454W        W 9654   9.468   0.441  31.067  0.2042 -0.2558  0.2961
 7455W        W 9655  22.198   6.406  24.768 -0.0526  0.0468  0.2298
 7456W        W 9656   9.311   2.603  23.192 -0.0611 -0.0443  0.1129
 7457W        W 9657  23.018   1.522  32.173  0.0061 -0.0294  0.5626
 7458W        W 9658  21.702   4.356   8.576  0.1162 -0.0797  0.0163
 7459W        W 9659   2.986   0.145  26.448  0.0153  0.1393  0.0793
 7460W        W 9660  22.745   0.940   8.675  0.0974  0.1253 -0.0784
 7461W        W 9661  19.359   2.266  35.811  0.0957  0.3146  0.0402
 7462W        W 9662  13.935   5.979  32.032  0.0781  0.0310  0.0313
 7463W        W 9663  12.298   3.821   3.091 -0.0783 -0.0466 -0.1949
 7464W        W 9664  11.821   0.331   1.458 -0.0330  0.0335 -0.2407
 7465W        W 9665   4.679   4.125  13.000  0.1079 -0.3369 -0.1364
 7466W        W 9666  16.797   5.283  35.268  0.1039  0.2105 -0.1475
 7467W        W 9667  26.128   5.459  28.029 -0.0543 -0.0629  0.0712
 7468W        W 9668   9.861   5.940  29.619 -0.0738  0.1516  0.1913
 7469W        W 9669   4.474   3.838  10.772 -0.0881  0.0095  0.0137
 7470W        W 9670  11.505   5.622   3.869  0.0208  0.2155  0.6377
 7471W        W 9671  18.615   0.774   6.716 -0.2726 -0.0717  0.0168
 7472W        W 9672  16.609   0.744   5.540  0.1696 -0.3205  0.2402
 7473W        W 9673  19.091   1.432   1.060 -0.3945  0.0186  0.2137
 7474W        W 9674   1.652   3.260   9.358 -0.0389  0.1170  0.1881
 7475W        W 9675  15.649   5.453   5.521 -0.0788 -0.2364 -0.0761
 7476W        W 9676   4.651   4.281  12.504 -0.1108 -0.0898 -0.3574
 7477W        W 9677  21.999   6.567   0.594 -0.0424 -0.0706  0.1781
 7478W        W 9678   1.824   4.568  30.160  0.2590 -0.1706  0.1938
 7479W        W 9679  10.159   3.725  29.721 -0.2470 -0.1432  0.1136
 7480W        W 9680  14.047   5.967  26.826  0.2126 -0.2429 -0.0161
 7481W        W 9681   5.468   2.549   7.609 -0.1144 -0.3541  0.0736
 7482W        W 9682  25.108   0.313   5.750  0.1284 -0.0013  0.0937
 7483W        W 9683  21.289   2.967  29.831 -0.0163 -0.3118  0.1155
 7484W        W 9684  24.801   3.950  34.647 -0.1587  0.0333 -0.0197
 7485W        W 9685  17.042   3.264  29.226  0.3022  0.0498  0.0542
 7486W        W 9686   1.088   3.312  27.710  0.2918 -0.0862 -0.0336
 7487W        W 9687  12.327   1.545  29.566  0.0104 -0.1176  0.1244
 7488W        W 9688  18.436   0.330   1.389  0.0993  0.1187 -0.0087
 7489W        W 9689  10.736   4.006  26.895  0.2272  0.0953 -0.1135
 7490W        W 9690  11.882   4.487  28.118  0.1576 -0.1311  0.4216
 7491W        W 9691  19.274   2.217  28.495  0.0830  0.0197 -0.0339
 7492W        W 9692  23.052   3.308   0.817  0.1067  0.4510  0.1386
 7493W        W 9693   4.024   2.600  25.861  0.0445  0.0967 -0.1814
 7494W        W 9694  24.325   4.028   8.215  0.2017 -0.3054 -0.1649
 7495W        W 9695   7.910   2.532  22.120 -0.2373 -0.0522 -0.1754
 7496W        W 9696  23.807   5.716  24.027  0.2120 -0.0673  0.4196
 7497W        W 9697  23.854   3.801  32.580 -0.2043  0.0054 -0.0632
 7498W        W 9698  15.823   4.747  21.945 -0.0200 -0.0316  0.0470
 7499W        W 9699   1.530   4.139  32.818 -0.2689  0.1685  0.0025
 7500W        W 9700  26.009   4.464  10.210  0.0122 -0.1642 -0.0893
 7501W        W 9701  13.667   6.039  35.806 -0.3058  0.2631 -0.1391
 7502W        W 9702   1.457   0.496   2.726  0.0606 -0.1571 -0.0313
 7503W        W 9703   0.823   4.874  10.899 -0.0215  0.1154  0.1212
 7504W        W 9704  22.888   0.938   3.299 -0.0247  0.1755 -0.3653
 7505W        W 9705  13.203   3.795  23.509  0.0517 -0.1066  0.1182
 7506W        W 9706  19.687   5.380   2.431 -0.0118 -0.1225  0.2707
 7507W        W 9707  18.400   6.164  23.906  0.1599  0.2233  0.0543
 7508W        W 9708   7.450   3.320  32.907 -0.0047  0.2709 -0.2715
 7509W        W 9709  14.737   5.178  25.218 -0.3326  0.0330 -0.0517
 7510W        W 9710  22.386   2.714  32.513  0.0041  0.0081 -0.1047
 7511W        W 9711  26.071   4.838   4.877  0.1693  0.3092  0.1808
 7512W        W 9712  23.640   1.967  11.343 -0.0363  0.4776 -0.1933
 7513W        W 9713   9.444   1.488  32.535 -0.0282 -0.1111  0.1620
 7514W        W 9714   7.230   5.509  12.022 -0.0599  0.1246  0.0362
 7515W        W 9715  12.399   5.453  32.589 -0.1669 -0.2322 -0.3262
 7516W        W 9716   1.092   3.436   3.557 -0.0031  0.0265  0.1500
 7517W        W 9717  18.568   3.367  20.699  0.1079 -0.0121  0.1602
 7518W        W 9718  11.341   1.654  26.914  0.1719  0.0906  0.1625
 7519W        W 9719   4.154   1.947  10.671  0.0969  0.1253 -0.0665
 7520W        W 9720   7.755   3.542   7.914  0.0017  0.2664  0.2981
 7521W        W 9721   4.074   3.920  25.597 -0.0414  0.0012 -0.0942
 7522W        W 9722   5.489   3.910   1.029  0.1395  0.0781 -0.0057
 7523W        W 9723  19.069   1.750  28.326  0.0290  0.0609 -0.0494
 7524W        W 9724  19.635   2.106  31.095  0.0284  0.0245  0.0407
 7525W        W 9725   5.612   4.329  26.483  0.0337 -0.0722 -0.1728
 7526W        W 9726   5.613   0.821  15.733  0.1447  0.2403 -0.3194
 7527W        W 9727   3.619   3.105  26.940 -0.3781  0.1058 -0.1745
 7528W        W 9728  11.574   1.423   6.066  0.1362 -0.1741 -0.0049
 7529W        W 9729   1.576   2.771   6.468 -0.0599  0.0147 -0.0057
 7530W        W 9730  16.254   2.124  34.542 -0.3203 -0.2560  0.0573
 7531W        W 9731   0.642   1.965   0.683  0.1294  0.0059  0.1118
 7532W        W 9732  10.125   2.040   4.155 -0.3113 -0.0094 -0.0740
 7533W        W 9733   8.180   4.494  29.800 -0.0457  0.2023 -0.2219
 7534W        W 9734  26.094   3.314  34.980  0.0253  0.1383 -0.3067
 7535W        W 9735   3.607   4.009   4.629  0.0927  0.1695 -0.0001
 7536W        W 9736  14.481   0.544  30.080  0.1148 -0.2463  0.2589
 7537W        W 9737   9.382   2.822   4.793  0.3479  0.1084 -0.2004
 7538W        W 9738   4.010   5.384  29.995  0.3815 -0.1769 -0.0921
 7539W        W 9739  14.435   3.197   6.568 -0.0647 -0.1483 -0.4044
 7540W        W 9740   6.150   4.541  22.476 -0.0084 -0.2802  0.1351
 7541W        W 9741   7.035   0.568  28.620 -0.0040 -0.4211  0.3110
 7542W        W 9742  21.476   5.063  10.039  0.0387 -0.0608  0.1471
 7543W        W 9743  19.904   4.033   8.015 -0.2462  0.1614 -0.1781
 7544W        W 9744  12.333   0.516  35.255 -0.0999  0.0471  0.1828
 7545W        W 9745  11.789   4.427  21.721  0.0087  0.1145  0.1209
 7546W        W 9746   6.125   5.501  23.387  0.2675 -0.0285 -0.0112
 7547W        W 9747   6.237   1.165  13.180  0.0935  0.0178 -0.1632
 7548W        W 9748  18.084   3.954  13.950  0.0264  0.1875  0.0032
 7549W        W 9749  14.720   0.789   5.800 -0.0543  0.1689 -0.0867
 7550W        W 9750  24.836   3.737  10.924 -0.0018 -0.0047  0.3045
 7551W        W 9751   6.100   4.761   8.508 -0.0858 -0.4193  0.2536
 7552W        W 9752   9.952   1.033  28.856  0.1194 -0.2041  0.3823
 7553W        W 9753  15.297   3.454  28.018  0.1054 -0.1703  0.0245
 7554W        W 9754  14.978   5.538   2.911  0.1484  0.1886 -0.0160
 7555W        W 9755   3.794   1.449  11.289 -0.4115  0.1546 -0.2071
 7556W        W 9756   3.257   0.696   3.465  0.2607  0.3642 -0.0933
 7557W        W 9757  23.839   0.568  25.227 -0.2136  0.0670 -0.1271
 7558W        W 9758   6.884   5.119   5.830  0.2281  0.2200  0.2921
 7559W        W 9759   5.600   3.194  21.327  0.0629  0.2035 -0.0661
 7560W        W 9760   7.525   5.331  35.866 -0.3079 -0.1475 -0.3673
 7561W        W 9761  23.851   0.462  33.704 -0.1912  0.2369  0.0694
 7562W        W 9762  22.103   5.921  23.989  0.1528  0.1167 -0.0252
 7563W        W 9763   2.749   1.131  28.202 -0.1871 -0.1279  0.2083
 7564W        W 9764   5.198   0.837   7.845  0.1405 -0.0700  0.2041
 7565W        W 9765   3.246   0.222  25.572  0.1341 -0.0325 -0.3892
 7566W        W 9766  25.072   0.221  11.346  0.5189 -0.0317 -0.0755
 7567W        W 9767   1.618   5.583  29.134  0.3318 -0.0513 -0.0751
 7568W        W 9768  21.374   1.377  15.234  0.4688  0.1621 -0.2452
 7569W        W 9769  13.825   5.584  35.202 -0.4175 -0.3790 -0.1331
 7570W        W 9770   9.170   3.014  23.410 -0.2137 -0.1790  0.3233
 7571W        W 9771   1.972   4.735   4.682 -0.1897  0.2367 -0.1555
 7572W        W 9772  10.735   3.457  23.665 -0.2450 -0.1381 -0.4169
 7573W        W 9773  18.387   3.947  28.984  0.1770 -0.2864 -0.5867
 7574W        W 9774   5.206   4.499  15.064  0.3853  0.1118 -0.2450
 7575W        W 9775  24.200   4.749   4.190 -0.0645  0.0898  0.2512
 7576W        W 9776  25.256   4.648  29.776 -0.0851 -0.2184  0.1291
 7577W        W 9777  12.544   3.064  15.524  0.0949  0.1283 -0.2940
 7578W        W 9778   5.632   4.706  10.065  0.0956 -0.1593 -0.0943
 7579W        W 9779   9.531   2.797  29.371 -0.0184  0.3142  0.3371
 7580W        W 9780  12.391   1.457   5.912 -0.0452  0.0474  0.0788
 7581W        W 9781   3.565   2.888  13.753  0.2079 -0.1458  0.2186
 7582W        W 9782   4.421   1.014  23.461 -0.1702 -0.3483 -0.3212
 7583W        W 9783   2.042   3.940   9.676 -0.2104 -0.2623 -0.2524
 7584W        W 9784   8.186   3.834   0.860 -0.1266 -0.2453 -0.1292
 7585W        W 9785  24.747   4.352  20.793  0.0639 -0.2398 -0.0234
 7586W        W 9786  11.908   1.315  11.478 -0.2143  0.2863 -0.2063
 7587W        W 9787  17.348   5.544  10.289 -0.0022  0.2192  0.1153
 7588W        W 9788  26.057   5.669   9.056  0.1265 -0.1768 -0.0789
 7589W        W 9789   0.503   0.279  22.327 -0.1717 -0.3479 -0.2399
 7590W        W 9790  17.599   1.158  27.840 -0.1039 -0.2625  0.2560
 7591W        W 9791   4.313   4.567   6.759  0.1805 -0.2962 -0.0650
 7592W        W 9792   7.731   6.034  12.668  0.3731  0.0004 -0.0242
 7593W        W 9793   9.553   6.201  16.151 -0.1290  0.2606 -0.2583
 7594W        W 9794  14.524   4.981   9.067  0.1058  0.0808 -0.0580
 7595W        W 9795   7.236   5.665   7.703 -0.2965 -0.4257 -0.1885
 7596W        W 9796  14.657   3.071  23.807  0.2106 -0.2914 -0.1164
 7597W        W 9797  11.704   3.782  11.658  0.2057 -0.1368 -0.4551
 7598W        W 9798  11.230   0.758  35.985 -0.0735  0.1009 -0.1586
 7599W        W 9799  25.458   2.114  22.168 -0.2903  0.0614 -0.2036
 7600W        W 9800  13.199   0.487   5.429 -0.1329  0.0540  0.0149
 7601W        W 9801   1.563   5.356  31.099 -0.1622 -0.0355  0.0013
 7602W        W 9802  25.720   6.380  26.848  0.1382 -0.0242  0.2332
 7603W        W 9803  21.358   0.852  32.434 -0.2129 -0.2113  0.1040
 7604W        W 9804  24.187   0.407   9.564  0.1913  0.2197  0.1088
 7605W        W 9805  23.374   0.555  30.400 -0.0488  0.0021  0.0912
 7606W        W 9806  17.711   4.377  11.825  0.0673  0.0042 -0.0392
 7607W        W 9807   6.458   0.654  28.317 -0.3128  0.0024  0.0793
 7608W        W 9808  24.719   4.623   6.430  0.1887  0.2006 -0.0236
 7609W        W 9809  13.363   3.429  11.749 -0.2794  0.0674  0.0914
 7610W        W 9810   6.531   3.521  11.606  0.1085  0.2181  0.4741
 7611W        W 9811   0.066   3.398   4.845 -0.0804 -0.1896 -0.0929
 7612W        W 9812  16.921   2.855   3.605 -0.2824 -0.1302 -0.0401
 7613W        W 9813   6.508   1.867   0.342 -0.0460  0.2800 -0.0309
 7614W        W 9814  15.867   0.901  13.543 -0.0437 -0.0289 -0.0017
 7615W        W 9815   9.308   5.794  35.432  0.0881  0.2297 -0.1098
 7616W        W 9816   5.447   0.712  26.813 -0.0695 -0.1295  0.1595
 7617W        W 9817  23.306   6.457   7.351  0.2968  0.2584 -0.1908
 7618W        W 9818  20.551   1.403  22.743 -0.1649 -0.0547 -0.0091
 7619W        W 9819   0.444   2.666  24.511  0.1027 -0.3482 -0.1529
 7620W        W 9820  20.002   5.710   4.582  0.0520  0.1153 -0.1780
 7621W        W 9821  14.838   6.279   8.046 -0.1305 -0.1545  0.0584
 7622W        W 9822  19.587   0.778  13.317  0.1285  0.0733  0.3917
 7623W        W 9823  16.983   1.072  14.585 -0.0574 -0.0588  0.0779
 7624W        W 9824   3.738   5.592   4.597 -0.0114  0.0941 -0.2041
 7625W        W 9825  13.138   6.422  15.168 -0.1478 -0.1019  0.0578
 7626W        W 9826  11.215   1.718  23.419  0.0969 -0.1136  0.0805
 7627W        W 9827   2.131   1.193  11.014 -0.1739 -0.0705 -0.0619
 7628W        W 9828  16.298   5.866  30.889  0.0443 -0.0244  0.1706
 7629W        W 9829  12.294   0.097  23.249  0.0967 -0.0992  0.0586
 7630W        W 9830  21.591   4.946  27.573  0.2641 -0.0437  0.0322
 7631W        W 9831  20.088   5.562  25.939 -0.0303 -0.2203  0.1542
 7632W        W 9832  19.456   1.708  12.995 -0.3170 -0.0684  0.3028
 7633W        W 9833  16.242   4.106   1.617 -0.0784  0.1929  0.2190
 7634W        W 9834  23.453   4.967   2.269  0.1364 -0.1910 -0.0212
 7635W        W 9835   9.539   5.907   5.130  0.0711 -0.0428 -0.1312
 7636W        W 9836   5.249   4.605   7.253 -0.1362  0.0816  0.1725
 7637W        W 9837  18.769   3.061   9.406 -0.4690 -0.0587 -0.1542
 7638W        W 9838   4.723   3.418   8.413 -0.0035 -0.3459 -0.4416
 7639W        W 9839   8.691   5.185  29.249  0.1516  0.1114  0.0412
 7640W        W 9840   9.535   1.423  32.036  0.1047 -0.0001 -0.1171
 7641W        W 9841  16.046   4.557   2.590 -0.2216  0.2323 -0.2856
 7642W        W 9842   3.318   4.242  29.913 -0.1440 -0.1022 -0.2045
 7643W        W 9843  20.245   0.867  25.243 -0.2386  0.0032 -0.0815
 7644W        W 9844   7.122   6.254   9.233  0.0717 -0.4199  0.3213
 7645W        W 9845   8.531   0.256  10.973  0.1068  0.2562  0.3788
 7646W        W 9846  19.985   0.629   2.403  0.1064  0.0075 -0.1094
 7647W        W 9847  25.954   1.132   6.953 -0.0354 -0.2230 -0.0116
 7648W        W 9848   3.882   3.809  29.314 -0.3695  0.1009  0.0989
 7649W        W 9849  16.644   3.805  27.515  0.1395 -0.2081 -0.0221
 7650W        W 9850   3.567   3.201  11.037 -0.0028 -0.0103  0.4043
 7651W        W 9851   5.767   4.365   8.601 -0.0226  0.0901 -0.0790
 7652W        W 9852  19.361   4.596  10.156  0.1024  0.2593  0.0149
 7653W        W 9853  18.246   3.621   1.856 -0.0492 -0.3907 -0.3736
 7654W        W 9854   4.302   2.197  27.307 -0.0654  0.1434 -0.3582
 7655W        W 9855  18.290   5.296  34.037  0.0710  0.0423  0.0783
 7656W        W 9856  24.211   1.787   2.235 -0.0763  0.1315  0.2210
 7657W        W 9857  24.983   0.789  26.038 -0.1650 -0.1883  0.2367
 7658W        W 9858   5.858   6.484  12.794  0.3934 -0.0791  0.1171
 7659W        W 9859  14.826   0.898  26.542  0.1774 -0.0484 -0.0749
 7660W        W 9860  14.010   5.229   5.614 -0.0041  0.0520 -0.1173
 7661W        W 9861  21.387   2.943  30.995 -0.0183 -0.2447 -0.2462
 7662W        W 9862  18.398   4.211  28.569 -0.1893  0.2033  0.1559
 7663W        W 9863  13.908   1.402   3.598  0.1292  0.4633 -0.0526
 7664W        W 9864   4.841   1.370   7.577 -0.0283 -0.1521  0.4344
 7665W        W 9865   5.667   5.505  34.828 -0.0629  0.1288  0.1912
 7666W        W 9866  16.598   3.654  13.573 -0.1367 -0.1136  0.1038
 7667W        W 9867   7.078   2.663   9.781  0.0355  0.2733 -0.0331
 7668W        W 9868   9.294   2.259  27.158  0.0290  0.0251 -0.2334
 7669W        W 9869  16.007   0.358  35.751 -0.0251 -0.1284  0.2880
 7670W        W 9870  15.662   5.080  25.123  0.4400 -0.1545 -0.0182
 7671W        W 9871  14.037   1.405   1.415 -0.3107 -0.2133  0.0341
 7672W        W 9872  19.035   3.819  24.410  0.0120 -0.1412 -0.1073
 7673W        W 9873   8.974   1.571  25.338 -0.0319 -0.1271  0.1374
 7674W        W 9874   3.670   3.254  13.443 -0.1014  0.0666 -0.0941
 7675W        W 9875   1.784   6.490   8.874 -0.2710  0.1704  0.1515
 7676W        W 9876  17.470   2.094  13.418  0.0231 -0.0219 -0.2062
 7677W        W 9877  23.329   4.485  32.412 -0.1906  0.1610  0.0002
 7678W        W 9878  24.220   3.078   0.588 -0.1267 -0.0519 -0.1985
 7679W        W 9879  13.084   2.057  33.752  0.0088 -0.1236  0.0372
 7680W        W 9880  24.287   2.564  13.554  0.1824 -0.1064  0.2601
 7681W        W 9881  21.574   3.010   6.201  0.1186 -0.0339  0.1345
 7682W        W 9882   4.235   3.723  29.712  0.1335  0.0957  0.2028
 7683W        W 9883   8.178   5.351   1.891 -0.0132  0.4489 -0.3712
 7684W        W 9884   0.627   5.072  24.672  0.1727 -0.1040  0.2328
 7685W        W 9885  22.448   2.673  33.586  0.2207  0.0784  0.0178
 7686W        W 9886   3.583   6.529   2.151 -0.2789  0.1937  0.1023
 7687W        W 9887  21.906   4.727  34.613  0.1098  0.0743  0.2613
 7688W        W 9888   9.699   2.355  10.652  0.0070 -0.2209 -0.2325
 7689W        W 9889  10.653   0.250   4.451 -0.0072  0.2354  0.1840
 7690W        W 9890  17.527   0.760  32.482 -0.0923 -0.1170 -0.1265
 7691W        W 9891   2.915   4.209  31.590  0.0604 -0.0262  0.1337
 7692W        W 9892   9.043   5.968   1.987  0.0711  0.3641  0.0900
 7693W        W 9893  17.123   1.611   3.444 -0.0721 -0.0734  0.0675
 7694W        W 9894   5.358   4.501  23.106 -0.1518 -0.2526 -0.2106
 7695W        W 9895   3.193   2.184   7.856  0.2721  0.0351  0.2497
 7696W        W 9896   3.837   6.297   1.425 -0.0622 -0.0974 -0.1242
 7697W        W 9897  11.454   3.178   3.751 -0.1711 -0.0368  0.0542
 7698W        W 9898  18.107   3.195  25.191  0.1982 -0.2368 -0.1498
 7699W        W 9899  13.698   2.358   8.916  0.0122 -0.0124 -0.0431
 7700W        W 9900  11.151   6.422  15.092 -0.0786  0.1546  0.3429
 7701W        W 9901  11.310   2.769  27.783 -0.0991 -0.0190 -0.2406
 7702W        W 9902  14.330   0.920  12.089  0.1685  0.0018 -0.1267
 7703W        W 9903  22.161   3.251  32.932 -0.1230 -0.2490 -0.1905
 7704W        W 9904  17.509   1.320   3.717  0.1522  0.2388 -0.1142
 7705W        W 9905   1.617   4.207  27.021 -0.0400  0.0583 -0.0929
 7706W        W 9906   8.755   3.222   0.716  0.0095 -0.1523  0.0170
 7707W        W 9907  25.268   2.312  31.106  0.0203 -0.2165 -0.1645
 7708W        W 9908   4.994   0.014   1.181  0.2042  0.0187  0.1283
 7709W        W 9909   3.932   4.147  23.190 -0.2910  0.0200 -0.2770
 7710W        W 9910  17.787   2.636   9.385  0.0768  0.0537 -0.1496
 7711W        W 9911  16.592   6.285  14.973 -0.3033 -0.3482  0.0253
 7712W        W 9912  12.976   4.074   4.110  0.1911  0.2473 -0.0092
 7713W        W 9913   0.640   1.002  29.818 -0.0831 -0.1863 -0.0413
 7714W        W 9914  24.716   4.511  13.450  0.1224  0.0485  0.2834
 7715W        W 9915  10.450   4.784   5.253  0.2511  0.0656  0.1103
 7716W        W 9916  11.987   5.662  12.387  0.0130 -0.2532  0.0013
 7717W        W 9917  20.788   0.962  29.866  0.0854 -0.1844  0.1326
 7718W        W 9918   1.333   3.145   2.225  0.0927  0.0396 -0.0416
 7719W        W 9919  14.494   4.109  10.220 -0.1131  0.0080  0.1670
 7720W        W 9920   0.076   2.267   8.418 -0.2527  0.0734 -0.0738
 7721W        W 9921   2.575   3.060   7.324 -0.2093  0.0325  0.0612
 7722W        W 9922  17.410   2.709  33.350  0.0305 -0.1852  0.1202
 7723W        W 9923   2.546   0.850   8.197 -0.1789  0.2829  0.0797
 7724W        W 9924   8.586   5.914  27.223 -0.4397  0.0418  0.4349
 7725W        W 9925   2.294   1.118   4.368 -0.0111  0.0743  0.1094
 7726W        W 9926  16.419   5.305   7.444  0.1173 -0.0078 -0.1618
 7727W        W 9927  12.881   1.070  10.081  0.3969  0.2005  0.1916
 7728W        W 9928  23.883   2.553  14.896 -0.2963 -0.1830 -0.0512
 7729W        W 9929  15.244   2.235  28.027 -0.2023 -0.0999  0.2804
 7730W        W 9930  24.712   6.455   3.096  0.1703  0.0973  0.0474
 7731W        W 9931   8.175   1.357  35.042 -0.2130  0.1480  0.0510
 7732W        W 9932  11.792   4.012  35.191  0.3707  0.1416  0.4370
 7733W        W 9933  25.769   5.082  33.987 -0.2206 -0.0059  0.1702
 7734W        W 9934  19.831   5.780  26.356  0.2558 -0.2448  0.0468
 7735W        W 9935  20.238   6.596   4.769  0.1763 -0.1548 -0.3309
 7736W        W 9936   4.002   1.381   5.205  0.2810  0.1444  0.2003
 7737W        W 9937  25.720   0.287  12.136 -0.0732  0.1000  0.1936
 7738W        W 9938  23.663   5.583  36.030 -0.2277 -0.1551 -0.1214
 7739W        W 9939  13.957   0.898   7.362  0.0390  0.2446 -0.0851
 7740W        W 9940   5.447   6.323  28.070 -0.0817  0.0608  0.0233
 7741W        W 9941  26.377   5.223   0.470  0.0593 -0.1970 -0.1338
 7742W        W 9942  11.497   3.025   8.424 -0.3441  0.3628 -0.0028
 7743W        W 9943   5.189   5.080  24.797 -0.1435  0.3035 -0.0259
 7744W        W 9944   6.248   2.571  31.591 -0.0088 -0.0497 -0.0009
 7745W        W 9945   9.674   5.848   0.169  0.0951 -0.0216 -0.4245
 7746W        W 9946  20.215   5.007  10.059  0.1938  0.0057  0.2741
 7747W        W 9947  17.463   1.822   7.601  0.1219  0.0007  0.4893
 7748W        W 9948  25.606   1.329  21.999 -0.0689  0.1015  0.1048
 7749W        W 9949   4.083   3.458  26.562  0.0568 -0.0892 -0.2144
 7750W        W 9950  14.970   4.299  31.624  0.2372 -0.0597 -0.0995
 7751W        W 9951   2.952   1.414  34.004 -0.1059  0.1719 -0.2661
 7752W        W 9952   6.834   3.118   2.605 -0.0781  0.0203 -0.0970
 7753W        W 9953  26.099   5.956  14.711  0.0508 -0.1874 -0.0340
 7754W        W 9954  22.645   0.494   5.581 -0.2403  0.0056 -0.3050
 7755W        W 9955  21.514   2.269  11.312 -0.0903 -0.0256 -0.3336
 7756W        W 9956  22.482   0.592  11.063 -0.3778  0.2258  0.0497
 7757W        W 9957   2.915   6.247  34.293  0.5547  0.1358  0.0131
 7758W        W 9958  17.769   1.191  11.589  0.1180  0.2197  0.3113
 7759W        W 9959  13.521   5.218  33.973 -0.1082  0.0779  0.0068
 7760W        W 9960  24.490   5.434  21.309 -0.0471  0.4264 -0.2871
 7761W        W 9961   3.934   1.970  33.815 -0.0693  0.1136 -0.0008
 7762W        W 9962  17.482   4.848  11.935 -0.1532 -0.1494 -0.2183
 7763W        W 9963  16.877   1.622  22.564 -0.0219  0.3082 -0.2625
 7764W        W 9964  15.057   1.334  33.810  0.2217  0.0891  0.2528
 7765W        W 9965   7.145   4.119   0.989 -0.1288  0.2815 -0.2721
 7766W        W 9966  11.723   6.290  13.289  0.4814 -0.0570  0.3078
 7767W        W 9967  19.235   4.131  24.088 -0.0291 -0.2321  0.2432
 7768W        W 9968  21.178   5.501   1.581 -0.5558 -0.0670 -0.0491
 7769W        W 9969  22.237   1.963  10.634 -0.3111  0.0214  0.1756
 7770W        W 9970   1.686   1.008   5.453  0.0079  0.0788  0.2027
 7771W        W 9971  15.413   3.084  24.456  0.3584 -0.2140  0.1178
 7772W        W 9972  10.745   1.079   1.602 -0.1888 -0.0392  0.0987
 7773W        W 9973  12.411   0.091  27.446 -0.1731  0.4331 -0.0420
 7774W        W 9974  23.756   3.785  20.755  0.1932  0.1763  0.0429
 7775W        W 9975  12.701   1.112  25.450  0.1248 -0.0875  0.1590
 7776W        W 9976  25.156   1.445  24.575  0.1458  0.0381 -0.1735
 7777W        W 9977   8.086   3.847   7.236  0.3719 -0.1881 -0.0536
 7778W        W 9978  17.000   4.093   3.778 -0.3113  0.0041 -0.1896
 7779W        W 9979  20.095   6.441  34.573 -0.1263  0.0556 -0.1230
 7780W        W 9980  23.771   1.347   5.344 -0.0782 -0.0841 -0.2014
 7781W        W 9981  14.815   3.337  10.087 -0.0862  0.0353 -0.2470
 7782W        W 9982   3.623   5.699  25.500  0.0423 -0.4806  0.0463
 7783W        W 9983  17.735   3.111  10.227 -0.3516  0.0288 -0.1117
 7784W        W 9984   9.212   6.163  25.701 -0.2080 -0.0297 -0.0637
 7785W        W 9985   4.870   1.313   5.093  0.2570  0.0925 -0.0171
 7786W        W 9986  19.445   3.636   6.349  0.2152  0.3452  0.0167
 7787W        W 9987   4.517   5.398  10.438  0.0684 -0.2042 -0.1182
 7788W        W 9988  12.425   4.774  25.804 -0.0286  0.1178  0.2453
 7789W        W 9989   0.663   2.558   6.137  0.2142  0.0746 -0.1040
 7790W        W 9990   9.201   4.619  25.164 -0.0202  0.0668  0.0692
 7791W        W 9991  14.260   2.695   7.858 -0.1958  0.0549  0.2642
 7792W        W 9992  24.379   3.402  23.906 -0.1943  0.1514 -0.1099
 7793W        W 9993  15.152   3.216  32.020 -0.2496 -0.1139 -0.1604
 7794W        W 9994  20.064   5.079  25.846 -0.2369 -0.1249  0.1020
 7795W        W 9995  12.274   2.671  31.048 -0.2020 -0.1326  0.2480
 7796W        W 9996  24.158   6.527   7.549  0.1084 -0.1696  0.0541
 7797W        W 9997  25.954   1.101   9.190  0.1275 -0.0704  0.1395
 7798W        W 9998   0.088   4.038  23.986  0.0943  0.0245 -0.0737
 7799W        W 9999  20.841   3.271  30.147 -0.0158  0.2175 -0.0410
 7800W        W10000  13.552   5.077  27.925 -0.1140  0.0977  0.2823
 7801W        W10001  10.372   3.098   9.277 -0.1448 -0.0999 -0.1287
 7802W        W10002   4.013   5.416  15.334  0.0079 -0.0700  0.2079
 7803W        W10003  11.171   1.520  22.079  0.1278  0.0341 -0.0397
 7804W        W10004  22.251   0.866  23.319  0.0412 -0.1230  0.1188
 7805W        W10005   3.073   5.935  23.558  0.1780 -0.1558 -0.1364
 7806W        W10006  25.155   2.949  35.013 -0.0367  0.1187 -0.1521
 7807W        W10007   4.879   4.110  10.673 -0.0904  0.0074  0.0160
 7808W        W10008   1.550   5.099  34.280 -0.1714 -0.2157 -0.0224
 7809W        W10009  22.272   1.762  28.412 -0.1517  0.2931 -0.0830
 7810W        W10010  17.140   2.229   1.529  0.1484  0.1520 -0.0810
 7811W        W10011  21.904   3.002  26.652 -0.0972  0.0890 -0.1944
 7812W        W10012   1.088   1.647   5.257 -0.0286 -0.2061 -0.0964
 7813W        W10013   6.102   4.933  25.149  0.1181  0.1369 -0.0037
 7814W        W10014   3.254   0.861  14.425  0.1320 -0.5134 -0.1378
 7815W        W10015  11.061   4.698  25.624 -0.1572 -0.0378  0.0678
 7816W        W10016   2.808   1.676   1.586 -0.2108  0.0419  0.0317
 7817W        W10017   3.926   5.742  11.681 -0.1311  0.1317 -0.0891
 7818W        W10018  10.614   1.769   9.503  0.2414  0.0817 -0.0351
 7819W        W10019  23.223   5.871  26.043 -0.2614 -0.1014 -0.0399
 7820W        W10020  10.795   1.125  26.373 -0.2175 -0.2488 -0.1427
 7821W        W10021  15.541   5.906  35.232  0.0354 -0.0348  0.1897
 7822W        W10022  11.738   0.035  23.175  0.0587  0.0069 -0.0610
 7823W        W10023   2.003   2.461  26.725 -0.0905  0.1606  0.0830
 7824W        W10024  16.031   6.223   2.078 -0.1231  0.0262  0.1382
 7825W        W10025  18.981   2.883  25.835  0.3377 -0.0805 -0.1059
 7826W        W10026   8.606   0.920  29.428  0.1561 -0.1618 -0.1062
 7827W        W10027  23.315   1.293  26.891  0.0529 -0.3075  0.1593
 7828W        W10028  11.620   4.563   4.513 -0.0249  0.2436  0.1709
 7829W        W10029  14.622   2.153  23.965 -0.1918 -0.4317  0.4878
 7830W        W10030  17.044   3.547  13.910  0.2544  0.0017  0.3206
 7831W        W10031   0.231   5.672  24.177 -0.0201 -0.1067 -0.0306
 7832W        W10032  20.719   0.836  30.829  0.0680 -0.1237  0.0804
 7833W        W10033  16.623   0.700  27.204  0.0650  0.0448 -0.3164
 7834W        W10034   1.343   2.512   8.806  0.0677  0.2832  0.1557
 7835W        W10035  24.352   1.493  35.361  0.3119 -0.0530  0.1962
 7836W        W10036  26.350   4.068  14.297 -0.1302 -0.2428 -0.0702
 7837W        W10037   3.465   0.872  11.110  0.2504  0.1019 -0.1895
 7838W        W10038  25.665   2.255  28.790  0.1672 -0.0848  0.0014
 7839W        W10039   2.242   5.828  34.502  0.1048  0.2240 -0.1316
 7840W        W10040   6.842   0.209   5.687 -0.0852  0.3044  0.0228
 7841W        W10041  10.355   0.522   7.654 -0.1586  0.3777  0.1512
 7842W        W10042  16.169   3.994   5.699 -0.0151  0.1540  0.1680
 7843W        W10043  13.396   0.321  32.657 -0.2503  0.0286 -0.2184
 7844W        W10044  14.164   6.113  27.323  0.4047  0.2919 -0.0028
 7845W        W10045  18.524   2.328  32.452 -0.0142 -0.0037 -0.0186
 7846W        W10046   9.327   4.303  35.971 -0.4442  0.0653  0.2251
 7847W        W10047  23.820   3.242  13.018 -0.1882  0.2262 -0.3705
 7848W        W10048   7.721   3.104  11.538 -0.0656  0.0361 -0.3278
 7849W        W10049   1.479   5.138  28.028 -0.0663 -0.1401 -0.0831
 7850W        W10050   6.289   3.618  34.005 -0.0033 -0.1029  0.0185
 7851W        W10051  16.660   2.345  10.818 -0.3841 -0.8459 -0.0191
 7852W        W10052  24.589   3.423   5.971 -0.1374 -0.2090  0.1154
 7853W        W10053   3.210   6.312   3.551  0.1473 -0.0642 -0.2974
 7854W        W10054  19.474   6.195  21.262  0.2079  0.0732 -0.1361
 7855W        W10055  23.775   6.127  33.487 -0.2115 -0.0437 -0.3192
 7856W        W10056  12.191   0.958  33.997 -0.0311 -0.3599  0.2188
 7857W        W10057   9.674   3.154  14.465 -0.1195  0.0232  0.0980
 7858W        W10058  22.099   0.966  15.148 -0.0956 -0.0116  0.0307
 7859W        W10059  23.630   1.968  10.040  0.1287 -0.0303  0.0295
 7860W        W10060   9.670   1.058   8.727  0.1122 -0.3947  0.1660
 7861W        W10061   3.230   1.787   9.887 -0.1802  0.0759 -0.1114
 7862W        W10062  13.107   3.460  28.820  0.3424  0.1808  0.0145
 7863W        W10063  22.105   1.647   5.792  0.2983 -0.1480 -0.3744
 7864W        W10064   5.199   5.395  11.214  0.0746 -0.0368  0.1435
 7865W        W10065  15.479   3.356  30.793  0.2131 -0.4371  0.3069
 7866W        W10066  11.527   1.775   3.782 -0.1877 -0.0031  0.2113
 7867W        W10067  10.313   6.153   0.680  0.0791 -0.1382 -0.4006
 7868W        W10068  16.231   5.399  13.340 -0.0619 -0.0121  0.0081
 7869W        W10069   0.664   2.423  25.226 -0.0775  0.2356  0.0301
 7870W        W10070   0.846   2.395   3.443  0.1138  0.0555  0.1365
 7871W        W10071   0.354   5.807  32.012  0.0655 -0.0595  0.2169
 7872W        W10072  25.185   2.215  33.544 -0.2115  0.0794  0.0799
 7873W        W10073  16.449   2.055  13.906 -0.4227  0.1209 -0.0615
 7874W        W10074  14.012   0.004  31.301 -0.2316 -0.0254  0.0138
 7875W        W10075   2.086   2.656  31.239  0.0849 -0.3751 -0.2179
 7876W        W10076   8.851   4.840  13.683  0.1862 -0.1955 -0.0772
 7877W        W10077  12.416   0.622  28.344 -0.0005  0.0900  0.0756
 7878W        W10078  16.234   3.664  28.286  0.0878 -0.0541 -0.0202
 7879W        W10079  24.635   1.218  24.960  0.2675  0.0454 -0.1834
 7880W        W10080  17.260   3.210   9.018  0.0856  0.1907 -0.1830
 7881W        W10081  20.219   2.248  22.585 -0.2359  0.1694  0.0922
 7882W        W10082   7.546   2.002  28.676 -0.1757  0.4002  0.2619
 7883W        W10083  12.086   2.790   6.649  0.1417 -0.2176 -0.0725
 7884W        W10084  21.979   0.791  35.209 -0.0191  0.1123  0.1889
 7885W        W10085  24.784   2.393  20.978  0.0908  0.1715 -0.2289
 7886W        W10086  22.792   2.195  11.062 -0.1297 -0.2842 -0.1755
 7887W        W10087   0.478   5.557  30.395  0.1966 -0.1224  0.2061
 7888W        W10088   4.506   5.355  33.034 -0.1285  0.1343  0.0826
 7889W        W10089   7.425   0.509  25.112 -0.2517  0.1024  0.0199
 7890W        W10090   6.279   0.827   2.512 -0.2804  0.1560 -0.0512
 7891W        W10091   2.889   4.092   6.312  0.0878 -0.0971 -0.4994
 7892W        W10092   8.387   0.827  15.721  0.0915  0.1790 -0.0466
 7893W        W10093  19.479   1.711  24.329 -0.0897 -0.0063  0.0657
 7894W        W10094  13.172   3.703   9.616 -0.1701  0.1131 -0.1431
 7895W        W10095   9.992   1.290  30.836  0.0411  0.0698  0.2391
 7896W        W10096  18.613   1.041  14.475 -0.0618 -0.1518  0.2192
 7897W        W10097   7.099   0.811  14.384 -0.1453 -0.3522 -0.3019
 7898W        W10098  13.652   5.422   6.670 -0.0200 -0.1749 -0.0868
 7899W        W10099   5.711   0.218  11.462  0.0361  0.0008  0.0005
 7900W        W10100  20.424   1.334   3.457  0.1321  0.0902 -0.0216
 7901W        W10101   8.062   6.133   2.471  0.0860  0.0277  0.1381
 7902W        W10102   0.436   5.155  25.170 -0.3818  0.2069 -0.0584
 7903W        W10103   8.554   4.733   4.116 -0.0813  0.0530 -0.0887
 7904W        W10104   3.838   4.056  15.128  0.2257 -0.0202  0.0023
 7905W        W10105   9.530   3.451  31.926  0.1432 -0.0697 -0.0430
 7906W        W10106   7.761   6.243   2.918 -0.0448 -0.0128  0.0561
 7907W        W10107   0.574   0.248   2.076 -0.0347 -0.0515  0.0728
 7908W        W10108  24.511   3.551   3.228  0.0391 -0.0592  0.0248
 7909W        W10109   1.007   4.840   0.884 -0.1547 -0.1179 -0.0381
 7910W        W10110  21.903   2.985   8.304 -0.0970  0.0035  0.2495
 7911W        W10111  14.363   5.340  32.977  0.2431 -0.0892 -0.1945
 7912W        W10112  11.528   5.099  34.311  0.0084  0.1793  0.1686
 7913W        W10113  21.347   3.358   2.541 -0.0975 -0.0458 -0.0723
 7914W        W10114  10.433   4.160  22.302 -0.0800  0.1041 -0.0877
 7915W        W10115   1.324   1.047   6.715  0.1045 -0.0276  0.0954
 7916W        W10116  25.502   5.844   9.376  0.0887  0.4609  0.4153
 7917W        W10117   9.125   5.548   5.761 -0.3062  0.0730  0.1254
 7918W        W10118  24.415   2.897   1.434 -0.1794  0.0221  0.4063
 7919W        W10119  14.619   4.428  27.190  0.0969 -0.1886  0.1495
 7920W        W10120   7.651   0.108   4.748  0.1458  0.0832 -0.1464
 7921W        W10121   5.236   5.081  34.699 -0.0725 -0.0036 -0.0708
 7922W        W10122   7.150   5.822   2.382  0.0752 -0.3918  0.0178
 7923W        W10123  15.208   2.088   5.088 -0.0761 -0.0472 -0.1244
 7924W        W10124   6.686   5.312   0.285 -0.2728  0.1199  0.1265
 7925W        W10125  13.436   0.086  31.409 -0.0530  0.0628  0.1935
 7926W        W10126   0.530   5.567  13.984  0.0887 -0.0948  0.0650
 7927W        W10127  13.943   3.581   8.068 -0.1814  0.0892 -0.0814
 7928W        W10128   9.832   0.592  25.524 -0.0155  0.4567  0.0638
 7929W        W10129   9.351   5.703  34.633  0.1892  0.1097  0.1858
 7930W        W10130   3.774   3.845   3.324  0.1559 -0.1813  0.1220
 7931W        W10131   0.720   2.703  23.282 -0.1188  0.2464 -0.1353
 7932W        W10132  15.982   1.818   7.045 -0.3691 -0.1838  0.0487
 7933W        W10133   8.446   2.544  12.455 -0.0168  0.0750  0.1877
 7934W        W10134  23.924   1.216  31.935  0.2564 -0.2378  0.1863
 7935W        W10135   6.442   3.803  25.638  0.0505 -0.3885  0.4107
 7936W        W10136  21.482   0.358  32.571  0.0045 -0.0994  0.2447
 7937W        W10137  19.292   4.156  22.415 -0.2963  0.2970  0.1851
 7938W        W10138  16.173   2.328  34.958 -0.0107 -0.1312  0.3018
 7939W        W10139   7.813   3.013   7.210 -0.1520 -0.0774 -0.0903
 7940W        W10140  12.736   0.320  30.492 -0.2996 -0.3952 -0.2564
 7941W        W10141   2.112   4.984  29.264  0.2831  0.3112  0.2253
 7942W        W10142   0.647   5.101  30.135  0.4948 -0.0128  0.2054
 7943W        W10143  20.670   1.833   9.844  0.1820 -0.2037 -0.0771
 7944W        W10144  24.178   4.046   0.470  0.1349  0.4233  0.1858
 7945W        W10145  15.862   1.276  31.072  0.1869 -0.1880  0.0614
 7946W        W10146  20.429   3.976  10.901  0.3884 -0.2483  0.1997
 7947W        W10147  16.760   5.495  23.094  0.1020 -0.0980 -0.1248
 7948W        W10148  21.114   6.432   5.514 -0.1130 -0.0173 -0.1672
 7949W        W10149   3.175   4.280  32.345 -0.0560  0.1812 -0.3609
 7950W        W10150  17.924   1.901  30.162  0.2188 -0.0021 -0.0662
 7951W        W10151  15.598   2.829  14.392  0.2557 -0.1452  0.0012
 7952W        W10152  22.793   1.416  35.737  0.0973 -0.2026  0.2422
 7953W        W10153   0.280   5.572  20.815 -0.0695  0.0219  0.0338
 7954W        W10154   1.593   0.101   7.239 -0.0659  0.2048 -0.0451
 7955W        W10155   4.189   3.481  31.557  0.3531  0.0620  0.2214
 7956W        W10156   3.938   0.683  34.504  0.5150  0.1110  0.0178
 7957W        W10157   2.406   4.643  14.480 -0.2366 -0.0663 -0.1589
 7958W        W10158   6.605   3.248  33.470 -0.0626 -0.2088 -0.5285
 7959W        W10159   6.877   0.537  24.312 -0.1555 -0.0678 -0.4203
 7960W        W10160  20.604   6.278  26.594  0.1857  0.0713 -0.1121
 7961W        W10161  20.051   2.199  24.855  0.1419 -0.2228  0.0429
 7962W        W10162  15.512   2.772   7.437 -0.2472  0.0721 -0.4366
 7963W        W10163   1.220   0.983  30.909  0.1725 -0.1138  0.1517
 7964W        W10164  23.541   5.023  21.308 -0.0136 -0.1443 -0.0378
 7965W        W10165   4.499   5.197  12.211  0.2768  0.0310 -0.2982
 7966W        W10166  25.186   5.861  24.863 -0.0803 -0.0386 -0.0566
 7967W        W10167  24.797   2.568   1.619  0.1541 -0.1522 -0.0236
 7968W        W10168  23.251   2.807   0.923 -0.0301 -0.1614  0.2584
 7969W        W10169   8.737   2.668  25.468 -0.1169 -0.1538 -0.1782
 7970W        W10170  19.804   5.706  10.410 -0.1820  0.3664  0.0644
 7971W        W10171  18.780   2.276   6.319  0.1182 -0.1253 -0.2938
 7972W        W10172  15.769   6.445  26.123  0.1028 -0.2139 -0.0427
 7973W        W10173   7.413   0.184   2.282 -0.0011 -0.0932 -0.1294
 7974W        W10174  23.172   2.489  32.005 -0.0504  0.2913 -0.0339
 7975W        W10175  13.778   5.221   1.133  0.0413 -0.0255 -0.1342
 7976W        W10176   4.537   5.713   0.147 -0.0647 -0.2137  0.1573
 7977W        W10177  25.413   5.927  26.945  0.2495  0.1318 -0.0818
 7978W        W10178   0.513   1.831  32.751 -0.0595  0.2957  0.2022
 7979W        W10179  22.888   4.752  28.361 -0.1129 -0.0147  0.1081
 7980W        W10180  20.952   6.373  14.474  0.1124  0.2802 -0.1117
 7981W        W10181   8.582   1.760  27.117  0.1164 -0.1882  0.0113
 7982W        W10182   2.107   5.059   8.434  0.0363 -0.1772  0.1146
 7983W        W10183  20.780   5.531  24.722 -0.2402 -0.1920  0.2226
 7984W        W10184  22.830   1.093  13.834 -0.2494 -0.1479  0.2936
 7985W        W10185  13.168   3.934  14.457  0.0723 -0.0554  0.2644
 7986W        W10186  22.041   1.156   1.095  0.0488 -0.0012 -0.0090
 7987W        W10187   9.033   4.186  10.446 -0.1330  0.0859 -0.0931
 7988W        W10188  21.544   4.569  21.969 -0.1717  0.0490 -0.1309
 7989W        W10189  13.969   6.005   5.843  0.0274 -0.2257 -0.0116
 7990W        W10190  18.378   3.447  24.269  0.0807  0.1796 -0.3337
 7991W        W10191  12.167   4.512  11.506  0.1408 -0.1481  0.0618
 7992W        W10192  14.117   4.663   2.712  0.0281  0.3177 -0.1960
 7993W        W10193   3.007   5.048  35.423 -0.1559 -0.0993  0.0225
 7994W        W10194   9.261   5.168  29.970  0.0916  0.2181  0.1633
 7995W        W10195  11.691   4.137   2.364  0.1664 -0.0220  0.0814
 7996W        W10196  24.200   0.157  32.024  0.0282  0.1057 -0.4459
 7997W        W10197  24.765   4.409  33.273  0.1789 -0.0391  0.0674
 7998W        W10198  12.060   0.217  31.727  0.0527 -0.1453  0.1193
 7999W        W10199  26.122   3.180  24.174  0.0364  0.0290 -0.2121
 8000W        W10200   9.868   1.702  30.656 -0.2271 -0.0950  0.2250
 8001W        W10201  23.036   0.105  23.419  0.1086 -0.1668 -0.3734
 8002W        W10202   6.731   2.802  11.869 -0.0052  0.1211  0.0783
 8003W        W10203  20.979   4.571  13.962  0.0138  0.1252 -0.1610
 8004W        W10204  11.268   2.388   0.169 -0.2821  0.1392  0.0523
 8005W        W10205  23.541   6.477  24.780 -0.1206  0.0062  0.2312
 8006W        W10206   6.952   1.820  25.515 -0.0154  0.2758 -0.2415
 8007W        W10207  25.870   4.510   7.214 -0.0462 -0.2380  0.2707
 8008W        W10208  22.756   3.046   5.655 -0.2451  0.0067  0.1836
 8009W        W10209   3.476   5.349  11.062  0.0031  0.0989 -0.1523
 8010W        W10210  14.816   2.377  22.161 -0.1147  0.0796  0.2831
 8011W        W10211  20.421   4.969  26.213  0.0238  0.1850 -0.1322
 8012W        W10212  23.442   0.187   8.646  0.0000 -0.0988 -0.2231
 8013W        W10213  17.487   4.771  23.176  0.0846  0.3714 -0.1847
 8014W        W10214  10.499   6.367   9.856  0.2373  0.0975  0.0521
 8015W        W10215  20.708   2.363  24.042 -0.3281  0.0424  0.1486
 8016W        W10216  12.342   1.190  14.780  0.2357 -0.1186 -0.1694
 8017W        W10217   5.864   4.981  26.082  0.1085 -0.2783  0.2210
 8018W        W10218  24.882   3.301   9.699  0.0275 -0.0700  0.0782
 8019W        W10219  18.612   3.732  24.702  0.0610  0.2795  0.1409
 8020W        W10220  25.025   2.385  24.646 -0.1805 -0.0855 -0.1570
 8021W        W10221   2.385   4.474   6.887 -0.2312  0.0220 -0.3752
 8022W        W10222  15.493   0.227  25.995 -0.0851  0.0194 -0.4047
 8023W        W10223   2.723   1.093  25.334  0.1475  0.3493 -0.1216
 8024W        W10224  18.316   6.011   7.677  0.1950 -0.1358 -0.0075
 8025W        W10225   7.036   3.424  31.627  0.1479 -0.3580 -0.1369
 8026W        W10226  19.709   0.388  10.626  0.0689 -0.0755  0.1441
 8027W        W10227  18.881   5.109  15.841 -0.3295  0.1852  0.0622
 8028W        W10228  18.392   1.861  27.533 -0.2620  0.1060  0.5475
 8029W        W10229   4.739   4.277   3.245 -0.0018  0.0811 -0.0040
 8030W        W10230  16.244   2.072  21.332 -0.2040  0.1095  0.1391
 8031W        W10231   5.306   6.249  29.440  0.0135 -0.0697 -0.0801
 8032W        W10232  23.958   2.414  13.902 -0.1179  0.0159  0.1225
 8033W        W10233  19.741   2.116  22.029 -0.0798  0.1614 -0.1871
 8034W        W10234  18.958   2.361  13.550 -0.3452 -0.0861 -0.3806
 8035W        W10235  14.894   1.274  14.985 -0.1150 -0.4383 -0.0017
 8036W        W10236   0.933   5.033  31.658 -0.0555 -0.0110  0.3977
 8037W        W10237  14.112   0.383   0.590  0.1171 -0.0303 -0.1152
 8038W        W10238   1.468   0.337   0.324 -0.1881 -0.1154 -0.0258
 8039W        W10239  15.934   5.657  35.416  0.0820 -0.0966  0.0029
 8040W        W10240   6.390   2.766  25.387  0.1769 -0.2030  0.0992
 8041W        W10241  13.266   3.875   4.588 -0.0835 -0.2153 -0.0315
 8042W        W10242  17.048   2.758  10.063  0.2744 -0.1074  0.1916
 8043W        W10243  22.857   5.859  35.834 -0.3287 -0.0214 -0.1023
 8044W        W10244   4.420   2.938   3.945 -0.1458 -0.2101  0.1161
 8045W        W10245   0.194   0.970  35.493 -0.0982  0.1306 -0.0966
 8046W        W10246   1.959   5.159  30.875  0.1904  0.0609 -0.0799
 8047W        W10247  15.717   5.186  11.988 -0.0677 -0.1966 -0.1474
 8048W        W10248  19.169   3.570  22.738  0.0703 -0.0837 -0.2492
 8049W        W10249  25.149   0.090  14.097  0.1038 -0.0433 -0.0170
 8050W        W10250  14.124   4.546  28.981 -0.1314  0.1545 -0.1015
 8051W        W10251   6.339   0.926  10.903  0.2404 -0.1168 -0.0977
 8052W        W10252   1.906   2.776  10.358 -0.2895  0.1168 -0.1044
 8053W        W10253  17.229   0.897  13.075 -0.0539  0.1617 -0.0301
 8054W        W10254  26.165   4.188   7.713  0.0116  0.1635  0.1807
 8055W        W10255  10.060   5.334  24.151 -0.0444 -0.0625 -0.0766
 8056W        W10256  16.970   0.489  32.292  0.1565 -0.0561  0.3308
 8057W        W10257   5.274   1.841   3.418 -0.1425 -0.0366 -0.0383
 8058W        W10258   9.935   4.594   9.570 -0.3164 -0.4580 -0.0466
 8059W        W10259  18.436   0.644  32.522  0.2286 -0.1606  0.0287
 8060W        W10260  12.766   1.210  29.181 -0.0372  0.0069 -0.0215
 8061W        W10261  13.978   1.040  34.200 -0.1678 -0.2369  0.0412
 8062W        W10262  19.334   2.661  26.668  0.1493 -0.0185  0.0373
 8063W        W10263  14.064   2.031  25.946 -0.1392 -0.0057  0.2343
 8064W        W10264   1.309   4.897  30.706  0.3455 -0.2195  0.0828
 8065W        W10265   3.436   2.097   3.131  0.2303  0.0380  0.1159
 8066W        W10266  22.591   0.495  26.271 -0.0825 -0.1677  0.2086
 8067W        W10267  18.508   0.539  23.848  0.0005 -0.1423  0.0021
 8068W        W10268  22.213   1.082  33.404  0.1201  0.2338 -0.0576
 8069W        W10269  21.040   3.766  33.146 -0.0133  0.1391 -0.1178
 8070W        W10270  15.102   6.254  32.936  0.0595  0.1380  0.0925
 8071W        W10271  10.687   1.779  31.800 -0.0860 -0.0238  0.3281
 8072W        W10272  17.271   3.074  33.621  0.2955 -0.0724  0.0718
 8073W        W10273  19.869   0.961  28.509  0.3025 -0.1276 -0.0822
 8074W        W10274  10.517   0.532  32.077  0.3476  0.0397 -0.0643
 8075W        W10275   9.578   0.839  12.221 -0.0685 -0.2768 -0.2554
 8076W        W10276  13.849   3.322  26.699  0.1350 -0.0969  0.0831
 8077W        W10277  24.139   6.205  35.194 -0.0207  0.2044 -0.1367
 8078W        W10278  15.316   0.566  32.594  0.0219  0.0010  0.0175
 8079W        W10279  22.754   5.242  34.417  0.0384 -0.2297 -0.0384
 8080W        W10280  22.167   5.290  27.818  0.1169  0.1002 -0.3094
 8081W        W10281   5.105   1.165   2.793 -0.0473  0.0763  0.0509
 8082W        W10282  25.407   6.100  34.125  0.0269  0.2957  0.2648
 8083W        W10283  25.431   2.258   8.671  0.0319 -0.2124 -0.0083
 8084W        W10284  23.825   4.650   8.070  0.0430 -0.1203 -0.1652
 8085W        W10285  12.731   4.421  14.930  0.0375  0.0417 -0.0442
 8086W        W10286   1.049   6.238  28.864 -0.2923 -0.1736  0.1810
 8087W        W10287  13.073   0.621  14.011  0.0159 -0.0650 -0.0461
 8088W        W10288  21.861   5.916   9.162 -0.2676 -0.2031  0.0040
 8089W        W10289  20.590   2.284  27.528  0.0338  0.0968  0.1070
 8090W        W10290  15.928   6.471  23.861  0.1365 -0.0258  0.1641
 8091W        W10291  10.329   5.631  26.020 -0.1065 -0.2670 -0.2977
 8092W        W10292  17.108   3.953  15.144 -0.0012 -0.0339  0.2185
 8093W        W10293  12.642   3.203  26.263  0.1361 -0.0194 -0.0438
 8094W        W10294   1.659   1.419  35.023  0.1204  0.0108 -0.1443
 8095W        W10295  10.519   3.220  31.812  0.3357 -0.1774  0.3842
 8096W        W10296   7.989   2.036   2.095  0.0759  0.1915  0.0185
 8097W        W10297  21.671   4.615  22.546  0.0401  0.2566 -0.1256
 8098W        W10298   3.996   4.258  13.139  0.0908 -0.1418  0.0660
 8099W        W10299  12.358   5.236  14.942  0.0750 -0.0803 -0.3127
 8100W        W10300   4.796   1.547  30.420  0.2449 -0.0965 -0.1136
 8101W        W10301   5.084   1.189   6.227  0.0838 -0.1753  0.1892
 8102W        W10302  22.148   2.761  29.883  0.3941  0.0804 -0.0840
 8103W        W10303   2.573   0.470  35.047 -0.0932 -0.0049  0.1848
 8104W        W10304  12.080   3.583  27.045 -0.0787  0.0383 -0.1710
 8105W        W10305  12.269   0.698  21.524  0.2356 -0.2078  0.0687
 8106W        W10306  17.151   4.992  35.684 -0.1420  0.3220 -0.1707
 8107W        W10307  22.128   2.235  26.059 -0.0875  0.1996 -0.1789
 8108W        W10308  13.741   3.352  12.262  0.0428  0.2759 -0.2022
 8109W        W10309   2.635   0.681  15.131 -0.2251 -0.0516  0.0451
 8110W        W10310   5.904   2.694   1.969  0.2798  0.4534  0.2287
 8111W        W10311   7.802   4.903  23.054  0.0202  0.0758  0.1078
 8112W        W10312  18.719   4.833   6.909 -0.0705  0.1960  0.0655
 8113W        W10313   3.619   2.074  29.279 -0.2217  0.0346  0.0863
 8114W        W10314  18.708   3.934   1.149 -0.1197 -0.2650  0.4243
 8115W        W10315   6.954   1.011  24.576  0.0346 -0.2114 -0.0424
 8116W        W10316  26.108   6.577   0.886 -0.2065 -0.1089 -0.0124
 8117W        W10317  21.430   4.005  32.732  0.0844  0.0989  0.0237
 8118W        W10318   3.975   0.029   9.689 -0.3113  0.1042 -0.0546
 8119W        W10319  13.997   0.242  34.496 -0.0351 -0.1729 -0.0543
 8120W        W10320   2.616   5.548  34.359 -0.0253  0.0144  0.3973
 8121W        W10321  20.137   5.608  27.182  0.0999  0.2733  0.2538
 8122W        W10322  11.954   5.415  15.233  0.2045  0.2058  0.1733
 8123W        W10323   9.922   5.999   1.458  0.0111  0.2753  0.0073
 8124W        W10324   7.499   1.973  11.137 -0.0631  0.0757  0.3378
 8125W        W10325  22.453   0.490  32.369  0.0471 -0.0946 -0.1366
 8126W        W10326   7.877   1.714  21.976 -0.0754  0.0722  0.0566
 8127W        W10327  23.362   4.001  28.162 -0.3523  0.1595  0.1709
 8128W        W10328  18.843   1.474  30.025 -0.0223 -0.0356  0.0010
 8129W        W10329   6.745   2.054  34.323  0.0846 -0.2142  0.1225
 8130W        W10330  25.056   0.546  26.949 -0.1245 -0.2621 -0.0118
 8131W        W10331  25.880   3.655  10.558  0.2287  0.0267  0.0917
 8132W        W10332  15.133   4.663  10.414 -0.3465  0.0579 -0.0715
 8133W        W10333   8.218   4.839   7.667 -0.2337 -0.1986 -0.3651
 8134W        W10334   6.431   0.305  35.869 -0.2546 -0.0031 -0.0476
 8135W        W10335  19.003   0.247  25.476  0.2686  0.0467 -0.0745
 8136W        W10336  16.806   6.562  25.177  0.0957 -0.1108 -0.0559
 8137W        W10337  11.941   2.727  13.636  0.1668  0.1074  0.2124
 8138W        W10338  23.823   3.836  35.993 -0.0221  0.2618  0.1130
 8139W        W10339  10.359   1.031   3.370 -0.0032 -0.0753  0.0912
 8140W        W10340   8.130   0.517   1.659  0.2258  0.2141 -0.1412
 8141W        W10341  19.922   2.149  35.718  0.2296  0.1080  0.1459
 8142W        W10342  22.027   3.928   8.420 -0.0075  0.2660 -0.0838
 8143W        W10343  20.341   1.941  27.859  0.2158 -0.0616  0.0865
 8144W        W10344  15.501   5.704  22.368  0.2070  0.0004 -0.2867
 8145W        W10345  15.646   5.599  14.152 -0.1102 -0.1807  0.2014
 8146W        W10346   7.591   6.373  29.634  0.0003 -0.0801 -0.3083
 8147W        W10347  19.526   4.039  21.986  0.1983 -0.2218 -0.2379
 8148W        W10348  13.767   4.164  13.799 -0.2076  0.1462 -0.0956
 8149W        W10349  19.777   1.997  12.222  0.1242 -0.0436  0.2424
 8150W        W10350  15.448   2.276   1.863 -0.6848  0.1814  0.0795
 8151W        W10351   1.742   2.868   8.889 -0.1507  0.1628 -0.3938
 8152W        W10352   3.418   3.993   8.663  0.0641  0.1322  0.0906
 8153W        W10353   2.255   1.293  31.877  0.1134 -0.0557 -0.0908
 8154W        W10354   3.879   3.948  24.034  0.1897 -0.1316  0.0493
 8155W        W10355  19.404   5.325  34.904  0.0183  0.3575  0.1152
 8156W        W10356  17.116   1.036   7.261 -0.1972  0.1717 -0.1217
 8157W        W10357   1.993   5.683  33.609 -0.0585 -0.0519  0.2556
 8158W        W10358  21.044   5.036   5.888 -0.0219  0.0544 -0.2171
 8159W        W10359   0.505   0.493   6.205 -0.0078 -0.1409 -0.1662
 8160W        W10360   8.662   4.687   6.503 -0.1219 -0.2711  0.0307
 8161W        W10361  17.120   3.329   7.035 -0.2222 -0.0478 -0.1549
 8162W        W10362   7.535   2.605  13.241  0.0324 -0.0748 -0.2941
 8163W        W10363  20.036   3.289  27.041  0.0536 -0.1298  0.0127
 8164W        W10364  26.348   0.253   0.479  0.1149 -0.4237  0.0339
 8165W        W10365  23.754   0.032  26.604 -0.1035 -0.2357 -0.0998
 8166W        W10366  17.486   5.017   0.016 -0.2053 -0.2029 -0.0602
 8167W        W10367  22.397   5.714  29.128  0.0132  0.2034  0.1577
 8168W        W10368   8.050   3.633  30.709 -0.0251 -0.2214  0.0917
 8169W        W10369  17.017   0.743   9.521  0.0252 -0.2387  0.2560
 8170W        W10370  13.609   0.509  22.308  0.3771 -0.1800 -0.0403
 8171W        W10371  22.121   4.264  20.827  0.0626 -0.0705 -0.0983
 8172W        W10372  19.340   0.672  35.219  0.3345 -0.0351 -0.0404
 8173W        W10373   9.457   2.114  30.924  0.0528 -0.0746 -0.0575
 8174W        W10374  15.215   6.290  11.845 -0.0189 -0.1290 -0.1677
 8175W        W10375   9.475   5.361  11.966 -0.0152  0.1847  0.1073
 8176W        W10376  23.309   3.096  22.903 -0.0479 -0.0154  0.1956
 8177W        W10377  17.375   3.463   6.566 -0.2882 -0.0027  0.1001
 8178W        W10378  11.508   1.070   9.788 -0.1762 -0.0361  0.0371
 8179W        W10379   7.260   5.634   9.882  0.1242  0.0407  0.0253
 8180W        W10380   0.632   5.761   0.808  0.1352 -0.1199  0.1536
 8181W        W10381  16.497   3.220   1.400  0.0527  0.1892  0.4572
 8182W        W10382  14.777   3.905  27.300 -0.0081 -0.0719  0.1051
 8183W        W10383  24.585   0.271   9.988  0.1001 -0.0379 -0.2247
 8184W        W10384   7.471   2.265  12.018  0.2546  0.2389 -0.1686
 8185W        W10385   4.277   2.384  21.874 -0.1899 -0.0383 -0.0770
 8186W        W10386   7.119   5.253  32.212 -0.0463  0.4126  0.0682
 8187W        W10387   0.231   5.613  28.916  0.0886  0.2055 -0.2062
 8188W        W10388  13.356   3.309  25.161  0.0616 -0.1036  0.1376
 8189W        W10389   4.093   0.583   1.794 -0.0175  0.1821  0.0437
 8190W        W10390  16.720   3.639  29.994 -0.0234 -0.1181  0.1307
 8191W        W10391   9.682   3.731   7.976  0.3794  0.2136 -0.0647
 8192W        W10392  24.174   0.119  25.205  0.1053 -0.2334 -0.0937
 8193W        W10393   3.044   0.932  34.362  0.1219 -0.0420 -0.4583
 8194W        W10394  12.363   2.698  33.484 -0.1187  0.1595 -0.3231
 8195W        W10395   8.454   0.355  10.225  0.0805 -0.1158  0.4083
 8196W        W10396  21.771   2.796   4.623  0.0847  0.0863 -0.0292
 8197W        W10397   2.083   4.602  24.140 -0.1284 -0.1330 -0.0400
 8198W        W10398  14.431   5.979  23.620  0.1605  0.2708  0.1892
 8199W        W10399  21.347   3.864  31.737  0.1317 -0.0819  0.0023
 8200W        W10400  21.175   1.246  28.874  0.1436  0.0643  0.0809
 8201W        W10401  23.706   3.303  15.519  0.1091 -0.1607  0.0767
 8202W        W10402  21.974   4.044   4.208 -0.2413  0.0576 -0.1362
 8203W        W10403  23.052   6.048  22.983 -0.1229 -0.0400 -0.1374
 8204W        W10404   4.736   4.530   4.965 -0.0295 -0.1351  0.3163
 8205W        W10405   3.752   3.181  32.702  0.1364  0.2619  0.0945
 8206W        W10406  22.091   4.700  21.761  0.1843 -0.1062  0.0864
 8207W        W10407   4.950   1.718  14.959 -0.1765 -0.3143 -0.0798
 8208W        W10408  19.966   5.294   1.363  0.0790 -0.0261  0.1063
 8209W        W10409   5.471   5.716  12.368 -0.1198 -0.2136 -0.2340
 8210W        W10410  22.679   0.368  35.040 -0.0161  0.0418 -0.0116
 8211W        W10411  10.793   3.390  34.506 -0.0262 -0.0121 -0.1287
 8212W        W10412  20.794   5.982  29.547  0.1897  0.1513 -0.1953
 8213W        W10413   0.238   2.891   4.013  0.2071 -0.0766  0.0523
 8214W        W10414  21.470   0.172  13.542  0.1214  0.0806 -0.0654
 8215W        W10415  26.276   6.397   7.111 -0.5313 -0.1052  0.2082
 8216W        W10416  13.598   5.094  35.022  0.2782  0.1027 -0.0959
 8217W        W10417   4.048   2.453   2.164 -0.1050  0.1696 -0.0576
 8218W        W10418  14.493   2.937  31.388  0.0260 -0.2223  0.0744
 8219W        W10419  12.051   1.381   2.313 -0.1061  0.0040 -0.2046
 8220W        W10420  18.026   4.581  27.178  0.0689 -0.3058  0.0130
 8221W        W10421  14.280   6.594   9.715 -0.0409  0.1407  0.0271
 8222W        W10422  16.172   1.411   6.743  0.0529 -0.2765 -0.1761
 8223W        W10423  18.507   1.826   8.749  0.2119 -0.0834 -0.3280
 8224W        W10424  14.638   5.582   4.992 -0.2569 -0.4039 -0.0729
 8225W        W10425  18.634   5.106  33.641  0.0086 -0.1486  0.0913
 8226W        W10426   3.601   1.329   5.531 -0.0685 -0.0183 -0.0344
 8227W        W10427  10.916   5.543  14.731  0.2342 -0.1223 -0.1631
 8228W        W10428   6.949   0.355   6.336 -0.1075 -0.1268  0.2982
 8229W        W10429   6.748   3.036  14.496 -0.0151 -0.1483 -0.0484
 8230W        W10430   5.593   2.966  26.066 -0.0368 -0.1036  0.3690
 8231W        W10431  20.971   4.280  33.813 -0.2379 -0.3684  0.2278
 8232W        W10432   7.945   2.563  29.095 -0.1304 -0.1374  0.0559
 8233W        W10433  13.549   5.057   8.814 -0.1461 -0.0348 -0.0881
 8234W        W10434  18.276   1.024  21.004  0.1768 -0.3774 -0.2835
 8235W        W10435  16.472   0.669  33.702  0.0496 -0.2099 -0.0952
 8236W        W10436  18.472   1.112  35.808 -0.0832  0.2043 -0.0899
 8237W        W10437  22.779   6.204  14.358 -0.0899 -0.0898 -0.0274
 8238W        W10438  14.446   0.064  35.803  0.1856 -0.2586 -0.1527
 8239W        W10439  13.084   2.376   3.812  0.1752 -0.0264  0.1537
 8240W        W10440  22.498   1.593  14.434  0.0232  0.1558 -0.5187
 8241W        W10441   5.034   5.909  10.000 -0.0218 -0.2174 -0.1609
 8242W        W10442  12.757   1.493  32.868  0.1987  0.0342  0.2287
 8243W        W10443  24.521   0.552  32.132  0.2841 -0.1183 -0.3551
 8244W        W10444   1.427   0.755  33.593  0.0181 -0.5693  0.0558
 8245W        W10445   8.712   2.508   1.040 -0.0023  0.0558  0.1686
 8246W        W10446  15.025   0.759  35.048  0.0648  0.1875  0.1911
 8247W        W10447   7.503   1.409   8.930  0.0787 -0.2744 -0.0585
 8248W        W10448  19.425   6.182  27.101 -0.3210 -0.4983 -0.1124
 8249W        W10449   3.046   3.898  25.680 -0.1811 -0.0293  0.2979
 8250W        W10450  12.571   5.528  14.127  0.0498 -0.0950  0.0612
 8251W        W10451  11.941   0.486  28.655  0.1334  0.1819  0.0098
 8252W        W10452   9.344   0.648   4.784  0.0383 -0.3161  0.2305
 8253W        W10453  23.560   1.667  21.543 -0.1096  0.1169  0.1043
 8254W        W10454  25.402   6.426  14.967  0.1163 -0.0080  0.2431
 8255W        W10455   5.124   0.612  32.062  0.0182  0.0226 -0.2047
 8256W        W10456   7.061   2.208  29.145  0.0488  0.0220 -0.0595
 8257W        W10457  14.113   6.133  11.999  0.0391  0.1056 -0.1444
 8258W        W10458  12.840   5.045  21.717  0.1844 -0.0459  0.1370
 8259W        W10459  18.033   2.186  33.457  0.0255  0.2391  0.0448
 8260W        W10460   6.366   0.987  12.273  0.2459  0.3426  0.0872
 8261W        W10461  15.432   0.435  30.576 -0.0536  0.0619  0.1013
 8262W        W10462  20.713   3.043   6.716 -0.0835 -0.2677 -0.2194
 8263W        W10463  24.082   2.387   8.812 -0.1108 -0.0477  0.2529
 8264W        W10464  16.127   6.371  13.194  0.1795 -0.3748  0.1472
 8265W        W10465  22.789   3.574  33.500  0.1136  0.2297  0.1014
 8266W        W10466  26.122   1.977   9.353 -0.1366 -0.3565 -0.0558
 8267W        W10467   8.704   4.943  26.472 -0.1684  0.0674  0.1304
 8268W        W10468  12.470   5.340   3.644 -0.0132  0.0564 -0.1033
 8269W        W10469  22.062   1.871   8.623 -0.0702  0.0387  0.2592
 8270W        W10470  14.117   4.387  24.885  0.2697 -0.1461 -0.0529
 8271W        W10471  15.854   1.699  12.762  0.1149  0.0958 -0.2156
 8272W        W10472  16.204   4.580   5.794 -0.1845 -0.0788  0.1540
 8273W        W10473  11.405   1.114  33.487 -0.1725 -0.0144  0.3732
 8274W        W10474   6.382   0.270  33.188  0.2058  0.2297 -0.2563
 8275W        W10475   8.855   3.979  32.154 -0.1824 -0.1283  0.3388
 8276W        W10476   7.967   3.616   8.361 -0.3954  0.1848  0.2461
 8277W        W10477  25.550   5.971  25.842 -0.5267 -0.2104 -0.0840
 8278W        W10478   5.686   5.473  23.653 -0.0178 -0.1219  0.1668
 8279W        W10479   8.491   5.960  21.947  0.2940  0.0496 -0.0335
 8280W        W10480  17.409   6.138  13.828  0.1135 -0.0817 -0.0301
 8281W        W10481  23.970   3.106  10.824 -0.6534 -0.2132 -0.0987
 8282W        W10482  22.595   2.183   9.271 -0.0304 -0.2293 -0.1718
 8283W        W10483  20.493   1.067  12.507  0.1383 -0.0937  0.0472
 8284W        W10484  19.545   3.375  30.687  0.0307  0.0208  0.1603
 8285W        W10485   5.640   3.299  29.451  0.1467  0.2283 -0.1354
 8286W        W10486  25.249   6.283  22.704  0.1627  0.1634 -0.2860
 8287W        W10487   4.250   2.620  27.004 -0.0055  0.3089  0.0352
 8288W        W10488   2.692   3.141  30.872  0.1971 -0.2897  0.1440
 8289W        W10489  13.881   3.689  11.880  0.2926  0.0730  0.1270
 8290W        W10490  26.271   0.137  10.642 -0.1747 -0.1053  0.0259
 8291W        W10491  22.919   6.410  22.621 -0.1779  0.0327  0.1488
 8292W        W10492  19.103   4.010   0.813  0.5644 -0.3469  0.1058
 8293W        W10493  16.951   0.450  27.456 -0.0523  0.0764  0.1643
 8294W        W10494  22.983   3.351   6.198  0.0921 -0.0242 -0.1287
 8295W        W10495  16.499   5.403   5.372 -0.0615 -0.1995 -0.1750
 8296W        W10496  18.130   4.969  15.342  0.0180 -0.0690  0.1459
 8297W        W10497  20.611   6.195   3.373  0.0825  0.2044  0.0101
 8298W        W10498   5.503   4.039  14.979 -0.2073  0.1984  0.0030
 8299W        W10499  10.037   0.592  31.898 -0.0243 -0.1662  0.0326
 8300W        W10500  16.993   4.073   5.283 -0.3434  0.0049  0.1273
 8301W        W10501  12.148   0.514  30.180  0.1006  0.1633 -0.3301
 8302W        W10502  23.082   4.436  35.481 -0.3345 -0.0400 -0.0792
 8303W        W10503   5.107   1.983   1.131 -0.3019 -0.4052 -0.2869
 8304W        W10504  11.197   0.072  35.295  0.1128  0.2919 -0.3140
 8305W        W10505  18.763   3.019  35.962 -0.1163  0.0989 -0.0652
 8306W        W10506  24.219   2.931  25.724  0.2429 -0.3021  0.3676
 8307W        W10507   9.873   3.451  27.762 -0.1686  0.2272 -0.0300
 8308W        W10508  22.874   0.150   4.644  0.0852 -0.3327  0.1148
 8309W        W10509   9.872   1.996   0.176 -0.0220 -0.0596 -0.2152
 8310W        W10510  20.857   1.024  25.859  0.3746  0.1553 -0.0320
 8311W        W10511   5.577   6.203   1.492  0.0137  0.1048  0.0096
 8312W        W10512   1.362   3.517   8.993  0.0024 -0.1006 -0.1138
 8313W        W10513  19.045   0.508   8.881  0.0837 -0.1437 -0.0147
 8314W        W10514  23.182   0.516   9.936  0.0573  0.1063 -0.0380
 8315W        W10515   1.812   6.050  25.226  0.0399 -0.0368 -0.2006
 8316W        W10516  19.598   6.154  23.443  0.3086  0.1053  0.4319
 8317W        W10517  17.401   6.109   5.688  0.0772 -0.0909 -0.2333
 8318W        W10518   6.967   4.040  29.433  0.0473  0.2750  0.0832
 8319W        W10519  22.452   3.634  20.632 -0.2365  0.0974  0.1938
 8320W        W10520  22.438   0.771   0.225  0.1984 -0.0968  0.0382
 8321W        W10521   8.595   0.988   0.867  0.1608  0.0600  0.0746
 8322W        W10522  14.549   5.149  13.583  0.1899 -0.1257  0.0576
 8323W        W10523   1.614   4.901  15.546 -0.0747  0.0136  0.0820
 8324W        W10524  25.277   4.016   2.978 -0.1878 -0.1132  0.0220
 8325W        W10525  20.759   4.639  23.557 -0.0482  0.0739  0.0852
 8326W        W10526  17.903   0.199   5.544  0.4525  0.3230  0.0909
 8327W        W10527  22.055   0.773  11.338  0.0997  0.0749 -0.2316
 8328W        W10528   4.406   0.703   1.468 -0.0208  0.2815  0.0129
 8329W        W10529  15.510   3.092  23.122 -0.0181  0.0051  0.0473
 8330W        W10530   4.179   3.173   3.526 -0.0390 -0.1038  0.1296
 8331W        W10531   2.847   4.725   4.500 -0.0252  0.3521 -0.1822
 8332W        W10532  25.932   3.116  23.339 -0.0929  0.2311 -0.0131
 8333W        W10533   6.890   5.191  23.037 -0.0109 -0.0364  0.1504
 8334W        W10534   3.775   4.834  10.288  0.0245  0.0697  0.1133
 8335W        W10535  17.819   0.959   4.674 -0.2578 -0.0222  0.2918
 8336W        W10536  13.533   4.201  21.722 -0.2902  0.3352  0.2426
 8337W        W10537   7.027   4.800  24.470  0.0939 -0.2545  0.3799
 8338W        W10538   1.974   3.240  35.859  0.0177 -0.0648  0.1507
 8339W        W10539  15.439   2.621  22.906 -0.0924 -0.1357  0.0956
 8340W        W10540  17.567   2.123  35.186 -0.3056  0.1802  0.0608
 8341W        W10541   9.326   3.346   1.482  0.1116  0.0484  0.1589
 8342W        W10542   7.930   0.215  34.818 -0.0558 -0.1266 -0.2920
 8343W        W10543   5.405   0.287  22.487 -0.0798  0.1304  0.0903
 8344W        W10544  20.628   6.114  23.335  0.1202 -0.3925  0.3858
 8345W        W10545  10.286   1.338  25.871 -0.1014  0.0064  0.0764
 8346W        W10546   3.183   1.336  12.726  0.1807 -0.1371 -0.0056
 8347W        W10547  22.376   4.500  31.396 -0.0823 -0.3047 -0.0085
 8348W        W10548  18.518   6.532  10.864  0.1857 -0.0917 -0.1151
 8349W        W10549  12.414   6.499   5.022 -0.0488 -0.1189 -0.4114
 8350W        W10550   2.465   4.836  32.788  0.2132  0.0983  0.0080
 8351W        W10551   5.039   6.350  11.894  0.0627  0.1608 -0.0043
 8352W        W10552  15.655   0.924  11.477 -0.0774 -0.1832 -0.1553
 8353W        W10553  17.458   5.267   8.606 -0.1086  0.1874  0.2139
 8354W        W10554  25.488   3.588   5.079  0.1772 -0.0621 -0.1210
 8355W        W10555  22.481   0.646  23.722 -0.0516  0.1801  0.0517
 8356W        W10556  10.981   5.135   7.282  0.0007 -0.2797 -0.3207
 8357W        W10557  16.270   5.048  21.881 -0.0936 -0.0680  0.2807
 8358W        W10558   6.369   6.485   3.699  0.2565  0.0496  0.0106
 8359W        W10559  21.865   0.837  10.193  0.1111 -0.0876 -0.0043
 8360W        W10560  10.939   4.693   5.167  0.0073  0.0589 -0.0391
 8361W        W10561  23.782   5.769  23.073  0.3603 -0.1145 -0.0332
 8362W        W10562  10.109   1.506  10.192 -0.1047 -0.2419 -0.0649
 8363W        W10563  14.854   5.152   5.307 -0.0850 -0.1341  0.2170
 8364W        W10564  21.887   3.686   0.957 -0.1413 -0.1580 -0.1931
 8365W        W10565  23.593   4.585  26.369 -0.0074 -0.2331  0.1025
 8366W        W10566   9.797   3.915  31.823 -0.2520  0.3502  0.1030
 8367W        W10567  14.041   1.845  30.786  0.0192 -0.0178  0.4464
 8368W        W10568   7.457   5.432   0.739  0.0819 -0.2972 -0.0725
 8369W        W10569  18.616   5.639  26.174 -0.0400 -0.1501 -0.1942
 8370W        W10570  14.119   6.081  23.139  0.1252 -0.0700 -0.0381
 8371W        W10571  20.389   1.827  11.430 -0.1811  0.1783 -0.0859
 8372W        W10572   1.435   5.586  28.271  0.0152 -0.1814  0.0248
 8373W        W10573   2.653   2.824   8.672 -0.0261  0.0078 -0.0533
 8374W        W10574  21.911   5.085   5.030 -0.0381  0.0235  0.1332
 8375W        W10575  20.203   1.214  10.773  0.0808  0.0889 -0.1210
 8376W        W10576   7.942   5.022   4.857  0.1592  0.3135  0.1159
 8377W        W10577   3.086   0.145  11.185  0.2336 -0.0688 -0.0467
 8378W        W10578  11.538   2.219   9.968 -0.0286 -0.1596 -0.1216
 8379W        W10579  16.143   1.233  20.967 -0.0824  0.1245 -0.1931
 8380W        W10580   0.631   4.641  22.196  0.0334  0.2241  0.0529
 8381W        W10581   6.402   2.479  34.282  0.1825  0.0135 -0.0636
 8382W        W10582  11.333   1.946   3.264  0.0677  0.2811 -0.0687
 8383W        W10583   0.704   4.900   3.221 -0.2184  0.2720 -0.0036
 8384W        W10584  19.770   6.305   0.796 -0.1663 -0.0491 -0.1491
 8385W        W10585  21.291   1.664  28.589  0.0427  0.1369 -0.0037
 8386W        W10586  12.629   3.646   7.940  0.0705  0.0279 -0.1057
 8387W        W10587   8.676   4.686   1.640 -0.1486 -0.0612  0.5737
 8388W        W10588   0.816   0.391   3.596  0.3614  0.1334  0.0356
 8389W        W10589  17.173   1.376   5.740  0.0053  0.0906 -0.0526
 8390W        W10590  14.796   1.384  30.467  0.1098 -0.0293  0.1802
 8391W        W10591  22.043   4.963  32.645 -0.5544 -0.0789  0.0734
 8392W        W10592  23.534   5.229  23.333  0.0173  0.0204  0.4263
 8393W        W10593  17.484   3.537  29.046  0.1108  0.2041  0.2469
 8394W        W10594  13.096   6.532   7.250  0.0245  0.2658  0.3502
 8395W        W10595   5.792   3.472   4.912  0.1842  0.0303 -0.2042
 8396W        W10596  10.780   2.195   2.686 -0.1085 -0.2176  0.0544
 8397W        W10597   7.282   2.599  33.308  0.0304 -0.1831  0.2253
 8398W        W10598  20.681   4.353  23.039  0.0687  0.0743  0.1067
 8399W        W10599  23.935   0.914   7.932 -0.0275  0.3288  0.1665
 8400W        W10600  25.715   2.577  25.510 -0.0619  0.0335  0.2756
 8401W        W10601  24.230   3.094   5.630 -0.1160  0.1326  0.0503
 8402W        W10602   8.191   5.180  22.228  0.1523 -0.1594 -0.0068
 8403W        W10603  24.039   3.401  30.253  0.4495  0.0504  0.0293
 8404W        W10604  26.159   5.783   5.870 -0.0323 -0.1769  0.1256
 8405W        W10605  20.895   4.487  12.022  0.2512  0.2015 -0.1010
 8406W        W10606   2.461   2.563  12.055  0.1087 -0.0485  0.0556
 8407W        W10607  19.467   0.170  13.779 -0.0253  0.0184  0.0840
 8408W        W10608  10.562   1.733  14.041  0.1679 -0.3865 -0.0036
 8409W        W10609   0.724   2.446   7.942  0.0857  0.0256 -0.0861
 8410W        W10610  22.553   2.066  34.390 -0.0484 -0.0146  0.2459
 8411W        W10611  20.933   5.698   7.039  0.2185  0.1470 -0.2911
 8412W        W10612  20.895   5.579   8.401  0.1303  0.1488 -0.0721
 8413W        W10613  11.620   2.332  27.690 -0.1069 -0.0072 -0.0387
 8414W        W10614   4.250   0.653  23.028  0.0031 -0.1255  0.1501
 8415W        W10615   5.687   0.851   0.572  0.3896 -0.2874 -0.1710
 8416W        W10616   7.629   1.002  14.559  0.0344  0.1757 -0.2119
 8417W        W10617  12.186   4.197  32.889  0.2366 -0.0633  0.1644
 8418W        W10618   0.641   4.548   0.709  0.2493  0.4941  0.0637
 8419W        W10619  19.307   0.058  28.270 -0.1657  0.1449  0.1187
 8420W        W10620   4.660   3.566  22.691  0.0008  0.0088  0.1579
 8421W        W10621   4.713   5.529  35.703 -0.1532 -0.3366 -0.0272
 8422W        W10622  26.153   0.651  12.430  0.1256  0.0475 -0.0327
 8423W        W10623  23.497   2.419  14.257 -0.0667 -0.0407  0.0366
 8424W        W10624  14.329   6.451  23.379 -0.0825 -0.1819  0.0761
 8425W        W10625   7.805   1.603  10.358 -0.2519 -0.1510 -0.0162
 8426W        W10626  11.805   4.229  32.254 -0.0455  0.0412 -0.1230
 8427W        W10627  10.170   5.680  23.235 -0.0739 -0.0690 -0.2337
 8428W        W10628  13.707   5.555  29.625  0.0574 -0.1315  0.0616
 8429W        W10629  23.211   2.236  23.869  0.0061 -0.1465  0.0180
 8430W        W10630  25.256   6.098  15.278 -0.2506 -0.0011 -0.2387
 8431W        W10631  16.128   0.070  33.241  0.1067  0.0265  0.0856
 8432W        W10632  14.169   5.678  10.295 -0.3192 -0.1041 -0.0726
 8433W        W10633  12.095   3.789  32.408  0.3159  0.0236  0.2623
 8434W        W10634  17.937   2.607   2.890 -0.1373 -0.0587  0.2799
 8435W        W10635   7.155   6.153  29.450  0.0594  0.3017  0.0094
 8436W        W10636   3.038   3.876  32.668 -0.0260  0.2903 -0.2991
 8437W        W10637   5.994   0.170   7.343 -0.1404  0.2391 -0.3062
 8438W        W10638  16.632   1.069   8.520 -0.0115  0.0124  0.0808
 8439W        W10639  21.939   3.651   7.261 -0.2637  0.0365 -0.0069
 8440W        W10640  12.594   0.563   8.452 -0.0116  0.1457 -0.0848
 8441W        W10641  19.842   5.448   8.645 -0.0971  0.0625  0.3038
 8442W        W10642  19.931   1.000  30.655  0.1054 -0.3826  0.2424
 8443W        W10643  14.966   4.827  28.336  0.1348  0.0186  0.4424
 8444W        W10644  10.023   6.443   1.941 -0.0636 -0.2791 -0.2441
 8445W        W10645  25.623   0.190  32.833  0.2820  0.4324  0.0005
 8446W        W10646  15.145   4.951   6.073  0.0505 -0.2115  0.0403
 8447W        W10647  23.369   0.761  21.214 -0.1037  0.0847 -0.3364
 8448W        W10648  23.038   1.103  33.068  0.1849  0.3327  0.0889
 8449W        W10649   2.305   5.252   5.301  0.2349  0.0381  0.2584
 8450W        W10650   6.120   3.754   9.486 -0.0525 -0.0299 -0.1605
 8451W        W10651   1.268   1.149   5.260  0.1258  0.0564 -0.2007
 8452W        W10652   2.470   3.757   6.111 -0.0816  0.3666 -0.0374
 8453W        W10653   2.356   2.424   4.848  0.1233 -0.1270  0.2047
 8454W        W10654   2.196   4.241  30.044 -0.1983 -0.3759  0.1020
 8455W        W10655  10.717   3.054  10.203  0.0032 -0.0968  0.0884
 8456W        W10656  23.844   3.139   9.858  0.1160  0.1039 -0.0320
 8457W        W10657  19.992   3.471   5.664  0.1929  0.1819  0.0403
 8458W        W10658  13.655   1.009   3.226 -0.1111 -0.1223 -0.2380
 8459W        W10659  18.103   3.486   3.083 -0.0066 -0.0515 -0.4246
 8460W        W10660  21.962   2.740  25.339  0.0403 -0.1906  0.1549
 8461W        W10661  13.892   3.486  27.476  0.3265  0.1531  0.1483
 8462W        W10662  20.740   5.155   3.108 -0.0135 -0.0032  0.0602
 8463W        W10663  10.399   2.423  33.754  0.5118  0.3790  0.0130
 8464W        W10664   9.118   4.425   5.243 -0.0419  0.2505  0.0925
 8465W        W10665  20.423   2.911   9.029 -0.1845  0.0562  0.0551
 8466W        W10666  22.566   1.934  25.984  0.1628 -0.0297  0.1818
 8467W        W10667  16.702   5.948  33.282  0.0950  0.2380  0.0596
 8468W        W10668   0.606   6.422  24.890  0.1127 -0.4663  0.2588
 8469W        W10669   7.579   1.006  25.266 -0.2327 -0.0180  0.1772
 8470W        W10670   0.042   5.120  28.411  0.0258  0.1279 -0.0055
 8471W        W10671  11.264   6.592  23.129 -0.0212 -0.1853 -0.4701
 8472W        W10672  16.818   6.179  10.818  0.1496 -0.1126 -0.0212
 8473W        W10673  19.938   4.469  21.141  0.0388 -0.1086  0.0742
 8474W        W10674   6.608   5.748  12.825 -0.3166  0.1308  0.0301
 8475W        W10675   9.215   2.554  13.008 -0.0835 -0.1152  0.1388
 8476W        W10676   9.101   2.380  25.800 -0.1762 -0.0105 -0.2164
 8477W        W10677   5.750   1.418   4.062 -0.2195  0.2284 -0.2759
 8478W        W10678  15.889   6.505  31.193 -0.3819 -0.2972 -0.0323
 8479W        W10679   0.001   1.968  25.511 -0.1377 -0.3226  0.0657
 8480W        W10680  19.125   4.781  12.963 -0.1455 -0.4129 -0.0043
 8481W        W10681   9.216   1.650  33.123  0.0869 -0.1537 -0.0562
 8482W        W10682   5.446   2.518  10.249  0.1469 -0.0441  0.0257
 8483W        W10683  14.388   2.060  13.844  0.0737  0.0332  0.1871
 8484W        W10684   5.491   6.397  12.480  0.1559  0.3491  0.0219
 8485W        W10685   7.201   6.254  35.626 -0.0131  0.0314  0.2579
 8486W        W10686   8.378   0.962  33.967  0.2934  0.1694  0.1019
 8487W        W10687  11.378   4.362  30.977  0.0468 -0.0957  0.2476
 8488W        W10688  25.533   4.822   7.485  0.1930  0.2789 -0.1376
 8489W        W10689  15.617   5.239  13.878  0.3579  0.3080  0.0109
 8490W        W10690  11.155   2.150  13.597  0.1188 -0.2097  0.1506
 8491W        W10691  25.224   0.239  30.394 -0.2059  0.3409 -0.0854
 8492W        W10692  11.082   4.596  23.573  0.3777  0.0248 -0.1904
 8493W        W10693  17.748   4.383  31.453  0.0592 -0.1237 -0.0734
 8494W        W10694  15.180   5.530  10.009  0.0820 -0.1169  0.2661
 8495W        W10695   9.450   6.295  10.903 -0.4211 -0.1493 -0.3739
 8496W        W10696  12.250   2.158  30.876  0.0605 -0.1465  0.1459
 8497W        W10697   7.252   0.414  27.004 -0.0965 -0.0397  0.2407
 8498W        W10698  23.973   1.341  20.583 -0.0830 -0.2218 -0.0207
 8499W        W10699  13.346   3.518  34.253 -0.0209  0.3333  0.2989
 8500W        W10700   4.032   5.118  35.528  0.0618 -0.0717 -0.2025
 8501W        W10701  21.481   5.295   1.168  0.0800 -0.0128 -0.3304
 8502W        W10702  23.328   5.251  35.840 -0.1783 -0.4231 -0.0052
 8503W        W10703   3.875   1.120   6.303 -0.0955  0.2147 -0.3884
 8504W        W10704  17.737   3.918  20.794 -0.1359  0.3798  0.0654
 8505W        W10705  11.388   0.910  21.139  0.2517 -0.4912 -0.6037
 8506W        W10706  14.324   1.169  22.281  0.0766  0.1907  0.0039
 8507W        W10707  15.474   1.239  10.178 -0.0351 -0.2313  0.1235
 8508W        W10708  25.700   5.745  24.753 -0.0193 -0.0702 -0.0803
 8509W        W10709  11.791   5.055   8.507  0.2197  0.0263 -0.0919
 8510W        W10710  20.472   6.023  25.198  0.0707  0.0270 -0.3824
 8511W        W10711  10.702   4.214  23.448 -0.1140  0.1619  0.0692
 8512W        W10712   3.531   5.299  26.335  0.1047 -0.0487 -0.0419
 8513W        W10713  21.143   1.976   0.670  0.1053 -0.3006 -0.0122
 8514W        W10714  13.900   4.285   0.085  0.0969  0.0214  0.3062
 8515W        W10715  10.493   6.582  33.962  0.0142 -0.2441 -0.0380
 8516W        W10716  19.832   3.676  31.726  0.1094 -0.4543 -0.0008
 8517W        W10717   3.762   2.753  11.672  0.3677 -0.2203 -0.0455
 8518W        W10718  12.768   3.823  35.770 -0.1600 -0.0589  0.0772
 8519W        W10719  25.398   2.814  31.066 -0.1299  0.0640  0.2433
 8520W        W10720  14.847   4.220   8.203 -0.2145 -0.0940  0.2590
 8521W        W10721   4.540   2.252   7.253  0.2202  0.0436  0.0900
 8522W        W10722   9.126   1.617  31.764 -0.0445 -0.0023 -0.0731
 8523W        W10723   7.877   0.946   3.739  0.0740 -0.2152  0.0422
 8524W        W10724   4.974   0.065  25.939 -0.0617 -0.0019  0.0328
 8525W        W10725  19.068   5.051  11.656  0.1452 -0.1446 -0.0337
 8526W        W10726  22.829   2.103  24.215  0.0342  0.1270  0.0624
 8527W        W10727   3.188   0.132  12.408  0.1156 -0.0206  0.0329
 8528W        W10728   4.303   5.433  20.934  0.0401 -0.5649 -0.0961
 8529W        W10729  18.146   0.507   2.393  0.0889 -0.0946  0.0205
 8530W        W10730  14.061   5.730  14.932  0.0003  0.0965  0.1515
 8531W        W10731  24.515   5.041  15.136  0.0302 -0.3355  0.0301
 8532W        W10732  11.669   1.651  22.210  0.1489 -0.2975 -0.1140
 8533W        W10733   3.621   6.486  22.866 -0.0169 -0.2005 -0.0028
 8534W        W10734  13.113   5.763  35.917 -0.3915 -0.2782 -0.0225
 8535W        W10735   0.094   4.616   2.662 -0.1898 -0.2978 -0.3184
 8536W        W10736  23.000   4.975   5.868  0.0809  0.4344 -0.0499
 8537W        W10737  20.857   4.919   3.547 -0.4565 -0.2823 -0.1277
 8538W        W10738  13.896   6.145  23.658 -0.0999 -0.1831  0.0077
 8539W        W10739   6.728   3.404   8.144  0.1484 -0.2611 -0.1959
 8540W        W10740  15.489   0.094  10.501 -0.2314  0.0391  0.2921
 8541W        W10741   1.249   4.461   8.917 -0.0575  0.0048  0.0420
 8542W        W10742  10.107   0.733  21.084 -0.1059  0.0746 -0.0938
 8543W        W10743   1.370   3.051   3.372 -0.0319 -0.2029  0.2283
 8544W        W10744   2.503   4.287  24.116  0.1441  0.0224  0.2239
 8545W        W10745  24.533   0.128  29.930 -0.2387 -0.0435  0.1983
 8546W        W10746   2.273   0.010  35.990 -0.0199 -0.0128 -0.1011
 8547W        W10747   8.898   4.420  11.983  0.0341  0.2468 -0.1135
 8548W        W10748   0.602   4.246  35.449  0.0570 -0.1246  0.3668
 8549W        W10749   9.646   6.372  25.786  0.0337 -0.0500 -0.0720
 8550W        W10750   0.656   6.437  32.415 -0.3267 -0.0401  0.0603
 8551W        W10751  21.288   5.683  27.890 -0.3627 -0.0680 -0.0750
 8552W        W10752   2.334   6.089  31.443  0.0522  0.1751  0.0192
 8553W        W10753  15.937   2.230   8.610 -0.0237 -0.0669  0.2546
 8554W        W10754   6.026   4.189  10.810 -0.1769 -0.0301 -0.1819
 8555W        W10755  10.465   0.548   3.524  0.1991  0.1168  0.0961
 8556W        W10756   3.877   6.199   6.312  0.5078  0.1534  0.0380
 8557W        W10757  10.773   1.532  31.320  0.2313  0.0783  0.3174
 8558W        W10758  12.591   4.566   2.797 -0.0832 -0.1749 -0.0438
 8559W        W10759  26.325   3.677  10.838 -0.1708  0.0479 -0.1301
 8560W        W10760  12.507   0.452  29.821 -0.4640  0.0078  0.0082
 8561W        W10761  20.181   2.271  34.597 -0.2395 -0.1604 -0.3105
 8562W        W10762  23.362   1.183  11.791 -0.0850 -0.4541  0.0560
 8563W        W10763   9.945   1.247  32.374 -0.0531  0.2232 -0.0418
 8564W        W10764  22.180   5.547  14.876  0.1060  0.1933  0.1050
 8565W        W10765   7.530   2.018  32.369 -0.2017  0.1612 -0.0898
 8566W        W10766  21.803   6.602  21.074 -0.0755  0.2520 -0.0878
 8567W        W10767  21.199   2.636  31.310  0.1926  0.0684  0.0877
 8568W        W10768   5.513   2.001   8.560 -0.0318  0.1430  0.3008
 8569W        W10769  26.143   4.385  33.622 -0.0388  0.2515  0.2673
 8570W        W10770  18.954   2.524   2.546 -0.0587 -0.2041  0.2920
 8571W        W10771  20.764   2.991  29.508  0.2616 -0.0626 -0.1725
 8572W        W10772   2.208   2.657  34.142 -0.2505  0.2385  0.0984
 8573W        W10773   8.248   2.975  27.945  0.1735  0.2464 -0.1584
 8574W        W10774  26.279   4.427  14.656 -0.0679  0.2797 -0.2212
 8575W        W10775  22.851   2.864   2.724 -0.0004 -0.0212  0.0785
 8576W        W10776  11.378   3.254  34.373  0.3789 -0.3543 -0.0613
 8577W        W10777   7.436   4.928  32.069 -0.0725  0.0703 -0.0647
 8578W        W10778  25.998   2.256  10.994 -0.0664 -0.1526  0.0588
 8579W        W10779  10.169   3.542   1.290  0.1216 -0.2325  0.1322
 8580W        W10780   2.158   6.252   7.892 -0.0069 -0.0359 -0.0156
 8581W        W10781  20.685   6.536   7.391  0.2536 -0.1037  0.0731
 8582W        W10782  18.489   5.923  30.645 -0.1279  0.2869 -0.0958
 8583W        W10783  13.959   4.495   6.617 -0.1786  0.1741  0.1789
 8584W        W10784   6.436   1.849  28.603 -0.2285  0.2929  0.1850
 8585W        W10785  13.502   4.541   8.083  0.2688 -0.0191 -0.2009
 8586W        W10786  17.537   2.747  35.033 -0.0169 -0.2000  0.1668
 8587W        W10787  18.118   4.614   1.924 -0.1146 -0.3786 -0.3383
 8588W        W10788  11.980   5.608  10.149 -0.2290  0.5033  0.0982
 8589W        W10789   7.654   2.905   4.636  0.0022 -0.2350 -0.0742
 8590W        W10790  24.689   4.673  26.070 -0.1097  0.0357  0.2245
 8591W        W10791  18.791   5.121  29.641  0.3423  0.1687 -0.2773
 8592W        W10792   0.105   0.309  31.123  0.1657 -0.0913  0.0746
 8593W        W10793  17.466   5.950  21.867  0.0160  0.3366  0.0979
 8594W        W10794  21.655   2.707  33.207  0.2862  0.0250  0.0160
 8595W        W10795  23.948   1.360  32.438  0.1132  0.0484  0.2033
 8596W        W10796  25.780   2.357   0.766  0.0417  0.2083 -0.1420
 8597W        W10797  25.392   3.823  10.142 -0.1888 -0.3442  0.1302
 8598W        W10798   5.929   0.974  35.284  0.1511  0.2984 -0.0356
 8599W        W10799   2.335   2.637   5.778 -0.0996 -0.2885 -0.1827
 8600W        W10800   6.010   1.900   5.462  0.0977 -0.0261  0.2759
 8601W        W10801  14.796   5.725  14.142 -0.2293 -0.0319 -0.3696
 8602W        W10802  10.683   0.280   6.936  0.2240 -0.0232 -0.0028
 8603W        W10803  19.816   1.982  26.360  0.2185  0.0593  0.1544
 8604W        W10804  21.551   0.526  23.334 -0.1835  0.2091  0.0415
 8605W        W10805   8.821   1.983  15.252 -0.2805  0.3888 -0.1068
 8606W        W10806  18.714   2.822  31.545  0.1023  0.0024 -0.0694
 8607W        W10807  13.838   0.340   2.329 -0.0663  0.1387  0.2798
 8608W        W10808  17.460   3.399   9.455 -0.1551 -0.2387  0.1064
 8609W        W10809   2.006   6.134  24.726  0.0545 -0.4022 -0.1976
 8610W        W10810  22.978   3.394   5.192 -0.1183 -0.2212 -0.0806
 8611W        W10811   9.017   0.910   5.380 -0.1348  0.1049 -0.1852
 8612W        W10812   0.447   1.707  33.221 -0.3561 -0.0310  0.1602
 8613W        W10813   3.768   5.237  14.470  0.0116  0.1256  0.1712
 8614W        W10814  11.872   4.677   8.092 -0.0347  0.0070 -0.2702
 8615W        W10815   0.876   3.694  32.712  0.0876  0.1694  0.0169
 8616W        W10816  20.370   1.975  21.129 -0.0242  0.1154 -0.1290
 8617W        W10817  21.742   1.022   1.898  0.1057 -0.1140 -0.2420
 8618W        W10818   0.829   1.361   0.482  0.0820  0.0827  0.2092
 8619W        W10819  17.417   0.892  28.885  0.0257  0.0799  0.1547
 8620W        W10820   3.587   2.811  24.786  0.0322  0.0105  0.0546
 8621W        W10821  24.241   5.019   1.458  0.0995 -0.1265  0.0628
 8622W        W10822   1.770   3.059  12.361  0.2582  0.1250 -0.1494
 8623W        W10823  21.108   4.828  25.006  0.1615  0.0370  0.4152
 8624W        W10824   4.034   2.505   8.441  0.2998 -0.2436 -0.0288
 8625W        W10825  18.314   5.844   0.676  0.0830 -0.0147  0.3060
 8626W        W10826   8.959   2.427  31.111 -0.0718 -0.1447  0.2947
 8627W        W10827  19.535   0.264   2.460  0.2500  0.1157 -0.0420
 8628W        W10828  19.341   6.164  35.899 -0.1339  0.1867  0.2445
 8629W        W10829   0.672   5.369  14.457  0.0054 -0.1077 -0.1612
 8630W        W10830  16.566   4.907  32.474 -0.5125  0.0362 -0.3690
 8631W        W10831   5.584   4.863  13.888  0.0056 -0.2419  0.1565
 8632W        W10832   4.496   5.966  13.250  0.0145  0.0591  0.0562
 8633W        W10833  22.239   4.667  13.615  0.0395 -0.1885 -0.2502
 8634W        W10834  18.259   3.308  28.405  0.1904 -0.4025  0.1424
 8635W        W10835  21.136   4.558  35.974  0.0847  0.0652  0.1335
 8636W        W10836  23.897   4.659   8.894 -0.2951 -0.0231 -0.2370
 8637W        W10837   3.898   5.138   9.088 -0.0649  0.3434 -0.0555
 8638W        W10838  17.266   1.141  21.791 -0.1767  0.1127  0.2432
 8639W        W10839  14.338   5.619  31.116 -0.3194  0.0307 -0.3682
 8640W        W10840  21.371   4.759  33.299  0.0396  0.0229  0.1929
 8641W        W10841  16.017   6.218  22.807 -0.0612 -0.0992 -0.3504
 8642W        W10842   7.926   0.776  12.829  0.1500  0.1801  0.1946
 8643W        W10843   3.640   4.718   0.387  0.1115 -0.1785  0.1837
 8644W        W10844   7.564   0.453  22.378 -0.0631 -0.2245 -0.1312
 8645W        W10845  12.852   2.185  36.024 -0.1420 -0.1402  0.3347
 8646W        W10846  24.655   1.035  21.634  0.2566 -0.1010  0.2685
 8647W        W10847  23.258   6.425   1.595  0.1755  0.0503  0.2687
 8648W        W10848   7.917   4.399  31.197 -0.2058 -0.2323 -0.1953
 8649W        W10849  24.697   4.915   0.633 -0.1617  0.0019  0.0835
 8650W        W10850  10.035   2.873  27.371  0.0197 -0.1100 -0.0277
 8651W        W10851   2.507   1.185   0.176 -0.4936 -0.1564 -0.0101
 8652W        W10852   6.773   0.023  20.251 -0.2130 -0.0725 -0.2817
 8653W        W10853  12.896   0.936  29.779 -0.0219 -0.0610 -0.1359
 8654W        W10854  23.268   6.269  27.781 -0.1117 -0.0863 -0.3654
 8655W        W10855   6.537   2.318  24.731 -0.4036 -0.0422  0.0456
 8656W        W10856  22.527   1.918  31.048 -0.1223 -0.0469  0.1984
 8657W        W10857   2.117   2.303  34.844 -0.0390 -0.2294 -0.4743
 8658W        W10858   3.550   3.095  25.301 -0.0908  0.1343  0.1213
 8659W        W10859  13.917   5.575  28.982  0.0105  0.1985  0.3181
 8660W        W10860  16.670   0.876  10.358  0.1197 -0.2041  0.1303
 8661W        W10861  13.624   5.490  34.721 -0.1907  0.2774  0.0988
 8662W        W10862  26.202   2.493  25.523  0.0089  0.1433 -0.0879
 8663W        W10863  20.344   5.425   1.115  0.0800 -0.1536 -0.1712
 8664W        W10864   7.826   4.323   8.326 -0.0920  0.0846  0.0638
 8665W        W10865  24.707   0.306   8.170  0.0055 -0.2583 -0.1387
 8666W        W10866   3.513   5.529  27.983 -0.1275 -0.1564  0.0495
 8667W        W10867  25.756   3.983   4.671  0.2627  0.2897  0.1170
 8668W        W10868   7.019   3.406   3.300  0.0211  0.2491  0.1584
 8669W        W10869   6.059   5.482  24.973 -0.1021  0.0609 -0.0387
 8670W        W10870  23.080   2.092  34.150  0.4692 -0.0610  0.0050
 8671W        W10871   4.407   5.144  31.585  0.2079 -0.2346  0.0341
 8672W        W10872  23.357   4.510   1.346  0.3297  0.0145  0.4422
 8673W        W10873   8.421   4.430  31.115 -0.2220  0.1733  0.0118
 8674W        W10874  23.022   2.319  21.929 -0.1214 -0.2419  0.1082
 8675W        W10875  14.398   4.234   3.792 -0.0961  0.3053  0.0028
 8676W        W10876  21.717   1.926  22.240 -0.0499 -0.0889 -0.0574
 8677W        W10877  17.936   0.279  34.729  0.1470  0.3510 -0.0343
 8678W        W10878  25.291   5.580  20.987 -0.1419 -0.0025 -0.4431
 8679W        W10879  22.389   3.476  31.775  0.1003  0.0329 -0.3463
 8680W        W10880   8.594   1.904   7.755  0.1193  0.0262  0.1511
 8681W        W10881  12.206   5.019   0.568 -0.2013  0.3834  0.0577
 8682W        W10882   2.027   4.130   6.764 -0.0710 -0.1041 -0.0119
 8683W        W10883  20.102   5.069  34.406 -0.2539  0.1445  0.2507
 8684W        W10884   0.853   4.927  26.742 -0.1479  0.0841 -0.0177
 8685W        W10885   0.344   6.089  27.272  0.0273  0.2521 -0.1270
 8686W        W10886   6.985   1.732   9.833 -0.1656  0.2357 -0.2648
 8687W        W10887  25.284   2.315  20.865  0.1827 -0.2431  0.0200
 8688W        W10888  11.085   3.575   3.021 -0.0359  0.0174 -0.1309
 8689W        W10889  20.865   2.995   4.309 -0.0779  0.1511  0.3359
 8690W        W10890  16.989   2.132  30.810 -0.0716  0.2332  0.0042
 8691W        W10891   6.424   3.832  30.397  0.1646  0.0297 -0.1583
 8692W        W10892  12.663   5.420   5.082 -0.1850  0.0320  0.1004
 8693W        W10893  14.481   2.400  22.836  0.1409  0.1009 -0.3470
 8694W        W10894  22.478   3.140  24.433  0.0457  0.0699 -0.2392
 8695W        W10895  19.103   4.557  24.492 -0.0427  0.3489  0.1420
 8696W        W10896   3.803   0.316   8.152 -0.0026  0.2535 -0.2263
 8697W        W10897   8.557   1.018   7.975  0.0563 -0.2440  0.2600
 8698W        W10898  20.045   0.455   6.972  0.2118  0.0492  0.1216
 8699W        W10899   5.218   1.289   7.163  0.2143 -0.0460 -0.0035
 8700W        W10900  23.183   5.407   3.086  0.0891  0.0316  0.0470
 8701W        W10901  20.845   1.998  15.128 -0.0921  0.1843 -0.1227
 8702W        W10902  20.960   0.202  14.742 -0.1130  0.3498  0.2044
 8703W        W10903  25.761   1.719  28.152 -0.2774  0.1914 -0.1090
 8704W        W10904  21.418   4.570   8.118 -0.0448 -0.0591  0.3398
 8705W        W10905  24.306   6.405  29.607  0.0939 -0.0524 -0.2821
 8706W        W10906  15.780   5.105  26.770  0.0405  0.1163  0.0376
 8707W        W10907  24.741   3.694  32.502 -0.2145 -0.0766 -0.1079
 8708W        W10908  24.529   4.699   5.961  0.0349 -0.0478  0.2109
 8709W        W10909  25.905   2.951  22.868  0.1236  0.0809  0.1774
 8710W        W10910   0.095   6.300  25.000 -0.0939  0.0826 -0.2533
 8711W        W10911  23.136   1.040  32.018  0.1277  0.1324  0.1320
 8712W        W10912  17.634   2.235   4.776 -0.2205 -0.2841 -0.1748
 8713W        W10913  21.556   4.033  24.227 -0.0598 -0.0265  0.4122
 8714W        W10914  19.389   3.196  25.130 -0.1916 -0.2203 -0.0471
 8715W        W10915  20.711   1.587  23.713 -0.0020 -0.1558  0.1635
 8716W        W10916  14.144   3.408   7.006  0.0968 -0.0139 -0.3013
 8717W        W10917   2.828   2.544   7.794  0.0241 -0.0184 -0.1264
 8718W        W10918   2.329   3.076   3.548 -0.2033  0.3126 -0.1144
 8719W        W10919   1.383   3.479  24.965 -0.3410  0.1056  0.0524
 8720W        W10920  13.064   1.696  32.520  0.2264 -0.0755 -0.2517
 8721W        W10921  13.633   0.076  15.234 -0.0128 -0.1810  0.0002
 8722W        W10922  13.680   1.945  32.786  0.2608  0.0385  0.3933
 8723W        W10923   7.851   5.129  31.768  0.2271  0.1418  0.0772
 8724W        W10924  19.501   2.403   2.421 -0.1107  0.0858  0.1599
 8725W        W10925  13.233   0.295  35.255  0.2118  0.0574 -0.3239
 8726W        W10926  11.164   4.888  30.906 -0.1493 -0.0013 -0.1746
 8727W        W10927  14.960   4.425  11.930 -0.1832 -0.1884  0.1539
 8728W        W10928  15.412   0.265  23.790 -0.0288 -0.0845 -0.2465
 8729W        W10929  13.712   4.516   3.108  0.0767 -0.0881  0.0417
 8730W        W10930  14.754   2.024  29.937 -0.0214 -0.0436 -0.0849
 8731W        W10931  13.653   3.989   2.313 -0.0888  0.2622  0.0121
 8732W        W10932  15.173   3.769   8.184 -0.1025 -0.1115  0.1105
 8733W        W10933  22.020   6.188  10.136  0.0031  0.1024 -0.0564
 8734W        W10934   9.120   4.080  25.499 -0.1093 -0.0155 -0.2480
 8735W        W10935  10.072   0.238   7.924 -0.0333 -0.3671 -0.3043
 8736W        W10936  20.793   1.990   2.438 -0.0990  0.1794  0.1113
 8737W        W10937   9.838   5.497  16.060 -0.0552 -0.2093 -0.0887
 8738W        W10938  15.614   5.962   6.920 -0.0227 -0.0921  0.0870
 8739W        W10939  11.208   4.979  28.989 -0.3678  0.1978  0.1095
 8740W        W10940  19.172   0.641  21.682  0.1502 -0.0138  0.1204
 8741W        W10941  15.923   0.810  14.875  0.0857 -0.2563 -0.0597
 8742W        W10942  15.709   3.480  26.677  0.0770  0.0662 -0.0720
 8743W        W10943   2.105   3.638  23.460  0.0806  0.1224 -0.2580
 8744W        W10944  26.406   4.128  24.553 -0.1137 -0.0278  0.1499
 8745W        W10945  15.235   0.568   9.250 -0.0677  0.1538  0.0693
 8746W        W10946  13.982   1.531   8.803  0.3916 -0.0316  0.1460
 8747W        W10947   4.598   1.050  30.418 -0.2284  0.3903 -0.0791
 8748W        W10948  26.111   1.780  22.607  0.0850  0.0903 -0.1078
 8749W        W10949  17.346   6.229   8.023  0.2171  0.1544  0.5554
 8750W        W10950   6.766   3.114   7.787 -0.2293  0.0133 -0.1059
 8751W        W10951  13.741   3.174  30.191 -0.0286  0.2818  0.1989
 8752W        W10952  17.395   0.868   3.009 -0.2500 -0.0615  0.3098
 8753W        W10953   7.364   5.008  25.733 -0.0190  0.0547 -0.2438
 8754W        W10954  12.308   1.180  31.302  0.0025  0.1457 -0.3781
 8755W        W10955  14.612   5.291   0.585  0.0285  0.0245  0.0014
 8756W        W10956   9.567   4.258   9.891 -0.3159  0.2686  0.0290
 8757W        W10957   7.972   4.601  15.154 -0.1661  0.1614 -0.3732
 8758W        W10958  17.987   1.297   7.014  0.0783  0.0047 -0.1466
 8759W        W10959  15.234   5.517   8.712 -0.0207  0.1582  0.1687
 8760W        W10960  10.765   5.519  15.218 -0.1606  0.2159  0.0060
 8761W        W10961  12.688   6.341  25.897  0.2974  0.0166  0.0647
 8762W        W10962  15.969   2.056  23.170  0.1600  0.1345 -0.2680
 8763W        W10963   3.705   3.833   9.086 -0.0883  0.0314  0.1365
 8764W        W10964  18.597   2.315  12.529 -0.0238 -0.0118  0.0229
 8765W        W10965  24.204   4.065  22.138  0.0751  0.0129  0.2323
 8766W        W10966   7.399   0.815  24.736 -0.2008  0.0199  0.0624
 8767W        W10967  16.163   1.997  24.355  0.0035  0.1434  0.0373
 8768W        W10968  23.729   5.543   2.348  0.2256  0.1110  0.1506
 8769W        W10969  19.296   5.085   4.160 -0.0828 -0.1126  0.0369
 8770W        W10970  17.210   0.225   6.143  0.1043 -0.0506  0.0607
 8771W        W10971   0.769   0.755  10.780 -0.1883  0.0068 -0.1322
 8772W        W10972  22.405   3.269  14.488 -0.0726  0.0902  0.3758
 8773W        W10973   2.828   3.037  10.353 -0.0781  0.2776  0.3578
 8774W        W10974   8.034   3.629   4.645 -0.2810 -0.2906 -0.3944
 8775W        W10975   4.224   5.775   6.423  0.1237  0.0974 -0.1155
 8776W        W10976  12.690   2.108   3.859  0.0882 -0.1309 -0.2567
 8777W        W10977   1.208   4.862   1.349  0.0809  0.2105 -0.0579
 8778W        W10978  14.331   2.146   7.713  0.0161 -0.1625 -0.2193
 8779W        W10979   8.564   6.118  32.641  0.0367 -0.0282  0.0231
 8780W        W10980   5.389   2.388  26.064 -0.0076 -0.0532 -0.0654
 8781W        W10981  15.131   6.166  27.974  0.3407 -0.3635 -0.1753
 8782W        W10982  15.114   4.834   5.085 -0.0520 -0.0520  0.0658
 8783W        W10983  16.106   0.135  10.871  0.3871  0.1631 -0.1568
 8784W        W10984   5.551   2.490  14.705  0.0596 -0.2571 -0.1428
 8785W        W10985  16.293   0.617   3.935 -0.2291 -0.1097 -0.2207
 8786W        W10986   9.630   1.463  33.436  0.0546 -0.1085  0.1260
 8787W        W10987   9.167   3.999  33.617 -0.1974 -0.0823 -0.0630
 8788W        W10988  11.609   5.388   8.182  0.0239  0.0905  0.1907
 8789W        W10989  16.767   4.940   2.480  0.1279 -0.0261 -0.4803
 8790W        W10990  22.337   4.817   2.908 -0.0397  0.0539  0.1401
 8791W        W10991   3.263   5.768  15.172  0.0722 -0.0581  0.1894
 8792W        W10992  23.594   2.018   5.959 -0.2526  0.1847  0.0548
 8793W        W10993   6.911   0.883  20.985 -0.2664 -0.0504  0.1075
 8794W        W10994  22.106   2.248  35.674 -0.2658  0.1961 -0.4642
 8795W        W10995  25.571   4.626  31.869 -0.3302  0.3063 -0.1261
 8796W        W10996   9.017   0.999   3.535  0.0658 -0.2584 -0.0878
 8797W        W10997   4.515   2.294  13.131 -0.0706  0.0527 -0.2433
 8798W        W10998  10.368   0.975  26.186  0.0846  0.0238  0.4507
 8799W        W10999  16.672   4.776  29.442  0.1332 -0.6160 -0.1462
 8800W        W11000  16.909   1.466  15.319  0.0871 -0.1485 -0.1799
 8801W        W11001  16.605   4.204  24.042  0.0627  0.3729  0.0352
 8802W        W11002  16.809   6.275  21.373  0.1317 -0.0354 -0.1348
 8803W        W11003   6.850   0.991  21.951 -0.0107 -0.0610 -0.1107
 8804W        W11004  13.354   0.672   2.218 -0.0928  0.0683  0.1437
 8805W        W11005  18.943   0.686  29.004  0.1079  0.1333 -0.4017
 8806W        W11006  18.629   5.093   0.003 -0.1836  0.1280 -0.0417
 8807W        W11007  12.700   0.658  33.215 -0.2842 -0.4242  0.0889
 8808W        W11008  24.733   3.873  11.969 -0.2327  0.1732 -0.1722
 8809W        W11009  10.587   6.247   5.270  0.2745 -0.0423 -0.0765
 8810W        W11010  20.015   3.658  30.557 -0.0916  0.1555  0.0930
 8811W        W11011  13.758   5.020   7.171 -0.0283 -0.4559  0.2201
 8812W        W11012  12.359   5.541   0.155 -0.1862  0.3868 -0.0052
 8813W        W11013  18.661   4.526  14.166 -0.1118  0.0380 -0.1361
 8814W        W11014   2.320   3.926  31.471 -0.1008 -0.0182 -0.1812
 8815W        W11015  19.324   4.548  26.254  0.2928 -0.0165 -0.4157
 8816W        W11016   2.827   1.749   9.375  0.1604  0.0221  0.1754
 8817W        W11017  20.450   0.668  30.113 -0.1195  0.0239 -0.2828
 8818W        W11018  25.309   5.678  20.460  0.1253 -0.0632  0.0917
 8819W        W11019  12.939   0.469   9.922  0.4357 -0.3912 -0.1327
 8820W        W11020   5.611   5.541  11.056  0.1367  0.0130  0.1313
 8821W        W11021   2.327   0.964  25.067 -0.3736 -0.3708  0.0548
 8822W        W11022  23.263   0.493   1.926 -0.2512  0.0829  0.0954
 8823W        W11023  25.745   6.420  35.967 -0.1730  0.0711  0.3639
 8824W        W11024   2.718   4.994   7.773  0.0446 -0.2191 -0.1861
 8825W        W11025  16.586   3.747   0.171 -0.0230  0.0525  0.0890
 8826W        W11026  18.136   5.609  30.872  0.2105 -0.3600 -0.2412
 8827W        W11027   4.881   0.495   2.210 -0.1452  0.1656 -0.1391
 8828W        W11028  11.647   6.112   6.249 -0.0452  0.2034 -0.2411
 8829W        W11029  18.385   5.651  29.350 -0.1188 -0.2027 -0.1156
 8830W        W11030   5.603   2.553  25.665  0.2782 -0.0697  0.0172
 8831W        W11031   3.175   3.168  26.290  0.1013  0.1490  0.0682
 8832W        W11032  12.739   2.834   5.579 -0.0369 -0.1754 -0.1944
 8833W        W11033  16.118   0.939  25.293 -0.0442 -0.1884  0.0264
 8834W        W11034  23.572   5.453   9.962  0.2219  0.3169  0.0303
 8835W        W11035  19.707   1.965   3.358  0.1320  0.0509 -0.0746
 8836W        W11036  19.606   3.742  31.215  0.3877  0.0295  0.0285
 8837W        W11037  23.904   5.620  31.938 -0.0301  0.1746 -0.1606
 8838W        W11038  21.793   5.476  33.388 -0.0404  0.3061 -0.0211
 8839W        W11039   1.786   2.264  10.306 -0.1429 -0.1528 -0.3387
 8840W        W11040   8.027   5.861  14.827 -0.3956 -0.1018  0.1413
 8841W        W11041  20.602   2.833  15.060 -0.0888  0.1911 -0.0978
 8842W        W11042  25.641   6.297   0.736  0.0326 -0.2244 -0.0650
 8843W        W11043   9.000   6.328  32.681  0.0637  0.1460 -0.0073
 8844W        W11044  13.561   1.931   8.585  0.1811  0.0204 -0.0003
 8845W        W11045  24.202   0.393   4.371 -0.0683  0.0906  0.0780
 8846W        W11046  14.547   4.877  28.838  0.1319  0.0632  0.0083
 8847W        W11047   7.859   1.933  34.760  0.0334 -0.1489 -0.0934
 8848W        W11048  13.095   2.193  27.166 -0.0313 -0.0943  0.0814
 8849W        W11049   0.163   3.830   9.018  0.3784  0.1535 -0.0445
 8850W        W11050   8.155   1.373  29.594 -0.1596  0.1206  0.0246
 8851W        W11051   3.063   3.381   7.470 -0.1128  0.0492 -0.2190
 8852W        W11052  15.025   1.585  35.630  0.2714 -0.0218  0.0491
 8853W        W11053   2.125   4.141  25.684  0.3010  0.1243 -0.0650
 8854W        W11054  25.068   5.613   6.852 -0.1853  0.1067  0.3144
 8855W        W11055  12.988   3.178  27.277 -0.0380  0.4181  0.2565
 8856W        W11056   3.410   3.270   7.039 -0.2596  0.0341 -0.2944
 8857W        W11057  20.420   4.331  34.743  0.2132  0.0463 -0.1789
 8858W        W11058  11.023   0.358  30.450  0.2131 -0.3705  0.1487
 8859W        W11059   3.295   3.591   2.601 -0.0363  0.0077  0.2096
 8860W        W11060   5.205   0.579   5.245  0.0709  0.2862 -0.1465
 8861W        W11061  11.448   4.836  22.172 -0.1654 -0.2351  0.0540
 8862W        W11062  12.540   5.139   5.521  0.3110  0.0579  0.1964
 8863W        W11063  17.130   0.160  14.280  0.1161  0.0247 -0.0249
 8864W        W11064   2.835   4.921  21.742  0.1328 -0.2321  0.2155
 8865W        W11065   8.127   1.857  26.643 -0.0036 -0.0575 -0.0026
 8866W        W11066  21.857   0.979  14.069 -0.2475 -0.3490 -0.0421
 8867W        W11067   1.300   1.090  14.822  0.2753 -0.1121 -0.3536
 8868W        W11068  11.808   6.106  31.033  0.1103 -0.0380 -0.4344
 8869W        W11069  21.145   3.783  31.287  0.2736 -0.2085 -0.0589
 8870W        W11070  12.700   0.622  11.986 -0.0659  0.1982 -0.3496
 8871W        W11071  13.411   1.554  33.676 -0.1640  0.0914  0.1559
 8872W        W11072  18.190   4.101  11.867  0.0554 -0.1327  0.0112
 8873W        W11073  16.764   1.245  24.353  0.0926  0.0153  0.0475
 8874W        W11074  25.970   2.317  22.083  0.1302  0.0302  0.0553
 8875W        W11075   9.094   2.721  34.377 -0.0224  0.1889  0.0988
 8876W        W11076   9.753   2.585   1.314  0.0242  0.1476  0.2096
 8877W        W11077   2.967   2.445   4.069 -0.0594 -0.2199 -0.0718
 8878W        W11078   2.155   3.672  21.711 -0.1380 -0.0509  0.0714
 8879W        W11079  17.300   1.351  13.229 -0.0380 -0.3005 -0.0144
 8880W        W11080  13.267   5.617  15.461  0.0222  0.2207  0.0763
 8881W        W11081  20.595   1.512  12.234  0.1132  0.0484 -0.0637
 8882W        W11082   8.988   3.447  29.322  0.0468 -0.4843  0.1187
 8883W        W11083  10.934   4.586  32.168 -0.0890  0.1473  0.2290
 8884W        W11084   6.615   6.180  10.385  0.0403 -0.0730 -0.1676
 8885W        W11085   0.210   2.972  22.331  0.0692  0.1293  0.0321
 8886W        W11086   5.052   4.791  35.435 -0.0393 -0.0785 -0.1161
 8887W        W11087   9.681   2.699  31.631 -0.1867  0.2276 -0.2189
 8888W        W11088  16.677   0.337  22.424 -0.1177  0.0915 -0.0550
 8889W        W11089  22.744   6.172  34.801  0.0575  0.0453  0.1580
 8890W        W11090   8.345   2.768  11.023 -0.0186  0.1348  0.0938
 8891W        W11091  10.537   1.555  27.086  0.3339 -0.1498  0.1003
 8892W        W11092   9.602   2.020  33.244 -0.1225 -0.3189  0.1707
 8893W        W11093  11.360   4.756   4.912 -0.0783  0.0381 -0.0757
 8894W        W11094  14.253   2.921  14.304  0.2129 -0.0412  0.2766
 8895W        W11095  12.946   4.420   2.058 -0.0448 -0.0759  0.0582
 8896W        W11096   4.588   0.319  12.617  0.2409 -0.0710  0.4558
 8897W        W11097   3.533   0.271   7.188 -0.0936  0.0939 -0.0151
 8898W        W11098   0.750   0.501   2.678 -0.1715 -0.0026  0.0639
 8899W        W11099  15.006   1.168   1.225 -0.2527  0.0671 -0.1797
 8900W        W11100  21.993   2.761  12.252 -0.0753  0.2747  0.2305
 8901W        W11101  11.758   4.385   5.781 -0.1637 -0.2200 -0.0837
 8902W        W11102   1.700   2.883   2.918  0.1271  0.4235  0.1880
 8903W        W11103   5.301   4.209  34.182  0.1014  0.1951  0.1498
 8904W        W11104  13.029   3.519  32.395  0.3597  0.2601  0.1088
 8905W        W11105  23.078   1.075  23.740 -0.0153 -0.0134  0.1046
 8906W        W11106  11.379   4.168  34.907  0.0662 -0.1508  0.2143
 8907W        W11107  11.091   6.258  26.227 -0.0005 -0.0318  0.1777
 8908W        W11108  22.913   5.284  24.854  0.0488 -0.2587  0.0735
 8909W        W11109   2.951   1.956  27.722  0.2114  0.0292 -0.1060
 8910W        W11110  25.528   2.311  26.371 -0.0921 -0.0646 -0.1621
 8911W        W11111   3.155   5.623  26.294  0.0736 -0.2036  0.2684
 8912W        W11112  17.343   1.959  30.301 -0.0661 -0.1469  0.1099
 8913W        W11113   7.883   4.287   6.435  0.1387  0.0280  0.3324
 8914W        W11114  10.818   4.478  26.696  0.3031  0.0838  0.2516
 8915W        W11115   2.579   2.207  14.188 -0.2898 -0.3495  0.0476
 8916W        W11116  22.817   6.160  32.601  0.2119  0.3067  0.1724
 8917W        W11117  22.815   3.688   1.639 -0.2518  0.1739  0.1850
 8918W        W11118  10.817   4.154  22.775  0.0121 -0.1465 -0.2401
 8919W        W11119   7.756   1.049  11.763  0.1778  0.1375 -0.5595
 8920W        W11120  25.288   0.199   5.232 -0.0255  0.0215 -0.0402
 8921W        W11121   1.575   4.536  35.353 -0.1107  0.0987 -0.2817
 8922W        W11122  11.794   2.471  31.187 -0.1314  0.0325 -0.1074
 8923W        W11123  24.728   3.248  32.876 -0.1334  0.1274 -0.4599
 8924W        W11124  13.342   3.121  12.764 -0.0413  0.0069 -0.2048
 8925W        W11125   3.931   2.851  32.384 -0.2463 -0.1854  0.2101
 8926W        W11126  21.444   5.226  14.932  0.0341  0.1673 -0.0800
 8927W        W11127  15.981   4.378  12.679  0.0500  0.2773 -0.2732
 8928W        W11128   5.841   3.096  13.104 -0.1027 -0.1085  0.3384
 8929W        W11129   7.874   6.520   7.028 -0.1021 -0.2899  0.4023
 8930W        W11130   0.551   3.878  20.901  0.1169  0.1138  0.0238
 8931W        W11131   3.713   4.657  23.045  0.3020  0.0095  0.0490
 8932W        W11132   5.399   4.700  15.628  0.0088 -0.0023  0.3070
 8933W        W11133   1.521   6.176  29.020  0.2560  0.1335 -0.0987
 8934W        W11134  14.497   0.793   3.846  0.2335  0.1308  0.0764
 8935W        W11135  13.085   6.003  12.949  0.1351 -0.0305  0.0126
 8936W        W11136  22.543   5.940   2.933  0.1146  0.2919 -0.1114
 8937W        W11137  10.722   5.729  29.937  0.0610 -0.0371 -0.0074
 8938W        W11138   7.816   6.111  29.215 -0.0088  0.3805 -0.2517
 8939W        W11139  12.668   3.544  13.841  0.1744  0.1078 -0.2370
 8940W        W11140  16.800   3.022   2.034 -0.2368 -0.2599  0.0896
 8941W        W11141  20.502   3.883  28.978  0.0807 -0.0298 -0.0934
 8942W        W11142  17.930   4.152  26.894 -0.0912 -0.1883  0.0420
 8943W        W11143  12.654   4.860  10.799 -0.0003  0.0128 -0.0939
 8944W        W11144   9.524   0.949  35.850  0.1793 -0.0100  0.1431
 8945W        W11145   3.270   3.141  15.414 -0.0029 -0.1979  0.1225
 8946W        W11146   2.009   1.636  26.243 -0.3132 -0.2646  0.3299
 8947W        W11147   2.382   2.083  23.078 -0.0954  0.0303  0.0745
 8948W        W11148  25.822   3.898  32.324 -0.2067 -0.0847 -0.0798
 8949W        W11149  25.895   1.501  30.316  0.0709  0.1467 -0.2195
 8950W        W11150  10.529   2.408  22.335  0.2524  0.1560  0.2507
 8951W        W11151   6.616   1.261   5.119  0.2708 -0.1616  0.0389
 8952W        W11152  20.660   3.383  23.169 -0.1042 -0.1585  0.0043
 8953W        W11153   1.439   6.139  11.870  0.2499 -0.4036 -0.0998
 8954W        W11154  16.931   1.751   8.357 -0.2899  0.0798  0.0140
 8955W        W11155  23.648   3.949   6.773 -0.2547  0.2774  0.1634
 8956W        W11156  25.477   6.152   5.938  0.2515  0.1272  0.2223
 8957W        W11157  14.048   0.884   8.301  0.4514  0.2858  0.1009
 8958W        W11158   1.745   1.830  29.735  0.0038 -0.0522 -0.1006
 8959W        W11159  23.619   4.937  29.111  0.2159 -0.1579 -0.0728
 8960W        W11160  15.429   0.301   3.278 -0.0360 -0.0377  0.1355
 8961W        W11161  14.404   0.139  22.501  0.0479 -0.0313  0.0385
 8962W        W11162   7.891   0.742  24.955 -0.0197 -0.0043 -0.0427
 8963W        W11163  25.510   0.947   8.392 -0.0629 -0.0628 -0.1561
 8964W        W11164  23.746   2.182  30.812 -0.3373 -0.0323 -0.2263
 8965W        W11165   1.561   1.684   2.995 -0.0795 -0.2382 -0.1472
 8966W        W11166  22.730   3.622  24.510 -0.0395  0.0410 -0.1056
 8967W        W11167   6.317   1.800  35.384  0.1065  0.2800 -0.1528
 8968W        W11168   6.273   5.360  21.530  0.4716 -0.2932  0.1051
 8969W        W11169   4.940   4.870   8.547  0.0612 -0.2040  0.1170
 8970W        W11170   7.178   3.348  20.705 -0.0486 -0.0077  0.3156
 8971W        W11171   7.060   6.065   5.796 -0.0524  0.1530  0.0212
 8972W        W11172  11.708   1.363  24.063 -0.1740  0.0516 -0.0715
 8973W        W11173  14.515   6.055  32.084  0.0410  0.2440  0.1979
 8974W        W11174  13.421   2.000   7.657  0.0425  0.1103  0.1195
 8975W        W11175  21.178   4.421   5.806  0.0561  0.1214  0.1607
 8976W        W11176  20.551   5.203   5.787  0.3198  0.2109  0.3578
 8977W        W11177  17.312   1.279  34.068 -0.0265 -0.0335 -0.2153
 8978W        W11178  25.305   2.177  25.855  0.0269 -0.1058 -0.1911
 8979W        W11179   8.783   0.313  11.799 -0.1442  0.5308 -0.1621
 8980W        W11180  22.962   2.875  22.416  0.1567  0.1986 -0.3854
 8981W        W11181  13.244   6.524  24.043 -0.1675  0.2802 -0.1061
 8982W        W11182   0.347   1.695  15.198  0.0659 -0.0249 -0.0352
 8983W        W11183  24.737   2.580   1.030  0.0417 -0.0740 -0.0462
 8984W        W11184   3.098   6.141   4.376 -0.1848 -0.0605 -0.2525
 8985W        W11185   7.306   5.554  14.813 -0.0296 -0.1774 -0.0969
 8986W        W11186   0.600   5.284   7.846 -0.3152 -0.1310 -0.0490
 8987W        W11187   0.909   5.664  30.645  0.2028  0.0136  0.0626
 8988W        W11188   8.943   4.470  33.593  0.0476 -0.2324 -0.1378
 8989W        W11189   7.565   0.934   4.143 -0.0648  0.1791  0.1354
 8990W        W11190   2.534   5.435   9.882 -0.3328  0.0472  0.2454
 8991W        W11191  20.775   0.310  11.064  0.0277  0.0088 -0.0929
 8992W        W11192   8.072   3.446  27.830 -0.0588 -0.0051 -0.3513
 8993W        W11193   4.327   6.292  34.076 -0.0643  0.0060  0.0911
 8994W        W11194  19.573   4.514   4.577  0.1982  0.0766 -0.2258
 8995W        W11195  24.618   6.291  35.206  0.2930 -0.2218 -0.0782
 8996W        W11196  16.378   6.369   0.372  0.0492 -0.0727 -0.2918
 8997W        W11197   3.022   1.065   2.688 -0.3858 -0.1282 -0.2339
 8998W        W11198   6.869   3.501  14.766 -0.0224  0.0229  0.0945
 8999W        W11199  11.389   3.427  15.679  0.1047 -0.0346 -0.0276
 9000W        W11200   4.547   1.700  22.468 -0.1996 -0.1496  0.1128
 9001W        W11201   3.131   3.989  24.557  0.1126 -0.2240  0.1523
 9002W        W11202  23.364   3.978   5.057 -0.0753  0.3322  0.0827
 9003W        W11203   1.433   5.342   4.816 -0.3937 -0.2178  0.3748
 9004W        W11204  23.271   6.008  21.038  0.0696 -0.0591 -0.0166
 9005W        W11205  25.142   1.248  12.979 -0.2125 -0.0973 -0.1407
 9006W        W11206  16.041   5.248  14.201 -0.3201  0.3670  0.3063
 9007W        W11207  18.793   2.592   0.219 -0.1260  0.1324  0.0340
 9008W        W11208  16.559   3.290  32.148  0.1607  0.0836 -0.4282
 9009W        W11209   6.567   3.285  12.445 -0.5471  0.2410  0.0798
 9010W        W11210  15.709   0.785  26.635 -0.4101  0.1912  0.0595
 9011W        W11211  18.299   3.535   3.555 -0.4405 -0.0750  0.1484
 9012W        W11212  17.225   0.302  29.612 -0.0834 -0.0514 -0.2147
 9013W        W11213  18.368   3.157  29.957 -0.3249 -0.0550  0.1025
 9014W        W11214  23.300   3.525  20.673 -0.1141 -0.4222  0.0620
 9015W        W11215  19.285   2.422  13.192 -0.2329 -0.1453 -0.0741
 9016W        W11216  19.984   0.463  31.076 -0.1723  0.2417 -0.1127
 9017W        W11217  16.909   6.145   5.579 -0.0766 -0.0562 -0.2036
 9018W        W11218   4.034   3.966  24.671  0.2497  0.0432  0.0460
 9019W        W11219   6.959   1.750  14.533  0.2003  0.0040  0.0677
 9020W        W11220  24.192   2.694  34.579  0.0780 -0.3615 -0.1393
 9021W        W11221  19.127   5.619  26.979  0.1021 -0.1200 -0.0899
 9022W        W11222  14.772   6.354  21.434 -0.1745 -0.1132  0.0346
 9023W        W11223   4.658   4.770  26.761 -0.0749  0.0240  0.0948
 9024W        W11224   9.441   3.104  11.805  0.0432  0.1438 -0.2397
 9025W        W11225  22.769   1.605   7.491  0.0578  0.1575 -0.1149
 9026W        W11226  25.735   0.993  32.513  0.1496 -0.1505  0.1710
 9027W        W11227   3.523   0.130   3.746  0.2039  0.0783  0.1272
 9028W        W11228   7.492   6.512   7.477 -0.0506  0.2187  0.1760
 9029W        W11229  15.911   5.463   2.194  0.0557  0.0154  0.2845
 9030W        W11230  23.967   5.867  13.662  0.0063  0.0976  0.1264
 9031W        W11231  13.678   5.115  29.150 -0.0403 -0.4020  0.1669
 9032W        W11232   8.955   3.254  26.708  0.1589 -0.0574 -0.2707
 9033W        W11233   1.086   6.070  12.163  0.2786  0.2318  0.0535
 9034W        W11234  11.032   3.770  12.953  0.0786  0.1770 -0.1839
 9035W        W11235  25.224   2.940   3.235  0.0096 -0.2914  0.2822
 9036W        W11236  19.171   6.186   6.690 -0.2655 -0.0428  0.0878
 9037W        W11237   9.996   1.514  35.315  0.2410  0.1245 -0.1600
 9038W        W11238  12.112   2.479   6.300  0.2928 -0.0274 -0.0448
 9039W        W11239  22.511   5.379  21.400  0.0539 -0.1838 -0.0252
 9040W        W11240  19.910   2.688  25.783 -0.2034  0.2020 -0.1386
 9041W        W11241  26.368   4.689   9.087 -0.0911  0.0609 -0.0238
 9042W        W11242   7.532   1.268   2.306 -0.1122  0.2525  0.1394
 9043W        W11243  22.827   1.989   2.664  0.4859  0.0216 -0.0373
 9044W        W11244  12.711   5.968   0.162  0.0227 -0.3279 -0.2016
 9045W        W11245  21.277   6.455  12.981 -0.1486 -0.0361  0.2714
 9046W        W11246   8.422   3.530  33.149 -0.0516  0.0924 -0.1127
 9047W        W11247  17.117   6.098  29.339 -0.2166  0.0008 -0.1274
 9048W        W11248   2.630   5.686  26.966  0.0233  0.2367 -0.0536
 9049W        W11249  14.921   0.971  21.290  0.2387  0.1417  0.3097
 9050W        W11250   5.525   2.102  13.395 -0.1153  0.0480  0.0170
 9051W        W11251   9.931   2.718  14.333  0.2759  0.0325  0.4554
 9052W        W11252   4.125   3.720   3.660 -0.2253  0.2457  0.3076
 9053W        W11253   0.387   6.127  33.240  0.0593 -0.0558 -0.0056
 9054W        W11254   1.238   2.621  33.866 -0.1985 -0.1168 -0.2750
 9055W        W11255  13.171   5.657   4.350 -0.1824 -0.0711 -0.0735
 9056W        W11256  24.446   1.749  32.546  0.1180 -0.0312  0.2715
 9057W        W11257   2.860   4.394   5.886  0.2627 -0.1326  0.1022
 9058W        W11258   8.147   0.736   6.495  0.0018  0.0590 -0.2605
 9059W        W11259   3.021   0.324  29.695 -0.3075 -0.0182 -0.1301
 9060W        W11260   0.076   5.190   9.163  0.0698 -0.1422  0.2349
 9061W        W11261  12.126   4.306   9.181 -0.0807 -0.0619 -0.1565
 9062W        W11262   3.265   5.987  25.244 -0.0652  0.0791  0.3885
 9063W        W11263  18.355   2.019   1.265  0.1726 -0.2337 -0.0869
 9064W        W11264  24.635   3.567  35.645  0.2610 -0.1328  0.0006
 9065W        W11265   7.275   0.670  20.688 -0.2141  0.0304  0.1043
 9066W        W11266  12.729   5.773   4.160  0.3672 -0.1496 -0.0037
 9067W        W11267   5.223   1.694   2.913  0.0313  0.0408 -0.1554
 9068W        W11268  16.464   2.899  11.568  0.0272 -0.0487 -0.4193
 9069W        W11269  25.924   2.152  29.223 -0.0631 -0.0986  0.2167
 9070W        W11270  13.044   1.600  20.829  0.1027 -0.0131  0.0026
 9071W        W11271   3.981   3.072   8.409 -0.0398 -0.1065  0.1609
 9072W        W11272  12.734   6.563  28.015 -0.2668 -0.2485  0.1745
 9073W        W11273   5.946   5.354  14.101 -0.1942  0.2650  0.1651
 9074W        W11274  10.857   3.873  21.380  0.1481 -0.2126  0.1903
 9075W        W11275   9.968   4.509  30.109 -0.0186  0.0548 -0.0828
 9076W        W11276   6.484   0.179   6.164  0.1156 -0.1165 -0.0521
 9077W        W11277  25.706   5.454  32.785 -0.0292  0.0821  0.2663
 9078W        W11278   0.270   0.037   6.454  0.0918  0.0449  0.0555
 9079W        W11279   8.247   0.836   9.323  0.2044 -0.0629 -0.2564
 9080W        W11280   4.436   6.241   4.797  0.2463  0.0436  0.1088
 9081W        W11281   2.985   0.005   4.558  0.3139  0.0260 -0.0755
 9082W        W11282   2.169   0.848  12.654  0.0982  0.0302  0.0600
 9083W        W11283   6.090   6.384  24.632  0.3467 -0.0430  0.3822
 9084W        W11284  14.057   3.080  20.603 -0.0788 -0.0079  0.1995
 9085W        W11285  11.680   2.918  14.475 -0.1963  0.1957 -0.2878
 9086W        W11286  12.340   4.264   5.766 -0.1513  0.0391  0.0812
 9087W        W11287  13.074   5.284   8.681  0.1214 -0.1152  0.1426
 9088W        W11288  18.937   0.294  13.807 -0.0770 -0.0440  0.5568
 9089W        W11289   4.511   6.184  36.031 -0.0185  0.0567  0.0012
 9090W        W11290   4.576   1.714   4.533 -0.0251 -0.0150 -0.4208
 9091W        W11291   3.700   2.615  30.283 -0.0055  0.0141 -0.0389
 9092W        W11292  13.732   4.410  24.556  0.1165  0.0511  0.2069
 9093W        W11293   6.096   2.033  28.870  0.1336  0.3015  0.2101
 9094W        W11294   3.818   6.102  11.361 -0.3296 -0.0660  0.2615
 9095W        W11295  24.445   2.807  27.957 -0.2356  0.2651  0.0700
 9096W        W11296  10.996   2.991  27.047  0.0750 -0.1182  0.0056
 9097W        W11297   6.930   4.852  22.186 -0.0445 -0.0354 -0.0710
 9098W        W11298   9.713   4.392  23.331  0.1627 -0.3209 -0.0608
 9099W        W11299   3.668   1.234  33.442  0.0918  0.1559 -0.0579
 9100W        W11300   6.359   5.398  20.883  0.3040 -0.1494 -0.2824
 9101W        W11301   8.844   4.271   8.247  0.0625  0.0251  0.0226
 9102W        W11302  22.005   0.187  29.066 -0.1864  0.1388 -0.0452
 9103W        W11303   4.847   4.981  34.268 -0.1197 -0.1997  0.0752
 9104W        W11304   2.143   3.442   8.363 -0.0643  0.0144 -0.2481
 9105W        W11305  11.615   1.795  28.431 -0.2315  0.2208  0.0910
 9106W        W11306  17.480   4.325   6.572  0.0238  0.1972 -0.1974
 9107W        W11307  22.315   2.829  34.800 -0.0221 -0.0163 -0.1662
 9108W        W11308  13.671   3.930   7.676 -0.0800  0.1613  0.0637
 9109W        W11309   2.231   3.073   8.716  0.0399  0.0508  0.0395
 9110W        W11310  18.374   5.839   3.992 -0.2085  0.2773  0.2391
 9111W        W11311   6.098   3.731  35.253 -0.2341 -0.1067  0.1839
 9112W        W11312   1.681   4.307  12.380 -0.1000 -0.1032 -0.3696
 9113W        W11313  15.415   0.075  32.603 -0.1411  0.1380 -0.0469
 9114W        W11314   7.100   5.612  23.449 -0.1695  0.0954  0.0193
 9115W        W11315   8.634   5.900  33.572 -0.3588  0.1273  0.1594
 9116W        W11316   7.764   1.277  13.579  0.1280 -0.1302  0.3301
 9117W        W11317  24.522   4.405   8.611 -0.2625  0.0040 -0.3719
 9118W        W11318  19.010   4.256   8.450 -0.0371 -0.2779  0.3460
 9119W        W11319  19.865   2.528  20.857  0.0726 -0.0237 -0.1425
 9120W        W11320  19.172   4.706  21.154 -0.0449 -0.3085  0.1270
 9121W        W11321   7.693   4.230   7.793 -0.0999  0.0221  0.0930
 9122W        W11322  17.858   2.889  11.507  0.0180  0.0466 -0.1922
 9123W        W11323  19.181   1.625  21.484 -0.1149 -0.0260 -0.0894
 9124W        W11324   2.403   4.235   9.860  0.3956 -0.1040  0.0341
 9125W        W11325  16.904   2.936  28.677  0.2313  0.5070  0.0168
 9126W        W11326   8.046   3.499  26.357 -0.3754 -0.2475 -0.0884
 9127W        W11327  16.926   0.077  32.550 -0.2300 -0.1600  0.0384
 9128W        W11328  14.977   4.212  32.240  0.2220  0.1594  0.0336
 9129W        W11329   6.724   0.895  36.071 -0.0478 -0.0792  0.1918
 9130W        W11330  16.433   5.565  11.563  0.0395 -0.2218 -0.2450
 9131W        W11331   1.891   2.779  21.481 -0.2389  0.3771 -0.1904
 9132W        W11332   5.346   0.744  12.146 -0.1077  0.0905  0.0906
 9133W        W11333   6.393   2.084   5.186  0.0478  0.3461 -0.1965
 9134W        W11334  24.118   3.365  13.792  0.1873  0.0175 -0.0496
 9135W        W11335  10.804   6.068   0.727  0.2261  0.0235  0.1047
 9136W        W11336   4.860   6.244  29.822  0.0425 -0.0538  0.2195
 9137W        W11337   5.601   2.986   5.339  0.2072  0.0042 -0.0903
 9138W        W11338  14.012   5.017  23.350  0.0818  0.2829  0.1860
 9139W        W11339   3.557   3.606  35.932  0.0254  0.0318 -0.0286
 9140W        W11340  13.503   4.544   8.821  0.1983 -0.1389 -0.0993
 9141W        W11341   9.816   3.189  29.289  0.2323 -0.1202 -0.1274
 9142W        W11342  15.609   0.909   0.203  0.0940 -0.1829  0.0066
 9143W        W11343  13.449   2.036  29.370 -0.1810 -0.0197 -0.0536
 9144W        W11344  20.309   5.616   1.651  0.1918 -0.0323 -0.0448
 9145W        W11345  10.900   0.463  14.019  0.1281 -0.1007 -0.0160
 9146W        W11346  25.861   4.043  35.406  0.1906 -0.0190  0.0299
 9147W        W11347  10.503   1.104  13.466  0.1383  0.0097  0.0450
 9148W        W11348   8.492   5.792  34.027 -0.0891 -0.0685 -0.3000
 9149W        W11349  12.744   6.172  28.402  0.2700  0.1656 -0.1743
 9150W        W11350   3.115   4.801   6.176  0.0100  0.1524 -0.0797
 9151W        W11351  18.114   3.246  20.867 -0.3216 -0.0346  0.1741
 9152W        W11352  11.413   3.846  33.226  0.0582 -0.2434 -0.1758
 9153W        W11353  23.272   3.946  25.706 -0.0632  0.1599 -0.2526
 9154W        W11354   6.741   2.446  13.815 -0.2790  0.1839  0.0134
 9155W        W11355  24.668   5.286   6.117  0.4407 -0.2801 -0.1070
 9156W        W11356  20.336   5.663  35.551  0.1902  0.2586 -0.0986
 9157W        W11357  21.804   3.476  11.561 -0.1922  0.2146 -0.0406
 9158W        W11358  12.945   2.203   7.784 -0.0516 -0.3079 -0.0380
 9159W        W11359   6.209   1.101   4.193 -0.2686 -0.2658  0.1407
 9160W        W11360   9.731   0.565  14.063  0.0869  0.1391  0.1026
 9161W        W11361   3.550   2.619   7.269  0.1210  0.0134 -0.0545
 9162W        W11362  10.268   1.687  32.135  0.2147 -0.0560  0.0769
 9163W        W11363   7.933   2.226  35.190  0.2089  0.2366 -0.2693
 9164W        W11364   7.001   3.971  23.407  0.2427 -0.1126  0.0264
 9165W        W11365  20.441   6.316  30.926  0.0935  0.1385 -0.3458
 9166W        W11366   1.679   5.546   0.545  0.2095  0.2433  0.2489
 9167W        W11367   1.269   3.893  31.723 -0.2409  0.3121 -0.0749
 9168W        W11368   3.888   1.465  21.320 -0.1822  0.3284 -0.0134
 9169W        W11369  12.485   2.364  13.012 -0.1659 -0.0170  0.0269
 9170W        W11370   7.861   4.800  30.180 -0.1767 -0.0577  0.1833
 9171W        W11371   5.182   4.167  12.904 -0.0653 -0.1977 -0.1694
 9172W        W11372  21.613   1.515  29.912  0.0745 -0.1892  0.1353
 9173W        W11373  22.082   6.462  23.546 -0.1217 -0.1039  0.1418
 9174W        W11374   8.112   6.559   1.294  0.1416 -0.0044 -0.2217
 9175W        W11375   5.080   0.990  21.520  0.3795  0.0929  0.0463
 9176W        W11376  13.928   4.572  10.875  0.1161  0.0006 -0.0074
 9177W        W11377  17.317   1.226  10.767 -0.3680 -0.1146 -0.1678
 9178W        W11378   2.498   6.551  31.557 -0.0358 -0.2795 -0.1908
 9179W        W11379  19.790   4.419  35.217 -0.0107 -0.1824 -0.0134
 9180W        W11380   8.239   2.234  12.824 -0.1059 -0.3056 -0.0843
 9181W        W11381  19.183   5.866   8.199 -0.0857 -0.1033 -0.1597
 9182W        W11382   8.498   1.718  22.360  0.0758 -0.0467 -0.0533
 9183W        W11383   7.015   6.129   6.489  0.0972 -0.1219 -0.3214
 9184W        W11384  16.491   4.600  22.815 -0.1195  0.0107 -0.0078
 9185W        W11385  12.031   1.737  30.670  0.0003  0.0529  0.4459
 9186W        W11386  20.168   1.711  10.365 -0.2059  0.1534 -0.1442
 9187W        W11387  11.422   6.188  35.464  0.0817 -0.0813  0.0631
 9188W        W11388   4.554   0.789  26.919  0.0362  0.1701  0.2745
 9189W        W11389  17.726   4.572  27.859  0.0237  0.1249  0.1370
 9190W        W11390  24.198   5.210   6.344 -0.0086  0.0875  0.1757
 9191W        W11391   0.128   3.313  13.911 -0.0597 -0.1481 -0.3729
 9192W        W11392   0.105   3.951  22.952  0.0882 -0.0444  0.0007
 9193W        W11393  14.953   5.955  35.202 -0.1116  0.3071 -0.2103
 9194W        W11394   1.453   3.915   1.068 -0.0251  0.2069 -0.1815
 9195W        W11395  19.176   4.249  11.053 -0.2355  0.2896 -0.0443
 9196W        W11396  21.654   0.580  33.013  0.2493  0.1418  0.2361
 9197W        W11397  22.528   4.843   6.859  0.3242 -0.3576  0.2821
 9198W        W11398  26.400   0.791   2.079  0.0665 -0.2242 -0.1003
 9199W        W11399   1.598   6.476  20.587 -0.2309 -0.0183  0.0539
 9200W        W11400  20.644   5.693  10.666  0.1423 -0.2608 -0.0551
 9201W        W11401  19.763   6.344  27.952 -0.2425  0.0662 -0.1334
 9202W        W11402   1.998   4.401   7.212 -0.0102 -0.0624  0.1248
 9203W        W11403  20.167   5.408   5.527  0.0499 -0.1731 -0.0489
 9204W        W11404  12.535   3.436  12.096  0.1451  0.0356 -0.0766
 9205W        W11405  23.376   6.417  23.686  0.2711 -0.1087 -0.2040
 9206W        W11406  21.471   1.274  22.990 -0.5253  0.0992  0.2195
 9207W        W11407   5.850   5.348   9.376  0.1204 -0.0294  0.0750
 9208W        W11408  11.366   1.194  30.149  0.2710  0.2215 -0.0974
 9209W        W11409  16.767   1.202  13.171  0.0413 -0.4810 -0.3399
 9210W        W11410  25.377   5.493  33.136  0.0716  0.0510 -0.0685
 9211W        W11411  14.842   0.227   9.082 -0.3358  0.3145 -0.2611
 9212W        W11412   7.662   4.004  27.925  0.0669  0.0361 -0.1070
 9213W        W11413  16.895   2.756   9.573 -0.0215 -0.0732 -0.0213
 9214W        W11414   4.750   6.132  20.718 -0.0075 -0.0442 -0.1553
 9215W        W11415   7.778   6.065  30.167 -0.2117 -0.3459 -0.0087
 9216W        W11416  12.790   3.144  24.049 -0.0816 -0.1044 -0.3449
 9217W        W11417  15.463   6.588   5.886  0.0680  0.0446 -0.1219
 9218W        W11418   2.535   5.574  33.539  0.1149 -0.0006 -0.0528
 9219W        W11419  20.660   1.784  29.776  0.3487  0.1741 -0.2816
 9220W        W11420   7.333   5.248   3.067 -0.2323 -0.0790  0.1279
 9221W        W11421  25.026   1.282  27.889  0.1201 -0.2207 -0.0795
 9222W        W11422  10.671   5.122  14.880 -0.3172 -0.1436  0.0993
 9223W        W11423   3.159   3.426  32.405 -0.0542 -0.0238  0.0660
 9224W        W11424  15.284   5.206   2.586  0.0972  0.1039  0.0812
 9225W        W11425   6.209   1.558  20.688 -0.0862 -0.2798 -0.0142
 9226W        W11426  13.483   5.995  11.404  0.1266 -0.1335  0.1815
 9227W        W11427   6.403   2.525  30.341 -0.0636 -0.0795  0.3250
 9228W        W11428  23.804   6.524  26.087  0.0151  0.1076  0.0355
 9229W        W11429   8.132   1.766   9.112  0.1944  0.5204 -0.1452
 9230W        W11430  24.353   4.225  12.182  0.0561  0.2198 -0.0130
 9231W        W11431  17.249   2.345   7.010 -0.1007  0.0580  0.4320
 9232W        W11432  14.619   3.767  25.489  0.3899  0.1308  0.0377
 9233W        W11433  25.745   3.113  14.514  0.3558 -0.0273 -0.2502
 9234W        W11434  12.651   1.391  26.828 -0.1551 -0.0580  0.3335
 9235W        W11435   8.614   4.239  10.194  0.5094  0.0560  0.0749
 9236W        W11436   2.612   2.635  28.332  0.1268  0.0567  0.1074
 9237W        W11437   3.158   0.621  22.129  0.1993 -0.4046  0.1224
 9238W        W11438  18.066   6.085  25.047  0.2200  0.0102 -0.2320
 9239W        W11439  17.741   2.200   7.443 -0.2162  0.0929 -0.1594
 9240W        W11440   0.905   3.695  27.428 -0.1497  0.1025  0.4662
 9241W        W11441  16.712   5.475  13.265  0.1235 -0.0305  0.4445
 9242W        W11442   1.818   6.052  34.630 -0.3110 -0.0937 -0.1559
 9243W        W11443  17.803   2.976   8.142  0.0432 -0.0119  0.0045
 9244W        W11444  17.690   5.957  12.213  0.0999  0.2535 -0.0509
 9245W        W11445   2.988   3.774  28.017 -0.2005  0.1835 -0.0534
 9246W        W11446  14.503   2.757  13.463 -0.0753 -0.1692 -0.2426
 9247W        W11447  24.002   3.213  14.301  0.2124 -0.2283 -0.2437
 9248W        W11448  25.614   3.371  11.021 -0.0909  0.1801  0.0024
 9249W        W11449  24.413   6.390  33.094 -0.1639 -0.0566  0.1481
 9250W        W11450  13.349   5.137   9.533  0.0833  0.0913 -0.2188
 9251W        W11451   6.997   3.041  27.418  0.0294 -0.0552 -0.0665
 9252W        W11452  24.813   3.063  23.944  0.4040  0.1801  0.3387
 9253W        W11453   2.901   2.722  23.294 -0.0830 -0.0277  0.0707
 9254W        W11454   2.902   4.502   5.021  0.0391  0.1478  0.3191
 9255W        W11455  14.137   3.682   1.806 -0.1965  0.1253 -0.0246
 9256W        W11456   6.946   1.130  11.493 -0.0115 -0.3983 -0.1058
 9257W        W11457  12.053   1.274   4.812 -0.2183  0.2016  0.1091
 9258W        W11458   2.735   6.433   0.092  0.0517  0.1349 -0.0493
 9259W        W11459  18.940   3.839  15.544 -0.1666  0.2133  0.0854
 9260W        W11460  16.174   0.208   4.308 -0.3361 -0.1505 -0.0412
 9261W        W11461  14.375   0.678  15.189 -0.0682  0.1410 -0.0534
 9262W        W11462  12.479   0.055  13.861  0.0872 -0.4065 -0.0807
 9263W        W11463  19.228   0.034  29.691  0.0548  0.0508  0.0403
 9264W        W11464  13.729   4.048   6.466 -0.1205  0.3113  0.2456
 9265W        W11465  18.971   6.437  27.391  0.1609  0.0088  0.4969
 9266W        W11466   6.774   2.386   8.358 -0.1714  0.1533 -0.0241
 9267W        W11467  24.478   2.796  26.474  0.0608  0.0568  0.0840
 9268W        W11468  26.242   2.197  23.420 -0.0834  0.3351 -0.1893
 9269W        W11469  16.006   0.729  20.767  0.2092  0.0319 -0.1656
 9270W        W11470   7.207   1.553  11.191 -0.1262 -0.2021 -0.1789
 9271W        W11471  25.549   2.192  12.494  0.0856  0.1933 -0.1098
 9272W        W11472   3.708   2.966   6.665  0.2987  0.0324  0.0747
 9273W        W11473   0.324   5.576  10.732  0.1293  0.1456 -0.0110
 9274W        W11474  22.015   5.284   6.377  0.4667 -0.0363  0.0441
 9275W        W11475  10.372   4.154  25.981  0.0219 -0.0324  0.1625
 9276W        W11476   6.988   6.128   9.758 -0.3038 -0.1415  0.1213
 9277W        W11477   0.942   2.083   8.712 -0.1338  0.0570  0.2533
 9278W        W11478  23.145   1.495  27.410  0.0270  0.0380 -0.0721
 9279W        W11479  13.660   4.459  10.450  0.2382 -0.4371 -0.0035
 9280W        W11480   9.358   0.356  22.537  0.1422 -0.2683  0.2145
 9281W        W11481  19.003   0.286  25.996 -0.3735  0.0037  0.1649
 9282W        W11482   6.049   4.522  35.076 -0.0047 -0.0749 -0.2194
 9283W        W11483  14.719   2.001  22.458  0.2562  0.2682 -0.1341
 9284W        W11484  11.783   4.751  32.318 -0.0878  0.2902 -0.0021
 9285W        W11485  26.164   0.096   7.745  0.0965 -0.2184  0.0212
 9286W        W11486   8.676   0.665  13.982 -0.0264  0.4715  0.0745
 9287W        W11487  17.355   5.795   0.407 -0.1433 -0.2151  0.2970
 9288W        W11488   1.786   1.236  31.076  0.0465  0.1622 -0.0269
 9289W        W11489   1.418   0.973   4.295  0.3200 -0.1580  0.3338
 9290W        W11490  13.154   3.531   6.961 -0.0069  0.0882  0.0137
 9291W        W11491   9.730   4.762   9.997 -0.1376 -0.2267  0.0976
 9292W        W11492   9.472   1.219   3.571 -0.0153  0.2505  0.1152
 9293W        W11493   4.759   5.532  22.856 -0.1052  0.1610 -0.4229
 9294W        W11494   7.124   6.018  14.397  0.1931 -0.0350 -0.2830
 9295W        W11495  23.296   5.958  31.370 -0.0970 -0.0019  0.0208
 9296W        W11496   7.259   4.962   1.167  0.1013  0.1419 -0.1531
 9297W        W11497  14.489   4.020   1.946 -0.0242  0.0392 -0.0210
 9298W        W11498  18.733   5.140  14.241 -0.1345  0.0935  0.2192
 9299W        W11499  16.098   0.367  12.238 -0.1231 -0.0819  0.2055
 9300W        W11500   9.514   2.059   6.214  0.1181  0.0224 -0.0607
 9301W        W11501   3.961   1.337   0.634  0.3427 -0.3709 -0.0713
 9302W        W11502   1.003   1.916  32.588  0.0283  0.0687 -0.0110
 9303W        W11503  23.180   1.558  21.912 -0.1930  0.1247  0.2139
 9304W        W11504   4.937   3.036  11.507  0.2259 -0.2449  0.0420
 9305W        W11505  20.461   4.410   4.648  0.1783  0.0010  0.2595
 9306W        W11506  11.684   3.476  33.446  0.0816 -0.0587 -0.1005
 9307W        W11507  12.862   1.256   9.593 -0.0666  0.2567 -0.2608
 9308W        W11508   7.057   5.749  24.950 -0.0985 -0.3459  0.1704
 9309W        W11509  23.549   1.726  27.233  0.0329 -0.3201  0.1613
 9310W        W11510  17.043   0.991   5.518 -0.0231 -0.1566 -0.0762
 9311W        W11511   5.064   6.599   8.009 -0.0649  0.2759  0.0873
 9312W        W11512  25.554   4.556  14.293 -0.3308 -0.3166  0.0305
 9313W        W11513  12.859   2.643  15.783 -0.1277 -0.0247  0.1939
 9314W        W11514  25.922   1.888   3.490  0.0756  0.3381  0.0006
 9315W        W11515   8.607   3.050  12.490 -0.0857  0.0657  0.1017
 9316W        W11516   2.299   4.378   4.406  0.1643 -0.1752 -0.0406
 9317W        W11517  22.837   1.800  27.683 -0.0246  0.1626 -0.0253
 9318W        W11518   9.755   5.173  20.976  0.0640 -0.2683 -0.0971
 9319W        W11519  18.381   0.985   8.491  0.1311 -0.0444 -0.2489
 9320W        W11520  11.153   6.520  26.667 -0.2023 -0.0434  0.0146
 9321W        W11521  22.553   3.121  33.701 -0.0984 -0.0322 -0.1183
 9322W        W11522  25.790   6.255  29.156  0.3899 -0.2275 -0.1191
 9323W        W11523  21.917   3.145  35.824 -0.0578 -0.1896  0.1237
 9324W        W11524   2.686   0.961  33.396 -0.0580 -0.2705  0.1929
 9325W        W11525   6.015   4.383   8.136 -0.0200 -0.1888  0.1811
 9326W        W11526  21.980   4.276   5.205  0.2137  0.0301 -0.0219
 9327W        W11527  25.964   6.280  12.748  0.3397 -0.2545 -0.2494
 9328W        W11528   3.101   6.489  14.703 -0.0233  0.0047 -0.3439
 9329W        W11529  17.627   2.999  30.356  0.1603 -0.3265  0.1489
 9330W        W11530  18.645   5.573  30.972 -0.1200 -0.0583 -0.0956
 9331W        W11531  21.032   4.732  30.750  0.3141  0.2459  0.3732
 9332W        W11532  25.017   2.167  11.185 -0.0398  0.1042  0.1310
 9333W        W11533   5.320   0.452   4.118 -0.0027 -0.0690  0.2534
 9334W        W11534  11.245   0.480  23.159  0.0374 -0.2406  0.0564
 9335W        W11535   0.728   2.298  22.013 -0.0958 -0.3180  0.1332
 9336W        W11536  16.176   5.772  33.095 -0.0576 -0.1826 -0.0799
 9337W        W11537  11.704   5.404  13.273  0.1825 -0.0964 -0.2325
 9338W        W11538   6.574   0.624   1.319  0.0966  0.0478  0.1484
 9339W        W11539  11.415   1.089   6.957  0.3130  0.1935  0.0626
 9340W        W11540  15.288   1.844   3.605 -0.3127  0.2079 -0.1879
 9341W        W11541   1.278   1.403   1.154 -0.2081 -0.0833  0.1500
 9342W        W11542  14.540   0.884  25.877 -0.1951  0.1036 -0.4324
 9343W        W11543   9.466   1.684   0.333  0.0476  0.3844  0.2367
 9344W        W11544  24.094   5.222  23.195 -0.0961 -0.0186 -0.1219
 9345W        W11545  12.394   0.299  32.979  0.2486  0.2481  0.0457
 9346W        W11546   0.141   5.753  20.391 -0.0476  0.1913  0.1502
 9347W        W11547  22.019   3.232   3.890  0.1600 -0.1245 -0.0540
 9348W        W11548   0.531   2.748   7.539  0.1033  0.1520  0.1877
 9349W        W11549  19.669   6.595  21.683  0.0235 -0.0373 -0.2084
 9350W        W11550  16.617   3.918  14.045  0.3162  0.0836  0.2731
 9351W        W11551  25.275   0.160  26.764  0.1519  0.0921 -0.1004
 9352W        W11552  23.258   2.748  32.476 -0.2139  0.2654 -0.1672
 9353W        W11553  14.919   2.648  23.076 -0.1718 -0.0237  0.0815
 9354W        W11554  20.649   2.121  11.874 -0.0979 -0.0570 -0.0829
 9355W        W11555  17.404   3.171  25.244 -0.2953  0.1513 -0.1358
 9356W        W11556   9.082   2.106  23.209  0.2651 -0.0527  0.1915
 9357W        W11557  21.034   4.830   1.533  0.1132 -0.1800 -0.3278
 9358W        W11558  11.907   5.652  32.499  0.3296  0.2491 -0.2187
 9359W        W11559  21.242   2.897  31.775  0.1621  0.0225  0.1207
 9360W        W11560  15.782   6.580  30.725  0.1640 -0.1344  0.1140
 9361W        W11561  22.306   2.064   2.753 -0.1116 -0.0437 -0.1854
 9362W        W11562  11.114   5.561  30.625 -0.2133 -0.1566 -0.2171
 9363W        W11563  11.284   1.756  12.307 -0.0870 -0.0047 -0.1118
 9364W        W11564   5.316   2.342  35.980 -0.1090 -0.2417 -0.0864
 9365W        W11565  13.812   3.747   1.387 -0.0313 -0.1322  0.1187
 9366W        W11566   8.214   3.309  13.137  0.0682  0.0858  0.1684
 9367W        W11567  15.510   0.657  13.200 -0.2498 -0.1037 -0.1151
 9368W        W11568  18.699   4.798  11.340 -0.1064  0.0505 -0.0647
 9369W        W11569   4.188   1.012  11.174 -0.0827 -0.0193 -0.0526
 9370W        W11570   0.645   1.756  25.806 -0.2755  0.1812  0.0048
 9371W        W11571  21.214   0.903  32.926 -0.0442 -0.2747  0.1976
 9372W        W11572  23.325   6.107   3.538  0.4222 -0.2561 -0.0284
 9373W        W11573  23.880   1.200  36.016 -0.2432  0.3265  0.0056
 9374W        W11574  14.948   2.212  30.398 -0.0742 -0.1201 -0.2507
 9375W        W11575  10.116   4.411  35.056 -0.0676 -0.1879 -0.0277
 9376W        W11576  19.877   5.487  34.556 -0.2103 -0.0650  0.0250
 9377W        W11577  25.595   3.318  30.388  0.1235  0.0986 -0.0869
 9378W        W11578  13.424   4.886  15.570 -0.1831 -0.1684  0.0050
 9379W        W11579  11.920   0.984   8.681  0.1445 -0.0809 -0.1788
 9380W        W11580  24.680   1.409  34.510 -0.2225  0.0729 -0.1142
 9381W        W11581  22.024   4.453  22.190  0.2368  0.0497 -0.2160
 9382W        W11582  11.195   1.637  35.425  0.2481  0.0242  0.0654
 9383W        W11583   7.393   4.625   4.761  0.0315 -0.0867 -0.1691
 9384W        W11584   6.642   1.308  14.198 -0.3114  0.0324  0.1388
 9385W        W11585  25.068   2.586  35.894  0.0899  0.2056  0.2375
 9386W        W11586  13.975   0.295  21.122  0.0697  0.1002  0.3729
 9387W        W11587   7.276   3.313   5.977 -0.0762  0.0064  0.0032
 9388W        W11588  18.953   1.070   8.004 -0.0575 -0.0220  0.0865
 9389W        W11589   4.268   1.778  34.153  0.1589  0.3028  0.0407
 9390W        W11590   3.551   5.128  34.508  0.0556 -0.3420 -0.2841
 9391W        W11591   8.660   3.690  10.178 -0.2403 -0.1826 -0.1920
 9392W        W11592  25.377   0.889  12.114 -0.4254 -0.0980  0.0573
 9393W        W11593   0.001   2.804  30.672 -0.0027  0.3448  0.0521
 9394W        W11594   1.041   0.727  24.635  0.1468  0.0110  0.2428
 9395W        W11595  10.796   0.806  13.023  0.0495  0.0344 -0.1441
 9396W        W11596  18.822   0.499  13.359 -0.0795  0.1554  0.2673
 9397W        W11597  10.657   1.778   4.023 -0.0188  0.0794 -0.0475
 9398W        W11598   6.048   2.520   2.444  0.2307 -0.0256 -0.1686
 9399W        W11599  20.521   5.756  28.722 -0.0833  0.0594 -0.1588
 9400W        W11600  15.994   1.272  10.175  0.0086  0.0281 -0.1043
 9401W        W11601   3.624   6.274   9.911  0.1075  0.2583  0.5252
 9402W        W11602  22.321   0.322  28.119  0.1790 -0.4506 -0.0779
 9403W        W11603  11.801   0.411  12.021  0.0936 -0.0704  0.2901
 9404W        W11604   6.459   2.037   7.507 -0.0975  0.0130  0.2718
 9405W        W11605  15.898   5.956  23.731 -0.0513 -0.1480  0.0602
 9406W        W11606  25.210   3.982  27.073 -0.1668 -0.1796  0.2327
 9407W        W11607  15.868   4.053  16.295 -0.2732  0.2669 -0.3188
 9408W        W11608   4.877   3.161  11.942 -0.0880  0.2972 -0.1723
 9409W        W11609  11.054   4.227   8.678 -0.1131  0.0637  0.1440
 9410W        W11610   3.842   4.381  14.003  0.3010  0.0519 -0.0677
 9411W        W11611  22.490   4.674  12.029 -0.0780 -0.1567 -0.1917
 9412W        W11612   8.675   4.652  13.239  0.0317 -0.0677 -0.0785
 9413W        W11613   9.436   2.152   0.480  0.0166  0.0731  0.0799
 9414W        W11614   6.519   6.559   0.638  0.0468 -0.1404 -0.2286
 9415W        W11615  11.241   1.332   7.432  0.2445  0.3055  0.0956
 9416W        W11616   6.874   2.036   5.439  0.1242 -0.0232 -0.2376
 9417W        W11617   5.517   1.910  32.971 -0.0456 -0.2212  0.1147
 9418W        W11618   4.403   6.267  12.235 -0.2966 -0.2280 -0.1669
 9419W        W11619  11.668   1.097   2.033  0.0428 -0.0854  0.3875
 9420W        W11620   0.687   1.495  26.270  0.0631 -0.1322  0.2105
 9421W        W11621  22.846   1.307  11.778 -0.1678 -0.0663  0.2697
 9422W        W11622  19.216   5.909  22.369  0.0994 -0.0311 -0.2956
 9423W        W11623  14.674   0.512  28.075 -0.0939 -0.1864  0.1636
 9424W        W11624  23.013   4.900   0.258 -0.0313  0.1897  0.1724
 9425W        W11625  12.456   1.926  12.643 -0.1316 -0.2832  0.2782
 9426W        W11626  23.946   4.784  23.881  0.0457  0.2186  0.0367
 9427W        W11627  21.384   3.031  13.531 -0.0861 -0.1126 -0.0687
 9428W        W11628   4.946   1.824  14.451  0.0927  0.2068 -0.0442
 9429W        W11629  13.377   5.242  15.173  0.0215  0.1827 -0.1052
 9430W        W11630   0.604   2.116   0.211  0.0944 -0.0270 -0.0120
 9431W        W11631  21.050   5.336   4.983 -0.2505  0.0677 -0.2652
 9432W        W11632   6.780   3.397   5.831  0.2024 -0.1295 -0.0764
 9433W        W11633   6.141   2.917   5.028  0.0511 -0.1573  0.4288
 9434W        W11634   2.445   1.615   7.617 -0.2427 -0.1183  0.1232
 9435W        W11635  24.945   2.294  13.059  0.1094  0.1034 -0.0188
 9436W        W11636  13.193   1.861  31.350 -0.0972 -0.0892 -0.0630
 9437W        W11637   5.615   5.227  28.210 -0.0929  0.0764 -0.0401
 9438W        W11638  22.696   4.250  29.229  0.2350 -0.0763  0.0665
 9439W        W11639  10.243   2.787  20.938  0.2049 -0.1650  0.0991
 9440W        W11640  15.153   4.056   9.720  0.0254  0.0452 -0.0698
 9441W        W11641  16.626   4.141  13.242  0.0120 -0.1516 -0.0913
 9442W        W11642  13.332   2.613  29.198  0.3428  0.0260  0.1355
 9443W        W11643   2.008   2.755  32.841  0.0545 -0.0290  0.0873
 9444W        W11644  22.605   2.709  13.184  0.2244  0.3188  0.0416
 9445W        W11645   2.289   0.962  26.283  0.0228  0.1479  0.0049
 9446W        W11646  17.123   4.409   3.383  0.0499 -0.1359  0.0167
 9447W        W11647   8.325   2.682   4.873  0.0919  0.0833  0.2486
 9448W        W11648   1.519   0.721  25.444 -0.0415 -0.0798  0.0405
 9449W        W11649  12.671   2.766  13.314 -0.2085  0.0174  0.2059
 9450W        W11650   7.481   1.829  25.441 -0.0914  0.1139 -0.0915
 9451W        W11651  18.915   4.112   5.685 -0.1822  0.3355 -0.1765
 9452W        W11652  14.783   1.582  20.620 -0.2357  0.2006 -0.3173
 9453W        W11653   3.661   2.700   5.832  0.1987  0.1049 -0.2477
 9454W        W11654   4.625   1.836   1.081 -0.0993  0.2170  0.3012
 9455W        W11655   6.711   5.319  22.141 -0.0525 -0.4007 -0.3484
 9456W        W11656   8.813   3.607  14.444 -0.0379  0.1657  0.2964
 9457W        W11657   3.592   5.970   3.384  0.1015 -0.1033  0.0679
 9458W        W11658  20.334   4.451  27.083 -0.0648  0.2368 -0.0782
 9459W        W11659  17.981   1.288   1.049  0.2160  0.1268  0.3058
 9460W        W11660  21.038   5.739  28.559 -0.0488 -0.0664  0.0178
 9461W        W11661   6.781   4.203  13.714  0.2466 -0.0870 -0.2472
 9462W        W11662  14.132   2.018  25.171  0.0161  0.0716  0.1204
 9463W        W11663  19.487   4.078  28.994 -0.1061 -0.1291 -0.3135
 9464W        W11664  20.659   5.099   4.779 -0.0320 -0.1279  0.2269
 9465W        W11665  13.574   1.630  34.124 -0.0957  0.4411  0.0952
 9466W        W11666  11.208   4.073  15.398 -0.2576 -0.1315  0.3337
 9467W        W11667  19.286   6.514  31.748  0.0158  0.0947  0.1081
 9468W        W11668   4.003   4.528   0.144 -0.0840  0.1443  0.0011
 9469W        W11669   2.748   6.191  12.904  0.0395  0.2820 -0.2089
 9470W        W11670   3.751   1.948  34.278 -0.1699  0.0028  0.0815
 9471W        W11671   1.962   1.520   6.234 -0.1715  0.1016  0.2580
 9472W        W11672  17.959   6.070  34.294 -0.0562 -0.1589 -0.0056
 9473W        W11673   7.412   5.967  29.030  0.3044 -0.1142 -0.0204
 9474W        W11674  22.510   3.577  14.890 -0.4807  0.1309  0.0790
 9475W        W11675  15.339   2.319   0.092 -0.2118 -0.0578  0.0034
 9476W        W11676   8.165   1.572   4.387  0.2354  0.1467 -0.0084
 9477W        W11677   4.533   3.262   2.240  0.2703 -0.0284  0.2077
 9478W        W11678  23.088   3.937   0.634 -0.2334  0.4934  0.0567
 9479W        W11679   9.515   4.175  10.680 -0.3885 -0.2122  0.0437
 9480W        W11680  19.020   3.883  11.880 -0.0874 -0.0080 -0.1842
 9481W        W11681   4.565   5.044  25.894 -0.0955 -0.0966 -0.2164
 9482W        W11682  24.241   5.132   4.551 -0.0476 -0.3301 -0.2157
 9483W        W11683  25.001   0.388   6.856  0.1214  0.1903  0.0168
 9484W        W11684   4.395   0.176   5.623  0.1172  0.1929 -0.0466
 9485W        W11685  17.820   2.392  13.672  0.0317  0.1763 -0.0868
 9486W        W11686   8.002   3.151  30.576  0.0657 -0.1427 -0.2197
 9487W        W11687  13.912   5.678  31.592  0.1313  0.3402  0.1557
 9488W        W11688  26.256   1.720  21.039 -0.0177  0.1396  0.1755
 9489W        W11689   7.117   6.173  33.245  0.3900  0.2038  0.2112
 9490W        W11690   8.979   1.707  22.203  0.1625 -0.0321  0.1252
 9491W        W11691   4.666   1.847  26.138 -0.2253  0.2904 -0.1917
 9492W        W11692   6.556   3.769  12.062  0.0253 -0.1908 -0.1462
 9493W        W11693   7.271   2.624  25.434  0.0826 -0.0375 -0.1498
 9494W        W11694  24.491   4.161  10.588 -0.1527  0.1854  0.1250
 9495W        W11695   4.734   3.412  23.866 -0.2632 -0.0821  0.1227
 9496W        W11696   3.407   6.355   4.063 -0.2116  0.1806  0.2288
 9497W        W11697  18.769   1.518  23.000  0.0201  0.0399  0.1791
 9498W        W11698  23.486   3.607  10.321  0.3465  0.0173 -0.0409
 9499W        W11699  11.084   2.346   9.290 -0.0911 -0.1791 -0.2432
 9500W        W11700  20.304   5.417  32.681  0.1184  0.0538  0.4747
 9501W        W11701  19.988   0.666  26.018  0.2331  0.2953  0.1055
 9502W        W11702  19.201   5.226  24.756  0.0072 -0.0446 -0.0152
 9503W        W11703   1.627   3.297  26.319 -0.2173 -0.0694 -0.0297
 9504W        W11704   8.123   0.860  14.713  0.0891 -0.0843 -0.1701
 9505W        W11705   3.243   5.071  34.983  0.0165  0.0242 -0.0848
 9506W        W11706  23.669   5.065  30.623  0.0233 -0.0639 -0.1358
 9507W        W11707   2.873   6.338  10.077  0.2031 -0.1039 -0.0865
 9508W        W11708  15.051   0.772  20.569  0.0336  0.0025  0.1373
 9509W        W11709  18.587   4.309   9.298  0.2488  0.1863 -0.0428
 9510W        W11710  15.680   0.537   2.078  0.3393  0.0992 -0.1588
 9511W        W11711   9.152   4.299  31.672 -0.0276 -0.3002 -0.2669
 9512W        W11712  24.860   3.198   3.417  0.1581 -0.2955 -0.1340
 9513W        W11713   6.564   5.662  21.820  0.0228 -0.1307  0.0171
 9514W        W11714  22.507   3.088  27.806 -0.0434 -0.0162  0.1675
 9515W        W11715  15.106   3.726   0.668  0.0601  0.1189 -0.0588
 9516W        W11716   7.158   3.363   4.021  0.0177  0.0617 -0.0187
 9517W        W11717  17.472   4.480   2.682  0.0925 -0.3129  0.1727
 9518W        W11718  25.004   4.940   6.134 -0.0137  0.0092 -0.0868
 9519W        W11719  18.309   3.264  35.196 -0.1842 -0.0217 -0.0512
 9520W        W11720  21.969   1.307  35.406  0.2649  0.1269  0.2508
 9521W        W11721  11.085   3.166  32.737  0.1813  0.0344  0.0934
 9522W        W11722  23.436   6.367  26.875  0.0054 -0.0551 -0.3154
 9523W        W11723  18.082   6.014  15.351  0.1639  0.0263 -0.1391
 9524W        W11724  21.813   2.580  26.276  0.1438 -0.1718 -0.0607
 9525W        W11725   0.543   4.914  33.428 -0.0515 -0.0819 -0.2729
 9526W        W11726  10.714   2.918   7.343  0.1447 -0.0255  0.0601
 9527W        W11727  16.222   0.187  29.335 -0.0942  0.0088 -0.4222
 9528W        W11728   5.046   5.921  27.170 -0.1436 -0.1937  0.1404
 9529W        W11729  21.790   5.828  21.954 -0.2282  0.2107  0.2802
 9530W        W11730  17.957   2.368  31.403 -0.2939  0.0953 -0.2907
 9531W        W11731  22.731   2.306   6.334  0.3501 -0.0798 -0.0157
 9532W        W11732  23.937   6.125  29.667 -0.2915 -0.2664 -0.1123
 9533W        W11733   1.235   3.486  25.959 -0.2294 -0.0117 -0.1210
 9534W        W11734   7.164   4.248  25.640 -0.0219  0.1923  0.1504
 9535W        W11735  19.493   4.980  27.360  0.1900  0.0643 -0.2296
 9536W        W11736   6.351   3.922  27.627 -0.1618 -0.0930  0.2768
 9537W        W11737  12.791   6.535  13.002  0.0651  0.0073 -0.1373
 9538W        W11738  12.827   4.436  29.447  0.0205  0.2074  0.1748
 9539W        W11739  21.780   1.766  29.477 -0.2596  0.1413 -0.1624
 9540W        W11740  13.465   4.565  33.409 -0.1904  0.0373 -0.2195
 9541W        W11741   6.854   4.830   2.356 -0.1237  0.2292  0.2437
 9542W        W11742  11.558   6.261   0.701 -0.0549  0.5846 -0.1163
 9543W        W11743  23.377   3.635  29.244  0.1323  0.0721 -0.1240
 9544W        W11744  26.048   2.650   0.347  0.0388 -0.1125 -0.0256
 9545W        W11745  24.979   2.729   6.868 -0.2323 -0.0647 -0.0002
 9546W        W11746   7.711   3.818   0.121 -0.0090  0.2359  0.1887
 9547W        W11747  14.669   4.407  29.036 -0.1721 -0.2396 -0.2024
 9548W        W11748   2.716   1.449   0.569  0.1008  0.3471 -0.1662
 9549W        W11749   3.589   6.377   6.722  0.0409  0.1785  0.0919
 9550W        W11750  25.009   2.010  35.175 -0.0386  0.0328 -0.1328
 9551W        W11751   1.412   5.302  35.259 -0.0304 -0.1872 -0.1186
 9552W        W11752   3.245   5.334  35.787  0.1522  0.1681  0.1217
 9553W        W11753   8.138   0.012  35.999 -0.3314  0.0389 -0.0562
 9554W        W11754   1.623   1.295  35.921 -0.1177  0.0517 -0.1503
 9555W        W11755   4.524   6.429  26.460 -0.2780 -0.1347 -0.0557
 9556W        W11756  19.261   2.183   6.081  0.0990  0.0620 -0.0844
 9557W        W11757  13.786   1.631  11.605  0.0767 -0.0479 -0.2830
 9558W        W11758  13.506   2.474  34.812  0.1642 -0.2651 -0.2144
 9559W        W11759  14.946   0.981  13.856 -0.2327  0.2006 -0.2150
 9560W        W11760  10.637   0.448  14.490 -0.0803  0.1619  0.0087
 9561W        W11761  22.124   1.331  23.598 -0.2421  0.2036 -0.0257
 9562W        W11762  18.355   1.863  32.405 -0.1061  0.0335  0.1733
 9563W        W11763  25.236   0.220  21.919  0.1613  0.1375  0.1299
 9564W        W11764  20.543   3.861  25.243 -0.0541  0.2485 -0.0354
 9565W        W11765  10.615   2.854   1.833 -0.4238 -0.2119 -0.1658
 9566W        W11766  13.457   0.600  22.751  0.3394 -0.0412 -0.0570
 9567W        W11767   9.457   0.505  14.975  0.3228 -0.2742 -0.3420
 9568W        W11768   4.708   3.002  31.561 -0.0924 -0.4136  0.0927
 9569W        W11769  23.083   5.242  20.000  0.1165  0.0237  0.0984
 9570W        W11770   3.507   4.943  36.004 -0.1276 -0.0381  0.1761
 9571W        W11771  15.474   1.049  27.147  0.2327  0.3065  0.0712
 9572W        W11772  20.363   2.026  12.557  0.0172 -0.3574 -0.1421
 9573W        W11773  16.159   2.005  27.278  0.0993  0.1065 -0.0930
 9574W        W11774  26.081   0.610   4.813  0.1060 -0.0432 -0.0562
 9575W        W11775   3.598   5.322   7.782  0.0198 -0.1614 -0.0249
 9576W        W11776  13.502   5.528  30.778 -0.0687  0.4010 -0.0567
 9577W        W11777  21.996   1.358  24.815 -0.1453  0.0058  0.1412
 9578W        W11778  10.964   5.697  33.994  0.1396  0.1344  0.2725
 9579W        W11779  24.163   5.936  26.993 -0.0302  0.3644 -0.3201
 9580W        W11780   0.539   5.817   5.056  0.0177 -0.2476  0.0767
 9581W        W11781   3.395   1.210  15.220  0.0159  0.0567  0.0760
 9582W        W11782   8.916   0.507  22.169 -0.2714  0.0131 -0.0482
 9583W        W11783  24.516   5.906  13.467  0.1813 -0.1170 -0.0331
 9584W        W11784   8.461   3.415   5.508 -0.1079 -0.3386 -0.1573
 9585W        W11785  22.324   4.475   2.500 -0.1713  0.2769 -0.1509
 9586W        W11786  17.192   1.610   0.411 -0.0608 -0.2778  0.0917
 9587W        W11787  17.614   1.388  34.620 -0.2592 -0.0138  0.0160
 9588W        W11788   4.819   4.199  24.522 -0.0055 -0.0951 -0.1050
 9589W        W11789  17.431   2.979   6.702  0.3452  0.1041 -0.0695
 9590W        W11790  10.590   4.501  11.611 -0.1850 -0.0795  0.0816
 9591W        W11791  22.732   0.042  11.367  0.0185 -0.0587 -0.0041
 9592W        W11792  25.851   6.227  11.576  0.1524  0.0011  0.0117
 9593W        W11793   7.453   5.277  13.808  0.1104  0.1400  0.1441
 9594W        W11794  26.106   4.992   2.104  0.0051  0.2410  0.2568
 9595W        W11795   6.152   3.019   6.815  0.4910  0.2378 -0.0531
 9596W        W11796   3.491   0.924  31.878 -0.1064 -0.1847  0.1271
 9597W        W11797   9.036   4.239  28.229 -0.0522 -0.1978 -0.0152
 9598W        W11798   0.383   5.342  21.834  0.0069 -0.1808 -0.0725
 9599W        W11799  12.210   3.916   1.701 -0.2299 -0.1983 -0.1178
 9600W        W11800  22.092   4.486  23.642 -0.1057 -0.0211 -0.0277
 9601W        W11801  22.399   0.786   5.228  0.2192 -0.0498  0.1845
 9602W        W11802   4.829   1.852  29.072  0.0379 -0.0373 -0.1340
 9603W        W11803   4.379   3.103   1.191 -0.4288  0.0731 -0.0808
 9604W        W11804  15.283   5.457  24.821  0.2791 -0.5342  0.0242
 9605W        W11805  17.832   3.463  24.013 -0.0672 -0.1601  0.2294
 9606W        W11806   0.386   4.512  11.803 -0.1116 -0.1583  0.1755
 9607W        W11807  16.647   0.832  11.567  0.5418 -0.1311 -0.0809
 9608W        W11808  21.326   4.788   4.928  0.2595 -0.0866  0.3250
 9609W        W11809  14.650   1.573  11.203 -0.1437 -0.0192 -0.2056
 9610W        W11810  15.200   4.350  29.196  0.1609  0.2106 -0.0839
 9611W        W11811  14.006   0.496  25.023 -0.0908 -0.1820 -0.4070
 9612W        W11812   7.337   3.347  28.939  0.1323  0.2728  0.1885
 9613W        W11813  11.367   2.737  31.045  0.0545 -0.0061 -0.0766
 9614W        W11814  11.603   1.085  25.574  0.1390 -0.2011  0.2611
 9615W        W11815  14.156   4.645  31.952 -0.5028 -0.2731 -0.1804
 9616W        W11816   5.294   0.606  14.903 -0.1503  0.1020 -0.0217
 9617W        W11817  15.878   1.941  31.728  0.0796 -0.0867 -0.0800
 9618W        W11818  14.447   1.371  23.674 -0.4409  0.1597 -0.3862
 9619W        W11819   7.206   3.445  15.824 -0.0577  0.1944 -0.2828
 9620W        W11820   4.948   3.972   8.430 -0.5069 -0.0007 -0.0850
 9621W        W11821   4.085   5.166  31.141 -0.0840  0.2717 -0.0495
 9622W        W11822   5.806   1.948  31.205  0.3010  0.0638  0.0311
 9623W        W11823  21.547   0.703  28.728 -0.0597  0.0793 -0.2006
 9624W        W11824   9.591   5.687  34.198  0.0728  0.2215  0.1713
 9625W        W11825   1.308   6.493  32.516  0.0670  0.0425  0.0834
 9626W        W11826   8.493   6.463  35.401  0.1827 -0.0308  0.1594
 9627W        W11827  25.996   3.527  12.053 -0.2109  0.0689 -0.0681
 9628W        W11828  17.670   1.413   7.412 -0.2352 -0.2772  0.2776
 9629W        W11829  20.189   4.273  23.957 -0.1416 -0.0688  0.1616
 9630W        W11830   1.602   6.550  15.109 -0.0311 -0.2992  0.1915
 9631W        W11831  25.348   0.364   8.321  0.0735  0.0020 -0.3750
 9632W        W11832   8.032   1.778  12.835 -0.2775 -0.2399  0.0462
 9633W        W11833  24.713   3.907  12.487  0.2131  0.1223 -0.0510
 9634W        W11834  12.485   0.666   2.933 -0.2919  0.0102 -0.2932
 9635W        W11835  14.970   6.049   9.810 -0.0044 -0.0245 -0.0680
 9636W        W11836  12.431   5.720  15.110 -0.0872 -0.1168  0.2655
 9637W        W11837  21.754   1.469   7.904  0.0294  0.0002  0.0771
 9638W        W11838  12.882   1.105  35.030 -0.0619  0.1480  0.0156
 9639W        W11839  18.905   3.581   5.400  0.0695  0.0980 -0.0657
 9640W        W11840  13.034   3.293  15.274 -0.3150  0.1645 -0.1368
 9641W        W11841  13.027   3.659   9.116  0.0047 -0.1497  0.3810
 9642W        W11842   4.616   2.994   7.775  0.0356 -0.1947 -0.3551
 9643W        W11843   0.773   4.474   8.760  0.0877  0.1052 -0.2017
 9644W        W11844  21.681   0.910   3.413  0.0459  0.0366  0.1570
 9645W        W11845  15.664   1.222   3.026 -0.2091  0.0970  0.0390
 9646W        W11846  13.016   4.630  22.573  0.1922  0.1499  0.0170
 9647W        W11847  14.177   0.745   7.764  0.0705 -0.0941  0.2485
 9648W        W11848   9.457   4.398   1.915 -0.2438  0.0092 -0.1044
 9649W        W11849   4.438   2.753   1.930  0.1720 -0.0785 -0.2593
 9650W        W11850  20.126   4.439   7.101 -0.2328 -0.2123 -0.3264
 9651W        W11851  11.107   3.664  34.085 -0.1005  0.2137  0.2030
 9652W        W11852  18.400   0.706  24.411  0.0978 -0.3747 -0.0307
 9653W        W11853  25.017   0.674   2.016  0.2603 -0.0681 -0.1685
 9654W        W11854  19.639   4.040   4.810  0.1345  0.2161  0.1672
 9655W        W11855   8.096   4.208  20.841 -0.0255  0.0672  0.1690
 9656W        W11856  20.836   3.332   5.883  0.0135 -0.0461  0.2190
 9657W        W11857   8.334   3.892  26.341 -0.1148  0.2513  0.0062
 9658W        W11858   3.927   4.666   2.752  0.1015 -0.0935 -0.0797
 9659W        W11859  16.234   1.522  28.548 -0.2029  0.3278 -0.0209
 9660W        W11860  16.651   4.539   3.868  0.1284 -0.0474  0.2260
 9661W        W11861  15.635   1.182  33.793  0.1333  0.0640  0.1428
 9662W        W11862  23.089   3.275  34.969  0.1880 -0.3187  0.0260
 9663W        W11863  25.512   6.436  23.625  0.1874  0.0006  0.1341
 9664W        W11864  15.593   5.267  22.576  0.0401  0.1349  0.1377
 9665W        W11865  13.547   6.224  32.312 -0.2039  0.1738  0.2716
 9666W        W11866   1.595   5.920   7.198 -0.2524 -0.2638 -0.0014
 9667W        W11867  13.419   2.036  26.698  0.1974  0.0271 -0.1276
 9668W        W11868  18.965   2.632  31.130  0.4422 -0.1308 -0.1310
 9669W        W11869  12.951   0.780  23.540  0.2384  0.2000 -0.0376
 9670W        W11870  17.826   5.952  14.829  0.2494  0.0516 -0.1645
 9671W        W11871  21.512   1.051  29.655 -0.2771 -0.1263 -0.0839
 9672W        W11872   1.766   2.904  35.519 -0.3106 -0.0416 -0.0179
 9673W        W11873   7.534   5.841   6.485  0.0012  0.0790  0.1855
 9674W        W11874  22.492   1.656  32.232 -0.0055  0.0791 -0.5868
 9675W        W11875   3.347   3.123  34.857 -0.0026 -0.1620 -0.2228
 9676W        W11876  13.732   1.289   6.415 -0.2890 -0.1057 -0.1540
 9677W        W11877  12.628   0.179   1.112  0.1589 -0.0985  0.0296
 9678W        W11878  14.870   1.635   1.083  0.2919  0.0058  0.0114
 9679W        W11879   5.668   0.428   9.946 -0.0644  0.0879 -0.0587
 9680W        W11880  12.400   5.919  34.963  0.1424 -0.0552  0.2144
 9681W        W11881   4.933   5.515   7.046  0.1723  0.1477 -0.0369
 9682W        W11882   0.982   1.869  34.197  0.1006  0.0017  0.0750
 9683W        W11883   7.192   5.083  11.711  0.0672 -0.0477  0.0813
 9684W        W11884  18.163   4.352  24.235 -0.0557 -0.3023 -0.0413
 9685W        W11885  13.805   0.742  30.329  0.3682 -0.0310 -0.1638
 9686W        W11886  18.798   1.306  10.674  0.1445 -0.0851  0.2499
 9687W        W11887  14.953   2.180  14.740 -0.4234  0.3948 -0.0376
 9688W        W11888   6.903   4.766  12.005 -0.0690  0.0390  0.0370
 9689W        W11889  23.669   1.881  32.381 -0.0043 -0.1668  0.1626
 9690W        W11890  20.016   1.474  32.875  0.1176  0.0734  0.0110
 9691W        W11891   1.270   3.202   7.717  0.1086  0.0305 -0.0667
 9692W        W11892  17.490   3.167  32.578 -0.0465  0.1794 -0.1091
 9693W        W11893  11.283   3.699  27.616  0.1251  0.4616  0.2738
 9694W        W11894  13.878   1.325   2.494 -0.0969  0.1296  0.3215
 9695W        W11895   8.968   3.511  35.117  0.2915 -0.0905  0.1582
 9696W        W11896  10.340   0.287  29.290 -0.0593 -0.0434 -0.2926
 9697W        W11897   1.485   1.192   2.963 -0.0119 -0.2615 -0.3705
 9698W        W11898   3.504   0.114  32.328  0.0726 -0.0398 -0.3950
 9699W        W11899  25.300   1.780   0.537  0.1365  0.2262 -0.0902
 9700W        W11900   9.695   1.613   3.752 -0.4044  0.2116 -0.2281
 9701W        W11901   2.412   1.782   9.638 -0.2547 -0.0469 -0.0073
 9702W        W11902   0.689   4.772  20.501 -0.1911 -0.0005  0.1505
 9703W        W11903  20.110   4.524  22.045  0.1474  0.0149 -0.1142
 9704W        W11904  18.272   0.250  29.682  0.2188  0.1694  0.1468
 9705W        W11905   6.266   5.407  25.425 -0.0358  0.3436  0.0885
 9706W        W11906  14.789   5.307   5.885  0.0119 -0.0978  0.1162
 9707W        W11907  20.686   3.280   1.783  0.0039 -0.2042 -0.0391
 9708W        W11908   5.499   4.492  30.117  0.0527  0.0222  0.1790
 9709W        W11909  10.499   6.085  31.181  0.0921  0.3292 -0.0055
 9710W        W11910  10.388   2.116  31.279 -0.1339  0.0852 -0.0032
 9711W        W11911  15.724   2.443  30.789 -0.1391 -0.0622 -0.1254
 9712W        W11912   8.262   5.518  13.843 -0.0454 -0.0272 -0.0510
 9713W        W11913  12.569   5.082  26.858  0.2393  0.2980 -0.1717
 9714W        W11914  18.427   0.109  23.627 -0.0392  0.1961 -0.0831
 9715W        W11915  16.766   1.222  27.317 -0.2131  0.0840  0.0974
 9716W        W11916  22.313   5.654  23.195  0.0027  0.1045  0.0048
 9717W        W11917  26.295   5.347  36.042  0.2731 -0.4286 -0.2033
 9718W        W11918   3.091   4.656   3.274  0.0512  0.3683 -0.2529
 9719W        W11919  19.104   2.586  23.888  0.1436 -0.0888  0.1524
 9720W        W11920   0.036   0.606  34.699 -0.0214  0.4338  0.0954
 9721W        W11921  11.730   2.500  25.215  0.1050 -0.1209 -0.0156
 9722W        W11922   6.655   1.047  25.497 -0.4039  0.1431 -0.2500
 9723W        W11923   9.448   4.204   4.889  0.1497 -0.0201 -0.0094
 9724W        W11924  25.198   5.092  20.621 -0.1270  0.0074 -0.0221
 9725W        W11925  13.357   0.918  24.764  0.0716 -0.0257 -0.0378
 9726W        W11926  20.723   1.611   7.709  0.0163 -0.1601 -0.1315
 9727W        W11927  24.905   5.488   9.576 -0.2582  0.0528  0.1135
 9728W        W11928  14.759   4.940   9.491 -0.1981 -0.0808 -0.1420
 9729W        W11929   2.455   5.193  30.094 -0.0920 -0.0236  0.0711
 9730W        W11930   9.286   6.539  14.634 -0.0788 -0.2022  0.2750
 9731W        W11931  24.571   6.439   6.904 -0.0108  0.1123  0.0564
 9732W        W11932   9.809   6.050  28.182 -0.1313 -0.0370  0.0591
 9733W        W11933  20.564   3.821  23.396  0.2104 -0.0733 -0.4176
 9734W        W11934   1.220   1.988  13.614 -0.0142 -0.0519  0.0479
 9735W        W11935  11.935   4.427  22.721  0.1693 -0.4225  0.0194
 9736W        W11936  13.696   4.235  31.352 -0.1362  0.1182 -0.1373
 9737W        W11937   8.539   3.762  30.946 -0.1610  0.0656  0.3501
 9738W        W11938   3.920   5.288  26.711  0.0947 -0.0506 -0.2878
 9739W        W11939  21.780   4.686  11.011  0.2064 -0.1046 -0.3140
 9740W        W11940  23.895   4.711  21.167  0.1989  0.0239 -0.0364
 9741W        W11941  19.431   6.487   4.869  0.2324 -0.0747  0.0777
 9742W        W11942   5.521   3.072  26.680  0.0060  0.1416 -0.1552
 9743W        W11943  16.873   5.738   2.949 -0.1300  0.1809  0.2981
 9744W        W11944   6.566   3.745  33.083  0.2238  0.6553  0.0166
 9745W        W11945  22.517   4.586  14.053 -0.1780 -0.2074  0.0357
 9746W        W11946  23.982   0.101   0.918 -0.1184 -0.1308 -0.0556
 9747W        W11947  23.470   0.041   0.494  0.1528 -0.0385 -0.0599
 9748W        W11948   8.720   1.877  32.036 -0.0534 -0.0587  0.1688
 9749W        W11949   4.961   4.833   0.323  0.0850 -0.0511  0.3027
 9750W        W11950  21.701   5.160  29.567  0.2546  0.0549 -0.0551
 9751W        W11951  19.827   5.121  35.438 -0.0290 -0.0359 -0.0996
 9752W        W11952  12.793   2.561  29.198 -0.2269  0.1704 -0.2750
 9753W        W11953  23.950   2.265   0.709 -0.0950 -0.2010  0.0258
 9754W        W11954   2.675   1.087  29.081 -0.4048  0.0628 -0.1897
 9755W        W11955  17.577   3.700  29.486  0.0046 -0.2122 -0.2757
 9756W        W11956  20.990   0.511  32.530  0.1959 -0.2639  0.0245
 9757W        W11957  12.250   2.461  28.097 -0.1884  0.2265  0.5526
 9758W        W11958   6.203   4.163   7.089  0.0924  0.2287 -0.0514
 9759W        W11959  12.187   0.987  28.583 -0.2210 -0.1316  0.5343
 9760W        W11960  13.782   0.685  21.859 -0.1394  0.4917  0.0194
 9761W        W11961  11.467   4.048   9.547 -0.0749  0.4256  0.0055
 9762W        W11962  10.899   0.422  24.344  0.0035  0.1560  0.1915
 9763W        W11963   4.785   4.038   0.183 -0.1842  0.0803  0.1805
 9764W        W11964  22.821   6.384  28.158 -0.0863  0.0117  0.0880
 9765W        W11965  13.442   5.297   3.849  0.0295  0.1874  0.0928
 9766W        W11966  16.534   1.216   9.049  0.1465  0.1940 -0.1266
 9767W        W11967   6.652   3.976  31.523 -0.0374  0.1961  0.0148
 9768W        W11968  14.190   0.833  24.220 -0.2349 -0.2346  0.0285
 9769W        W11969  25.467   3.717   8.201  0.0424 -0.0740  0.0606
 9770W        W11970  23.775   0.428   7.891  0.0997 -0.0425 -0.1499
 9771W        W11971   3.859   1.574   8.830 -0.0932  0.3305 -0.0090
 9772W        W11972  18.372   2.702  27.603  0.0801  0.1550 -0.1997
 9773W        W11973   1.881   0.884  27.671  0.1348 -0.2084 -0.0275
 9774W        W11974  17.769   0.471  35.578 -0.1575 -0.0683 -0.3530
 9775W        W11975   8.660   0.723  26.280  0.1718 -0.2643  0.0730
 9776W        W11976  14.913   1.548  15.449  0.1191 -0.0501  0.0372
 9777W        W11977  15.500   3.062  34.092 -0.3257 -0.0176  0.0466
 9778W        W11978  12.015   0.721  32.923 -0.0589  0.0844 -0.0476
 9779W        W11979  19.344   4.482  11.914 -0.1531  0.0441  0.0800
 9780W        W11980  24.746   0.089  30.415 -0.0023 -0.0314  0.1208
 9781W        W11981  15.921   2.837   4.812  0.0218 -0.1530 -0.1396
 9782W        W11982  19.844   0.289  12.966  0.0978  0.0344  0.2715
 9783W        W11983  16.239   0.772  32.495  0.1620 -0.2079 -0.0565
 9784W        W11984   0.562   4.106  21.374  0.0347 -0.2374 -0.2877
 9785W        W11985  23.225   5.012   2.798 -0.1887 -0.1095  0.0720
 9786W        W11986  14.109   5.923  15.430 -0.2042  0.0066 -0.1803
 9787W        W11987   9.343   4.593  33.283  0.0166  0.2261  0.0341
 9788W        W11988   9.201   5.694  12.208 -0.4283  0.1450  0.0102
 9789W        W11989  17.664   3.019  23.808  0.1423 -0.1840  0.0204
 9790W        W11990   8.376   0.217   5.741 -0.0223 -0.3461 -0.6076
 9791W        W11991  10.885   2.131   3.187  0.2166  0.0884 -0.0319
 9792W        W11992  26.334   2.351  10.164  0.0126  0.0075  0.2897
 9793W        W11993  11.348   3.757  25.876  0.0197 -0.0328 -0.1335
 9794W        W11994  22.804   0.033   7.994  0.1974  0.0420  0.0515
 9795W        W11995   1.536   5.180  14.797 -0.3465 -0.0144  0.0723
 9796W        W11996   0.233   2.991  20.916  0.3968  0.0076 -0.0340
 9797W        W11997   9.982   0.825   7.571  0.0096  0.0362  0.1784
 9798W        W11998   8.196   0.712   5.760 -0.2678 -0.0882  0.1910
 9799W        W11999  23.305   5.592   3.583 -0.1199 -0.1166 -0.0068
 9800W        W12000  16.903   2.295  10.291  0.1710 -0.1069 -0.2116
 9801W        W12001   4.769   0.832  28.271 -0.0285  0.3533 -0.1741
 9802W        W12002   1.434   2.584  10.497  0.3409 -0.0991  0.2077
 9803W        W12003  11.582   4.487   1.579  0.1486 -0.0471  0.2124
 9804W        W12004   3.066   6.420  22.708  0.2682  0.0324 -0.4901
 9805W        W12005  11.537   6.424  32.589 -0.1427 -0.0134 -0.0556
 9806W        W12006  17.094   0.906  26.208  0.0129 -0.2527 -0.1606
 9807W        W12007  22.951   0.297  14.790  0.0627  0.1565  0.2159
 9808W        W12008  21.687   3.392  29.011  0.2455 -0.3015  0.1844
 9809W        W12009  12.158   5.792  27.190 -0.2829 -0.1767 -0.2958
 9810W        W12010  17.776   1.204  14.768  0.0624 -0.0119  0.0020
 9811W        W12011  17.781   0.477  12.190 -0.1314 -0.0166  0.1201
 9812W        W12012  14.075   2.502  20.424  0.0680 -0.1030  0.2067
 9813W        W12013  15.495   3.782   2.060  0.3852 -0.0399 -0.2666
 9814W        W12014   5.731   2.048   3.472 -0.1833  0.1714 -0.2564
 9815W        W12015  14.181   5.050  30.444  0.3147  0.1930  0.3493
 9816W        W12016  21.535   3.906  26.420  0.2447  0.0631  0.1067
 9817W        W12017  12.467   4.097   4.286  0.0930 -0.3133  0.0322
 9818W        W12018   1.410   4.459  25.779  0.0821  0.5135  0.0395
 9819W        W12019  10.328   5.152  23.101  0.2894 -0.3810 -0.2948
 9820W        W12020   8.030   2.202   6.737  0.2261  0.0848 -0.2509
 9821W        W12021   9.958   2.777  13.516 -0.0541  0.1912  0.1488
 9822W        W12022   6.019   4.073  13.600 -0.0120 -0.1424  0.0154
 9823W        W12023   4.954   6.215  23.974 -0.0063 -0.1921  0.1415
 9824W        W12024  13.765   4.288  12.764 -0.2032  0.0884  0.2072
 9825W        W12025  25.532   4.506  10.085 -0.0612 -0.0385  0.2716
 9826W        W12026  22.030   5.501  29.909 -0.2234  0.0857  0.2005
 9827W        W12027   1.595   3.932   8.766  0.0868 -0.1960 -0.0538
 9828W        W12028  20.370   4.962   1.404 -0.1540 -0.0815 -0.2230
 9829W        W12029   3.930   0.528  24.228  0.0339  0.3211 -0.2720
 9830W        W12030   6.354   3.599  30.868 -0.1237  0.0548 -0.1146
 9831W        W12031  18.010   5.814  29.710 -0.1882 -0.0323  0.3864
 9832W        W12032  14.669   5.471  22.800  0.0954  0.1993 -0.0925
 9833W        W12033  12.048   5.574  28.034  0.0713 -0.1540 -0.0064
 9834W        W12034  15.910   1.142  23.431  0.0213 -0.1049  0.0216
 9835W        W12035   3.678   6.143   1.870 -0.1291  0.2269 -0.0714
 9836W        W12036  13.455   0.733  13.121  0.2956 -0.0858  0.1672
 9837W        W12037  13.045   3.259  23.577 -0.0275 -0.1547  0.1497
 9838W        W12038  25.096   1.676   6.761  0.1622  0.0797  0.2482
 9839W        W12039   1.643   1.944   1.910 -0.2644 -0.0879  0.2806
 9840W        W12040  10.479   4.294  10.324  0.0604 -0.2683 -0.2871
 9841W        W12041  13.411   3.456  23.906  0.0508  0.0761  0.1313
 9842W        W12042  20.626   6.385  32.220 -0.1167 -0.0904  0.0308
 9843W        W12043  25.456   0.169   6.705  0.2906 -0.2229  0.0989
 9844W        W12044  14.328   6.547  35.238  0.1711  0.0798  0.2088
 9845W        W12045   3.835   6.113   3.860 -0.3182 -0.0759  0.2705
 9846W        W12046  17.234   1.249  24.937 -0.2129  0.0689 -0.0075
 9847W        W12047  14.784   6.189  14.388 -0.1191 -0.0039  0.0267
 9848W        W12048  10.800   4.046  35.117  0.0233  0.0723  0.1880
 9849W        W12049   3.208   5.891  24.700 -0.0889  0.4229  0.1597
 9850W        W12050   2.329   1.912  23.527 -0.0469 -0.0234 -0.2677
 9851W        W12051  16.752   3.625  25.938  0.0661  0.3235  0.0562
 9852W        W12052  21.078   1.121  14.533 -0.0151  0.0211 -0.0023
 9853W        W12053  23.955   4.761  26.760  0.0808 -0.1294  0.4456
 9854W        W12054  14.298   0.513  24.609  0.3045 -0.2094 -0.3172
 9855W        W12055  24.898   1.824  10.456  0.1450 -0.1723  0.1161
 9856W        W12056  18.502   4.307  25.906 -0.0145 -0.0251 -0.0343
 9857W        W12057   2.758   2.903  31.696  0.0470 -0.0855 -0.0794
 9858W        W12058   4.846   1.600  31.755  0.0597 -0.1709 -0.0674
 9859W        W12059   6.298   2.150   8.381 -0.0221  0.3420  0.0638
 9860W        W12060   0.080   6.308   1.173  0.0112 -0.0778 -0.1794
 9861W        W12061   4.772   0.778  11.322 -0.1028 -0.0004 -0.1928
 9862W        W12062  23.280   2.620   4.554  0.0588  0.0641  0.0723
 9863W        W12063  14.999   4.777  29.027  0.1040 -0.3625 -0.1175
 9864W        W12064   3.889   0.826  25.504  0.1810  0.1062 -0.1935
 9865W        W12065  25.325   5.826  14.822 -0.1069  0.0163  0.2069
 9866W        W12066   9.131   5.206  27.881 -0.1306  0.0217 -0.0014
 9867W        W12067  12.381   1.020  33.011 -0.1376  0.2190 -0.0207
 9868W        W12068  23.778   0.922  21.508  0.0513 -0.0337 -0.1554
 9869W        W12069   7.064   5.342  32.715 -0.1857 -0.0239 -0.1459
 9870W        W12070  15.567   4.146   2.465 -0.0826  0.1021  0.1382
 9871W        W12071   4.447   5.270  26.792  0.0130  0.1610 -0.1847
 9872W        W12072   0.331   0.851  20.692  0.0244 -0.1309  0.0638
 9873W        W12073  10.722   2.130  10.198 -0.0149 -0.3230 -0.4178
 9874W        W12074  17.165   4.135  33.569 -0.2213 -0.0321  0.1964
 9875W        W12075   8.299   6.324   1.670  0.1429 -0.1021 -0.1554
 9876W        W12076  22.163   2.789  13.372  0.0977  0.1871 -0.0691
 9877W        W12077  19.206   0.224   4.461  0.3310  0.0497 -0.1368
 9878W        W12078   2.518   5.087  31.832  0.0819  0.0019  0.1494
 9879W        W12079  12.249   0.801   8.148 -0.0592 -0.0774 -0.2060
 9880W        W12080  17.745   3.796  11.027 -0.0409  0.0893 -0.2518
 9881W        W12081   5.064   3.677  22.015  0.0674 -0.0248  0.0784
 9882W        W12082  21.051   2.918  21.203 -0.2198  0.0079 -0.3097
 9883W        W12083  15.639   1.007   1.722  0.0282 -0.0141 -0.0574
 9884W        W12084  21.807   2.235  12.139 -0.1789 -0.0182 -0.3788
 9885W        W12085  12.080   0.048  20.846  0.1495  0.0841 -0.0407
 9886W        W12086  13.254   4.821   8.498 -0.2720  0.3013 -0.3462
 9887W        W12087  13.800   1.790  26.893 -0.0730  0.0198  0.0563
 9888W        W12088  15.164   0.874  10.203 -0.2377 -0.1817  0.1884
 9889W        W12089   9.776   0.931  25.112  0.1216 -0.2773 -0.2381
 9890W        W12090   6.794   0.050  12.592 -0.0660  0.0511  0.1505
 9891W        W12091  25.388   1.568   0.988 -0.1667  0.1389  0.0995
 9892W        W12092   0.512   4.105   4.029  0.2070 -0.2070 -0.0037
 9893W        W12093  17.933   4.388  26.429 -0.0616 -0.2492  0.2130
 9894W        W12094   8.713   6.003   1.613  0.1758 -0.2151  0.0835
 9895W        W12095  11.888   2.200  29.928 -0.1404 -0.2732  0.1999
 9896W        W12096   1.414   5.637  13.479 -0.0380  0.0661 -0.0259
 9897W        W12097  26.196   2.539  10.593  0.0223  0.0053 -0.0189
 9898W        W12098   0.106   1.562  15.680 -0.3304  0.1199  0.1038
 9899W        W12099   0.995   5.735   4.886  0.0728  0.1165 -0.0559
 9900W        W12100   0.668   4.249  14.502 -0.2409  0.2100 -0.1708
 9901W        W12101  26.002   0.817  25.618 -0.0670  0.1508 -0.0077
 9902W        W12102   2.438   4.599   1.941 -0.0327 -0.0351 -0.0305
 9903W        W12103   4.813   5.334  29.823 -0.0950  0.2290 -0.1355
 9904W        W12104  13.511   1.190  24.055 -0.2208  0.2173 -0.0209
 9905W        W12105   6.873   2.760  24.668 -0.2958  0.0305 -0.1084
 9906W        W12106  11.000   3.791  31.417  0.2629  0.1151 -0.0087
 9907W        W12107  21.075   0.246  25.457 -0.1220  0.0427 -0.2365
 9908W        W12108  24.729   5.464   3.783 -0.1140 -0.0971  0.2995
 9909W        W12109  25.701   4.632   8.291  0.0619  0.1651  0.1916
 9910W        W12110   5.636   6.246  29.066 -0.1179 -0.0075  0.0514
 9911W        W12111  18.796   4.220   5.228 -0.0522 -0.0816 -0.1863
 9912W        W12112  15.685   0.723   2.635  0.0586 -0.2123 -0.0081
 9913W        W12113  23.849   5.709   7.040  0.0192 -0.0276  0.1263
 9914W        W12114  12.747   6.161  24.792 -0.1994 -0.3490  0.3345
 9915W        W12115  16.310   2.365  21.697 -0.2323 -0.0659 -0.1613
 9916W        W12116  19.494   1.196  23.557  0.1382  0.0842 -0.0933
 9917W        W12117  20.011   4.103   2.860 -0.0808 -0.3190  0.1884
 9918W        W12118  19.868   5.943  10.834  0.2088 -0.0741  0.0683
 9919W        W12119  14.974   1.992  32.763 -0.0920  0.2186  0.2104
 9920W        W12120   1.166   4.968   5.681  0.2904  0.2750  0.1688
 9921W        W12121  11.394   3.256  30.934 -0.3131  0.0380 -0.2171
 9922W        W12122  12.561   0.058   8.694 -0.3200  0.0454 -0.0881
 9923W        W12123  21.155   0.021   9.347 -0.1866 -0.0993 -0.1076
 9924W        W12124  14.391   4.925   3.449 -0.2687  0.3303  0.2344
 9925W        W12125  11.017   4.020  14.573  0.0369 -0.1300 -0.1741
 9926W        W12126   7.009   6.322  24.963  0.0097 -0.0515  0.1894
 9927W        W12127   9.401   5.020   5.134  0.4642  0.0087  0.2409
 9928W        W12128   0.549   1.247  25.805 -0.0244 -0.1832  0.0655
 9929W        W12129  10.741   5.730   0.348  0.0571  0.0892 -0.3741
 9930W        W12130  22.698   5.058  25.413 -0.1000 -0.0710  0.0042
 9931W        W12131  26.235   0.058   2.349 -0.1505 -0.0641 -0.1490
 9932W        W12132   4.271   4.041  31.347  0.3888 -0.1336  0.0423
 9933W        W12133  15.034   3.511  23.815  0.2306 -0.1933 -0.0272
 9934W        W12134   1.977   0.924   9.667 -0.0309 -0.1725 -0.2973
 9935W        W12135  17.284   3.778  26.851  0.1959 -0.0841 -0.3280
 9936W        W12136  14.135   1.022  32.698  0.1311 -0.0587 -0.0631
 9937W        W12137  21.006   4.676  29.162  0.0219  0.0587 -0.1285
 9938W        W12138  19.274   0.949  10.167 -0.1112  0.1834  0.2894
 9939W        W12139   0.337   5.625   1.706  0.0732  0.0278  0.0704
 9940W        W12140  21.186   1.235  34.963  0.0733 -0.0563 -0.1837
 9941W        W12141   2.151   5.404  27.034  0.1808 -0.0903 -0.1487
 9942W        W12142  20.134   5.969  30.691  0.3793 -0.0677  0.0639
 9943W        W12143  17.732   5.961  28.898  0.1564 -0.2831 -0.0533
 9944W        W12144   3.075   2.742  35.212 -0.2210  0.0401  0.0708
 9945W        W12145   2.058   0.671  25.444  0.0278  0.1931 -0.1598
 9946W        W12146  17.957   4.091  23.772  0.2752  0.0281  0.1219
 9947W        W12147   5.101   3.937  25.751 -0.0876  0.1902 -0.1344
 9948W        W12148   4.055   4.200  29.572 -0.2104  0.3093  0.3774
 9949W        W12149   2.495   5.613   6.669  0.2297  0.1268 -0.0984
 9950W        W12150   6.407   0.650  25.320  0.2991  0.2232  0.0693
 9951W        W12151  20.967   4.233  16.123  0.3088  0.0239  0.1569
 9952W        W12152  25.245   1.173   7.781 -0.0048 -0.0976 -0.3035
 9953W        W12153   4.419   3.157  22.754  0.0105  0.0587 -0.0042
 9954W        W12154   5.346   5.897  31.858 -0.2831 -0.2001  0.0984
 9955W        W12155  15.507   0.750  32.120  0.2767 -0.0790 -0.1430
 9956W        W12156  18.114   0.094  28.756 -0.1131 -0.1345 -0.1144
 9957W        W12157  14.166   3.571  24.688  0.0763  0.3453 -0.0595
 9958W        W12158   8.556   1.761  12.536 -0.0165 -0.1343 -0.1061
 9959W        W12159  24.342   2.861  14.330  0.1368 -0.1651  0.0818
 9960W        W12160  13.082   3.980  10.508 -0.5778  0.2053  0.2056
 9961W        W12161  23.652   4.531  10.603  0.1714  0.0768  0.4110
 9962W        W12162  15.463   3.819  13.793  0.0786  0.0819 -0.1270
 9963W        W12163  19.552   0.622   9.758  0.5280  0.2977  0.1949
 9964W        W12164   0.429   5.147  11.047 -0.0009 -0.0995 -0.0089
 9965W        W12165  18.948   6.329  29.961  0.0041 -0.2225 -0.1630
 9966W        W12166  19.440   1.698  21.949 -0.1146 -0.1146 -0.3037
 9967W        W12167  13.463   3.175  13.582 -0.1497  0.0846 -0.1264
 9968W        W12168  14.499   0.655  13.173 -0.0788 -0.0006 -0.3076
 9969W        W12169  15.382   1.542  12.870  0.1335  0.2293 -0.0718
 9970W        W12170   5.277   2.128   0.665  0.1604 -0.1014  0.0304
 9971W        W12171  15.226   4.353  25.616 -0.4321 -0.0157  0.1419
 9972W        W12172   4.261   0.395  24.856 -0.0304 -0.2251  0.0391
 9973W        W12173  13.396   4.256  28.262 -0.0118 -0.0094 -0.1236
 9974W        W12174  18.308   3.034   2.869  0.2385 -0.1584 -0.0378
 9975W        W12175  15.899   6.010   6.463 -0.1067 -0.2526  0.4536
 9976W        W12176   3.407   3.662  35.155  0.1581  0.0734 -0.0163
 9977W        W12177  11.766   0.058  10.112 -0.1538 -0.1685 -0.2355
 9978W        W12178   6.059   5.827   7.551 -0.2685  0.2814 -0.1659
 9979W        W12179  10.450   5.411  33.359  0.2093 -0.1367 -0.0813
 9980W        W12180   3.880   2.039  15.491  0.0824  0.1460  0.2851
 9981W        W12181  23.893   0.917  35.143 -0.0287 -0.5385 -0.1927
 9982W        W12182  21.244   5.807  22.254 -0.0939 -0.0991 -0.2925
 9983W        W12183   9.852   1.119  34.289 -0.0375 -0.0761 -0.0102
 9984W        W12184  18.153   5.520  22.395  0.3045  0.0399  0.0221
 9985W        W12185  25.354   3.684  11.420  0.4501 -0.0940  0.3670
 9986W        W12186   2.818   5.206   2.705 -0.1047 -0.0788 -0.0032
 9987W        W12187  20.381   4.099  22.388  0.0023 -0.0876 -0.1975
 9988W        W12188  12.243   2.627  26.955  0.2875 -0.2492  0.5185
 9989W        W12189  22.633   4.522   1.008 -0.0517 -0.1816 -0.2382
 9990W        W12190  11.655   0.513  23.407 -0.0720 -0.0769  0.1689
 9991W        W12191  13.359   4.626  26.066  0.0369  0.0341  0.0267
 9992W        W12192   4.518   5.013  30.947  0.1876  0.0818 -0.0336
 9993W        W12193   9.214   5.652   0.109 -0.0407  0.0503 -0.2180
 9994W        W12194   5.798   0.377  33.052  0.0754 -0.0001 -0.1199
 9995W        W12195  10.377   3.942  27.345 -0.0781  0.0394 -0.0404
 9996W        W12196  18.327   5.155  31.166 -0.2291 -0.3163  0.4005
 9997W        W12197  15.217   3.934   8.665 -0.0858 -0.0601  0.1319
 9998W        W12198  15.136   4.240  22.371 -0.0443 -0.0718 -0.0765
 9999W        W12199   1.130   0.809  10.262  0.0318  0.0637 -0.1747
10000W        W12200   6.998   5.466  12.575 -0.1740 -0.0427  0.1767
10001W        W12201  13.687   4.207  26.873 -0.0583 -0.1346 -0.3036
10002W        W12202  14.163   5.518   4.934  0.0144 -0.1474  0.0477
10003W        W12203  11.956   2.261  23.080  0.2946  0.0831 -0.2334
10004W        W12204   8.523   0.245  32.032  0.2137 -0.0129  0.1720
10005W        W12205  19.256   3.055  31.969  0.1902  0.2017 -0.0909
10006W        W12206  21.542   4.811  31.537  0.3624 -0.0567  0.0526
10007W        W12207  12.477   4.073  10.467 -0.1480 -0.0056 -0.2089
10008W        W12208  11.242   5.446  12.898  0.2624  0.0901 -0.3199
10009W        W12209   5.427   3.809   0.536 -0.1451 -0.1742  0.0377
10010W        W12210  10.265   1.600   5.484 -0.1940  0.1172 -0.4301
10011W        W12211  24.883   3.200  24.381  0.1299 -0.0012 -0.0669
10012W        W12212  17.929   6.556  28.005 -0.0874  0.1465 -0.2017
10013W        W12213   5.522   3.162  27.192  0.0526  0.4702  0.0399
10014W        W12214  25.223   0.741  12.888 -0.2256  0.2000 -0.0582
10015W        W12215   6.570   2.778  33.250  0.0465  0.1124  0.3236
10016W        W12216   5.334   4.047  26.827 -0.0678  0.1480  0.0631
10017W        W12217  16.304   4.739  25.197  0.3191  0.1078 -0.0866
10018W        W12218   1.245   6.309  34.462  0.0738 -0.0879  0.1690
10019W        W12219  16.162   4.879  23.244 -0.0241  0.1533 -0.4284
10020W        W12220  13.465   1.008  14.727 -0.0107  0.2499 -0.0261
10021W        W12221  25.417   6.076  20.777 -0.1792  0.2017 -0.0585
10022W        W12222  19.088   4.057   9.459 -0.1261 -0.2825  0.1093
10023W        W12223  11.622   6.129  34.229 -0.1509 -0.1255 -0.3703
10024W        W12224  19.832   1.560   2.362 -0.0887  0.3395 -0.0423
10025W        W12225   4.681   0.212  11.309 -0.0049 -0.1289  0.1428
10026W        W12226  15.007   4.204  28.251 -0.1855  0.0165  0.0708
10027W        W12227   2.776   5.158   7.285 -0.2891  0.1866 -0.1722
10028W        W12228  18.587   2.998   4.441  0.0099 -0.1017 -0.0429
10029W        W12229  12.186   4.706   2.224  0.0341 -0.1259  0.2495
10030W        W12230  12.163   6.311  27.012  0.0911 -0.2535 -0.2179
10031W        W12231  17.116   5.213   6.646  0.0151  0.0442 -0.3134
10032W        W12232   7.929   1.237   9.124  0.1075  0.1838  0.1111
10033W        W12233   3.153   2.733  28.223 -0.4238  0.1911 -0.0197
10034W        W12234  16.057   5.431  30.823 -0.0446 -0.0121  0.1914
10035W        W12235  21.918   4.993   5.561  0.1670  0.1764 -0.2547
10036W        W12236  20.660   0.424  13.320  0.1145  0.2881  0.0449
10037W        W12237   7.424   0.743  33.082  0.2005 -0.1434  0.2504
10038W        W12238  18.887   3.512  23.516 -0.2555  0.0910 -0.0550
10039W        W12239  21.774   3.076  31.890  0.1513  0.0321  0.0576
10040W        W12240  22.446   2.886  22.413 -0.2036 -0.0392 -0.1841
10041W        W12241  22.049   1.613   3.614  0.2516  0.2456  0.0917
10042W        W12242  23.233   4.496   6.071 -0.1141 -0.0877  0.1281
10043W        W12243  10.041   2.416  21.239  0.1475  0.0661  0.0349
10044W        W12244  14.581   5.935   4.530 -0.0950 -0.1581 -0.1175
10045W        W12245   8.601   5.721   8.250 -0.3342  0.1058  0.0425
10046W        W12246  13.591   5.978   2.240 -0.2782  0.1693  0.1558
10047W        W12247  18.850   3.193   1.121  0.0679 -0.1445 -0.4966
10048W        W12248   4.479   3.183  21.068 -0.0925 -0.0482 -0.0631
10049W        W12249   8.840   1.436  29.216  0.1742  0.0706  0.0885
10050W        W12250  20.641   6.372  22.849  0.2373 -0.0509  0.2055
10051W        W12251  25.007   6.581   6.539  0.2301 -0.1285 -0.4531
10052W        W12252   0.830   1.487   4.468  0.1129  0.0818  0.0352
10053W        W12253  21.245   0.147   6.797  0.5026  0.0570  0.0015
10054W        W12254   0.094   1.263  20.796  0.1158 -0.3056  0.0340
10055W        W12255  14.912   5.667  14.670  0.0709  0.1543 -0.1287
10056W        W12256  12.213   3.364  32.132  0.2540  0.0453 -0.2370
10057W        W12257  20.898   0.169  14.203  0.2723  0.1985 -0.2008
10058W        W12258   4.156   2.431  30.702  0.0963  0.0126 -0.2614
10059W        W12259  11.882   2.647  14.810 -0.2383 -0.2165 -0.1128
10060W        W12260  11.870   4.967  27.300  0.3054  0.1340 -0.2091
10061W        W12261  17.137   0.030   4.545 -0.1175 -0.1645  0.1217
10062W        W12262  24.728   3.257  32.214  0.1264  0.1459 -0.2016
10063W        W12263  22.469   4.574  33.703  0.0160  0.1453 -0.1644
10064W        W12264   9.588   4.933   8.288 -0.1360  0.0656  0.1706
10065W        W12265  21.255   4.838  35.047 -0.1366  0.1486 -0.4536
10066W        W12266  19.825   5.521   6.359  0.0643 -0.2379 -0.1418
10067W        W12267   3.040   0.094  28.289 -0.0578 -0.0967  0.2901
10068W        W12268   8.071   0.505  30.205  0.0207  0.2117  0.2935
10069W        W12269   4.147   0.742  35.795  0.3021  0.2293 -0.0823
10070W        W12270  16.245   5.319  10.487 -0.0158 -0.0055  0.2016
10071W        W12271   6.172   6.572  24.181  0.0485 -0.2881 -0.0055
10072W        W12272   1.972   1.641  23.103  0.1166  0.1805  0.0304
10073W        W12273  14.861   1.374  26.441 -0.0475 -0.1195 -0.1218
10074W        W12274   1.151   2.384  31.708 -0.0070  0.0695  0.2450
10075W        W12275   7.806   5.295   8.626  0.3938  0.0764  0.3182
10076W        W12276   4.466   0.539  35.206  0.2079  0.0765 -0.2192
10077W        W12277   2.742   3.616  10.652 -0.1634  0.0630 -0.0171
10078W        W12278  25.775   6.138   0.289  0.1047  0.3162 -0.1904
10079W        W12279  13.035   6.426  33.585  0.1040  0.0951  0.2179
10080W        W12280  21.113   6.196   0.198 -0.1851 -0.1044 -0.0489
10081W        W12281  22.766   3.518  11.530  0.0928  0.0615 -0.1893
10082W        W12282  18.201   3.657  13.538  0.0809 -0.1246  0.0349
10083W        W12283  13.459   5.266   8.267  0.4056  0.1165 -0.0155
10084W        W12284   7.261   3.055  31.099 -0.3662  0.2729 -0.1759
10085W        W12285   9.491   0.273  24.279 -0.0225  0.0994 -0.0658
10086W        W12286  17.866   1.212  32.176 -0.1602 -0.1922 -0.2266
10087W        W12287  23.748   3.112   2.131  0.0020  0.0825  0.2432
10088W        W12288   8.682   2.197  22.411 -0.1171 -0.0952 -0.2877
10089W        W12289  13.044   4.612  27.426 -0.1018 -0.0029  0.0865
10090W        W12290  15.805   1.037  31.609  0.2941 -0.2801 -0.2121
10091W        W12291  19.793   0.007  34.966 -0.1050  0.3714 -0.0798
10092W        W12292  12.578   3.002   6.526  0.0346  0.0199 -0.0577
10093W        W12293  13.479   6.041  24.027 -0.2063 -0.1098  0.0106
10094W        W12294  15.376   1.161  32.973 -0.1454 -0.1045 -0.0917
10095W        W12295  15.571   2.695   1.667 -0.0961 -0.0281  0.0368
10096W        W12296   6.367   1.198  32.702  0.0928  0.0529 -0.0323
10097W        W12297  24.478   5.510  34.088 -0.1325 -0.2650 -0.0593
10098W        W12298  14.979   5.344  23.129  0.1204 -0.1826  0.1483
10099W        W12299   3.066   2.861   5.133 -0.1985  0.1859  0.1714
10100W        W12300   0.125   0.923  21.937 -0.0088  0.3319 -0.1714
10101W        W12301  21.394   6.041   4.392 -0.0714  0.0193 -0.2648
10102W        W12302  12.608   2.634  30.542 -0.0032 -0.1713 -0.0552
10103W        W12303  10.600   6.016  28.569  0.4141 -0.2924 -0.1735
10104W        W12304  22.818   3.760  28.001 -0.0475  0.0657  0.1181
10105W        W12305  17.311   4.269   1.275  0.0445 -0.0134 -0.0316
10106W        W12306   0.751   3.461   7.551  0.3541 -0.0124  0.0762
10107W        W12307   3.247   3.953  31.175 -0.0200 -0.2680 -0.0926
10108W        W12308   0.495   6.504   1.662 -0.0724  0.1020 -0.0799
10109W        W12309  24.231   5.150  33.825 -0.1231 -0.0831 -0.0460
10110W        W12310  16.229   0.232   0.340  0.0276 -0.1408 -0.2029
10111W        W12311   0.222   4.385   3.675 -0.2732  0.1779 -0.1146
10112W        W12312   5.608   2.591   9.806 -0.0754  0.1913 -0.0758
10113W        W12313   0.453   3.122   3.163  0.1518 -0.2110 -0.2408
10114W        W12314  20.930   1.282  31.462  0.0714  0.1326 -0.1797
10115W        W12315   7.056   5.367  11.313  0.2546 -0.0249 -0.0441
10116W        W12316   6.231   2.067  31.530 -0.0602 -0.0966 -0.0181
10117W        W12317  11.989   2.503   3.519 -0.2603 -0.0079 -0.1637
10118W        W12318  10.127   5.863  31.596 -0.0418  0.0676  0.1276
10119W        W12319   4.634   1.923   0.316  0.0162  0.0424 -0.0953
10120W        W12320   8.593   1.788   5.102  0.1881 -0.0110  0.0005
10121W        W12321   6.371   2.883  12.218  0.1491 -0.2521  0.0791
10122W        W12322  14.501   1.538  10.691  0.1721 -0.2222  0.1468
10123W        W12323  14.292   5.766  26.309 -0.0351 -0.3154  0.0247
10124W        W12324   3.094   0.628  31.713 -0.0899  0.1652 -0.2370
10125W        W12325  12.329   0.110   4.066  0.1708  0.0407  0.0089
10126W        W12326   0.859   6.062  23.250  0.1445 -0.1078  0.1458
10127W        W12327  10.641   1.883   3.564  0.1138 -0.3060  0.1243
10128W        W12328   2.848   2.121  28.252 -0.1630 -0.3163 -0.0829
10129W        W12329  17.824   5.500   5.166  0.3386 -0.1470 -0.2018
10130W        W12330  22.209   0.424  31.961 -0.1025  0.0673  0.0181
10131W        W12331  17.003   4.885  13.859 -0.4875  0.0549 -0.1227
10132W        W12332   4.355   3.867  29.236 -0.1421 -0.3813  0.0445
10133W        W12333   6.559   5.783   0.196 -0.2024  0.0201 -0.0391
10134W        W12334  16.394   0.422  11.803  0.1069  0.1895  0.3069
10135W        W12335   3.233   4.248  27.824  0.0496 -0.0220 -0.1315
10136W        W12336  24.075   1.799   5.766  0.1563 -0.1333 -0.0341
10137W        W12337   8.697   5.581   7.723 -0.2445 -0.1989 -0.0188
10138W        W12338   0.105   3.871  32.841 -0.1883  0.0776  0.1798
10139W        W12339   8.366   4.775   1.230  0.1259  0.0353  0.0440
10140W        W12340   5.996   1.863  33.286 -0.3876 -0.0604  0.1482
10141W        W12341  24.284   3.919   8.723 -0.1482  0.1030  0.6293
10142W        W12342  19.553   4.828  34.996 -0.1703  0.1285  0.0777
10143W        W12343   6.938   1.855  10.346 -0.0702  0.0835  0.0291
10144W        W12344  10.439   4.658  10.712 -0.0138 -0.1881 -0.1329
10145W        W12345   9.468   4.558  13.460  0.2234 -0.1316 -0.1638
10146W        W12346   9.541   2.907  24.399 -0.0249  0.1471  0.3935
10147W        W12347   2.660   5.044  25.280  0.1193  0.1692  0.0357
10148W        W12348  22.392   1.668  11.593 -0.1574  0.1770 -0.2434
10149W        W12349  21.411   2.891  22.994  0.1351 -0.0265  0.1302
10150W        W12350  14.286   2.812  28.091  0.0759 -0.0161  0.0139
10151W        W12351  11.464   2.241   7.677  0.1295 -0.2532  0.1474
10152W        W12352   3.120   3.424   4.437  0.0469 -0.2234 -0.1984
10153W        W12353   0.010   5.680   1.365 -0.2864 -0.0179 -0.0628
10154W        W12354  19.447   5.899  25.206 -0.0619 -0.0234 -0.6259
10155W        W12355  16.294   4.311  12.080 -0.0488  0.1515 -0.0284
10156W        W12356  21.612   4.805  21.492 -0.0901  0.2179 -0.0695
10157W        W12357   9.379   1.218  21.658 -0.1547 -0.0828  0.1677
10158W        W12358  18.180   0.274  30.376  0.0232  0.1545 -0.1146
10159W        W12359  19.906   6.543   6.091 -0.0444  0.1018 -0.0757
10160W        W12360   2.617   6.154   6.743 -0.0091  0.2127  0.2852
10161W        W12361  15.699   1.426  26.716 -0.2033  0.0559  0.1122
10162W        W12362  16.566   1.651   1.225 -0.2370  0.0598 -0.0847
10163W        W12363   8.248   5.959  35.406 -0.3699 -0.2773 -0.1481
10164W        W12364   7.435   4.232  27.015  0.1024 -0.2074 -0.1186
10165W        W12365  15.013   0.654  10.739  0.0815  0.0715 -0.3323
10166W        W12366   6.185   2.428   7.511 -0.1169  0.1084 -0.0798
10167W        W12367   3.072   2.182  25.702 -0.1572 -0.0107 -0.1498
10168W        W12368  19.568   5.756   8.884  0.2873  0.3076  0.0084
10169W        W12369   2.365   3.151   2.672  0.0662 -0.1749 -0.1716
10170W        W12370  11.698   3.589  13.635 -0.3620  0.0390 -0.2507
10171W        W12371   5.467   5.119  35.239  0.3641 -0.3774  0.0473
10172W        W12372   9.611   5.278   7.931 -0.0764  0.0202  0.1142
10173W        W12373   9.639   2.404  11.576  0.2884  0.1833  0.0040
10174W        W12374   3.268   5.533  35.249  0.1699  0.0033  0.0431
10175W        W12375  11.944   5.987  27.666  0.1129  0.1943  0.2050
10176W        W12376  11.807   1.644   8.463 -0.2900 -0.1647  0.1441
10177W        W12377   1.852   3.424   7.915  0.0453 -0.1144  0.1849
10178W        W12378  16.078   4.950  27.591 -0.2895  0.2126  0.0739
10179W        W12379  19.639   3.422   8.975  0.0504 -0.2309 -0.0175
10180W        W12380  13.683   4.718  32.200 -0.0871 -0.0896  0.0512
10181W        W12381   6.527   1.366   2.495  0.0305 -0.2656  0.1260
10182W        W12382   7.988   0.514   0.592 -0.0184  0.1077 -0.0099
10183W        W12383  12.612   5.126   1.556  0.0997 -0.2792  0.0395
10184W        W12384   9.298   2.328   2.113 -0.0173  0.5614 -0.0486
10185W        W12385  21.601   4.091  28.035 -0.1458 -0.0239 -0.2356
10186W        W12386   8.621   4.335  30.309 -0.3518  0.1958 -0.3322
10187W        W12387   0.023   5.829   0.041 -0.2305  0.0814  0.0355
10188W        W12388   9.662   5.661  31.983  0.3014  0.0733 -0.1678
10189W        W12389  11.890   1.945  33.941 -0.1646 -0.1106 -0.2990
10190W        W12390  17.899   2.975  29.763 -0.0167  0.0637  0.1776
10191W        W12391  14.141   1.793  14.750  0.0514  0.1264 -0.0021
10192W        W12392   0.482   3.146   0.543  0.1489 -0.0606  0.3206
10193W        W12393   9.375   3.171  29.088  0.0911 -0.3811  0.1762
10194W        W12394   0.899   2.876  35.678  0.2990  0.4242  0.0517
10195W        W12395   2.738   2.986  15.168  0.1587  0.1016  0.0303
10196W        W12396   1.192   0.739  34.738  0.0044 -0.1531  0.1550
10197W        W12397  16.214   0.452   9.262  0.3085 -0.2184 -0.1168
10198W        W12398   8.939   4.718  28.419 -0.0102 -0.0315 -0.0935
10199W        W12399  15.675   5.394   9.755  0.1988  0.0097  0.1988
10200W        W12400   9.923   0.058   9.959 -0.1826  0.2789  0.0474
10201W        W12401  18.234   5.645   7.042  0.1450  0.1375 -0.3838
10202W        W12402  15.424   5.525  21.148 -0.0867 -0.0713  0.0128
10203W        W12403   5.534   1.859   2.531 -0.0062 -0.0243 -0.1474
10204W        W12404  14.710   6.196  35.627  0.1488  0.0668  0.0945
10205W        W12405  20.003   0.537   0.410  0.1589  0.1402 -0.2235
10206W        W12406  23.663   5.985  26.981  0.0162 -0.1193 -0.0818
10207W        W12407   1.192   1.768  35.057  0.0351  0.0121  0.0843
10208W        W12408   1.388   4.775  35.885  0.0908 -0.0133 -0.3478
10209W        W12409   5.690   2.215   2.235 -0.0602  0.0478  0.0358
10210W        W12410  24.821   6.395   0.148  0.0456 -0.1991  0.0300
10211W        W12411  20.381   2.684   7.407 -0.2941 -0.1584 -0.1324
10212W        W12412   9.966   1.328  15.194 -0.2893 -0.0633  0.2551
10213W        W12413   1.900   6.189   2.244  0.1660  0.0318  0.1680
10214W        W12414  22.451   6.247  30.967 -0.0345 -0.0827  0.2406
10215W        W12415  24.552   3.749  35.049  0.0600 -0.7306 -0.0218
10216W        W12416  25.799   2.094  10.019 -0.0541  0.0495 -0.1211
10217W        W12417   8.819   0.332   9.452  0.0197  0.4021 -0.2509
10218W        W12418  25.971   6.018  21.262 -0.1030 -0.2946 -0.0508
10219W        W12419   1.364   1.487   4.784  0.1548  0.1919 -0.2276
10220W        W12420  26.347   1.254  21.406  0.1338  0.0447  0.0113
10221W        W12421  24.547   0.982  31.784 -0.1105 -0.1001 -0.0795
10222W        W12422   4.250   0.273  35.581  0.0397 -0.1640  0.4156
10223W        W12423   7.967   1.399  26.549  0.0408  0.0461  0.0385
10224W        W12424  22.273   6.470   4.409  0.1935 -0.0356  0.1656
10225W        W12425  11.191   2.649  11.331  0.0333 -0.1450  0.1056
10226W        W12426   4.010   4.356  29.050 -0.0576  0.0731  0.1781
10227W        W12427  22.987   5.910   4.812  0.3418  0.1297  0.2214
10228W        W12428  21.181   3.970   9.140  0.1077 -0.0739 -0.1234
10229W        W12429  15.322   0.075   8.949 -0.0970 -0.2896  0.3592
10230W        W12430  17.298   2.605  26.710  0.0370 -0.1290 -0.0706
10231W        W12431  12.046   5.004  26.752  0.0589 -0.2303  0.1026
10232W        W12432  14.821   4.855  27.064  0.2166 -0.2785  0.0696
10233W        W12433  18.173   3.698  35.489 -0.0505  0.1357 -0.0045
10234W        W12434  10.868   6.350  10.236  0.0853  0.0326  0.2380
10235W        W12435   7.761   0.456   2.589 -0.0909 -0.1366  0.3910
10236W        W12436  11.272   5.100  31.362 -0.2769 -0.1313  0.1405
10237W        W12437  12.516   0.325  22.824  0.1114 -0.1454  0.0936
10238W        W12438  17.003   5.857  26.905 -0.0545 -0.3182  0.1085
10239W        W12439  16.048   4.126  32.066  0.1485  0.2357  0.0679
10240W        W12440  15.688   4.154  30.259 -0.2008  0.2370  0.0603
10241W        W12441   7.705   5.342  21.190 -0.1817  0.0165  0.1830
10242W        W12442  19.918   3.405  24.458  0.0751  0.0226  0.1438
10243W        W12443  24.336   6.261  27.281  0.0563  0.2364  0.3104
10244W        W12444  23.383   5.519  13.676 -0.1652  0.0571 -0.0277
10245W        W12445  24.569   2.468  34.301 -0.3236 -0.2875 -0.1056
10246W        W12446  13.105   3.431   7.911 -0.0580 -0.0760  0.1199
10247W        W12447  15.274   3.493   1.759 -0.1048  0.2190 -0.0414
10248W        W12448  16.972   1.118   0.505 -0.0347 -0.0348  0.1042
10249W        W12449   5.041   3.336   2.165  0.1028 -0.2583  0.0363
10250W        W12450   5.713   3.077  33.716  0.1893  0.1498  0.0434
10251W        W12451   5.326   5.925  28.832 -0.2764 -0.0885 -0.0937
10252W        W12452  13.520   1.441  28.903 -0.1813 -0.2935  0.2036
10253W        W12453   7.543   5.840  10.266 -0.0296  0.0879 -0.2003
10254W        W12454   1.527   2.402  26.120 -0.0953 -0.1186 -0.0996
10255W        W12455   2.621   6.260  22.598 -0.2520  0.0134  0.1016
10256W        W12456  11.024   2.392  22.845 -0.0442  0.1117  0.3178
10257W        W12457  16.628   1.350  12.363 -0.1753  0.0687 -0.0050
10258W        W12458  20.867   6.445  30.765 -0.2314  0.0680  0.0089
10259W        W12459  22.532   2.119  34.932 -0.2902 -0.1745 -0.1754
10260W        W12460  14.075   3.839  25.484  0.1945 -0.3447 -0.0347
10261W        W12461  10.612   6.487  21.525  0.2507  0.2117  0.1141
10262W        W12462  10.641   4.480  12.218 -0.0069  0.0571 -0.1098
10263W        W12463  26.003   4.041   0.455  0.1372  0.2121 -0.0816
10264W        W12464  22.055   2.978  10.469  0.0592 -0.0178 -0.0578
10265W        W12465  25.885   0.230   5.199 -0.3448 -0.1288  0.2511
10266W        W12466  24.371   4.648  29.526  0.0004 -0.1143 -0.1090
10267W        W12467   2.595   1.149   3.919 -0.1291 -0.0338  0.0994
10268W        W12468  25.453   4.448  24.521  0.0758  0.1647 -0.1142
10269W        W12469  20.262   0.870   6.155 -0.2245 -0.0263  0.0981
10270W        W12470  10.234   3.228  29.555  0.0030  0.0113 -0.1631
10271W        W12471  24.867   0.684  23.172  0.0891  0.1668  0.2230
10272W        W12472  13.179   2.855  34.667 -0.2410  0.1667  0.1133
10273W        W12473  17.551   5.065  10.959  0.1446 -0.2563  0.0449
10274W        W12474  13.697   1.001   9.157 -0.3342  0.0520 -0.1092
10275W        W12475   0.448   4.309  31.278 -0.2306  0.0282  0.1363
10276W        W12476  18.795   4.960  23.836  0.4377  0.0135 -0.1370
10277W        W12477  26.370   5.893   8.227  0.0263 -0.0828  0.0735
10278W        W12478  13.225   0.374  34.660 -0.0148 -0.0815 -0.0343
10279W        W12479   8.734   1.168  24.177  0.0867  0.0418  0.0494
10280W        W12480  24.771   2.943   7.276 -0.0357 -0.1386 -0.0138
10281W        W12481  15.530   1.744   2.612 -0.0005  0.0898  0.2738
10282W        W12482  23.196   1.079  26.110 -0.3340 -0.2789 -0.1689
10283W        W12483  17.746   0.811  33.363  0.0096  0.2841  0.3601
10284W        W12484  21.142   6.373   7.597  0.1178  0.0121 -0.1296
10285W        W12485  21.230   1.505   6.665 -0.1955  0.0978 -0.0046
10286W        W12486  17.352   5.845   2.372 -0.0532 -0.1924 -0.0513
10287W        W12487  11.564   0.474  23.953  0.0140  0.1662 -0.0213
10288W        W12488  16.397   0.693  26.195  0.1447 -0.1107  0.2365
10289W        W12489  18.731   3.316  25.958  0.3173 -0.0202  0.1024
10290W        W12490   8.432   1.435  11.506  0.0253 -0.0033 -0.1328
10291W        W12491  18.079   2.126  22.956  0.0702  0.0459 -0.0026
10292W        W12492   8.007   3.554   8.920  0.0522  0.1912  0.0339
10293W        W12493  21.525   0.120   5.150 -0.2035 -0.1446 -0.0731
10294W        W12494  22.067   5.379   4.531  0.2149 -0.2024  0.0700
10295W        W12495   6.884   5.243  29.594 -0.1881 -0.1343  0.2381
10296W        W12496   5.693   6.478  23.474  0.0203  0.0576 -0.3108
10297W        W12497   3.982   2.293  21.113 -0.1646 -0.1776  0.0340
10298W        W12498  16.765   0.871  33.238  0.0876 -0.2770 -0.2644
10299W        W12499  11.306   2.559   1.836 -0.1369  0.1349  0.1035
10300W        W12500  19.811   2.171  34.951 -0.3161 -0.1331 -0.1476
10301W        W12501   0.914   1.528  32.989 -0.1308 -0.0127  0.0231
10302W        W12502  14.497   5.899   2.486  0.3221 -0.1647 -0.1188
10303W        W12503  14.206   2.667  21.978 -0.0770 -0.0362  0.0618
10304W        W12504  12.140   1.664   0.100  0.0246  0.2027  0.1596
10305W        W12505  17.558   2.603  13.283 -0.0419  0.0529 -0.0192
10306W        W12506  22.263   2.124  14.471 -0.1583  0.0986 -0.2157
10307W        W12507   0.016   2.475  12.925  0.1929 -0.0329  0.3833
10308W        W12508   1.995   1.376   7.453 -0.1674  0.0101  0.0142
10309W        W12509  14.980   3.425  29.539  0.0051 -0.1598  0.1323
10310W        W12510  13.264   0.328   2.541 -0.0620  0.0707 -0.1486
10311W        W12511   7.345   3.344  24.149 -0.1237  0.1366 -0.0988
10312W        W12512  12.603   4.829  33.404  0.3722 -0.1377  0.0977
10313W        W12513  18.894   1.153  23.748 -0.0760 -0.1321  0.2371
10314W        W12514   2.497   2.544  32.545  0.2178  0.0125  0.1272
10315W        W12515  24.102   1.595  33.252 -0.0325  0.2524  0.1378
10316W        W12516   2.888   5.207   4.727  0.1442 -0.4736  0.0712
10317W        W12517  15.190   6.415   5.185  0.1157  0.1697 -0.1831
10318W        W12518   8.514   1.086  27.624 -0.1197 -0.0345  0.2546
10319W        W12519   9.566   6.096   7.302  0.0440 -0.0286 -0.0662
10320W        W12520  26.297   2.800  36.041 -0.0783 -0.0146 -0.2329
10321W        W12521  16.638   3.183  30.199  0.2713 -0.1542  0.0486
10322W        W12522  10.537   2.139   8.601  0.4248 -0.4231 -0.0054
10323W        W12523  25.786   1.943  32.624 -0.0320  0.0823  0.1109
10324W        W12524  26.098   1.922  11.880  0.3443 -0.0612  0.0508
10325W        W12525   9.981   3.944   7.632  0.1925  0.3397 -0.0789
10326W        W12526  13.974   0.002  25.190 -0.1116  0.0794  0.1264
10327W        W12527  11.602   5.942  28.126 -0.1982  0.2217  0.0130
10328W        W12528  24.957   3.276   6.905 -0.0719  0.1574 -0.1221
10329W        W12529  19.451   0.260   8.759  0.1249  0.2274 -0.1713
10330W        W12530  20.437   4.993  35.625 -0.3627 -0.0683 -0.0493
10331W        W12531  23.133   0.344  10.453  0.3037 -0.0248 -0.3256
10332W        W12532  24.961   1.267  14.303 -0.1877 -0.1927 -0.0819
10333W        W12533   2.955   3.328   5.340 -0.1303  0.0108 -0.4255
10334W        W12534  15.362   1.496   1.562  0.0976  0.3054  0.0062
10335W        W12535  11.642   2.572   4.456  0.1166 -0.3353 -0.0894
10336W        W12536  23.503   2.075  23.546 -0.3410  0.0787  0.0362
10337W        W12537  23.082   2.967  23.335 -0.2579 -0.1497  0.0821
10338W        W12538   8.582   5.368   0.466 -0.0552  0.2402 -0.2061
10339W        W12539  13.738   1.223  26.209  0.1986 -0.0687  0.0798
10340W        W12540  24.134   0.538   1.069  0.1596 -0.0032  0.1287
10341W        W12541  17.768   0.579   8.408  0.0719  0.0039 -0.0712
10342W        W12542   5.646   6.467  27.642  0.0486  0.2649 -0.4876
10343W        W12543  16.898   3.443   7.731  0.3671 -0.3891  0.2552
10344W        W12544  21.669   4.949   4.539  0.0366  0.2967 -0.0896
10345W        W12545  14.557   5.858  32.828  0.2610  0.0310 -0.1865
10346W        W12546   8.909   0.256  26.152 -0.0730 -0.0701 -0.0647
10347W        W12547   9.865   0.655  12.606  0.0313  0.1075  0.0779
10348W        W12548  26.291   1.573  13.778  0.1207 -0.1661 -0.0777
10349W        W12549   3.395   2.267  28.391  0.0205  0.0346 -0.0744
10350W        W12550  25.670   3.436  14.051  0.0140  0.0064  0.0014
10351W        W12551  11.769   3.956  21.267  0.1517  0.0630  0.0819
10352W        W12552   2.876   5.239   6.222  0.2094 -0.0779 -0.2345
10353W        W12553  16.193   2.697  32.087  0.2034 -0.3361  0.1373
10354W        W12554  13.872   3.421  26.201 -0.0326  0.0383 -0.1926
10355W        W12555  25.406   2.057   0.904 -0.3630 -0.2336  0.0496
10356W        W12556  25.658   0.206  24.914  0.0126  0.0847 -0.0549
10357W        W12557   7.040   4.124   4.618 -0.1406 -0.1580 -0.1630
10358W        W12558  18.298   3.207  34.685 -0.0552 -0.1453 -0.0509
10359W        W12559  15.352   0.378   5.093 -0.0391  0.1858  0.0201
10360W        W12560  26.316   5.770  33.786 -0.1459 -0.1111  0.1883
10361W        W12561  19.457   3.985  14.324 -0.0655 -0.3313  0.3520
10362W        W12562  19.342   1.985  34.532 -0.2251  0.1185  0.1815
10363W        W12563  23.657   1.336   5.923 -0.0393 -0.0601 -0.0892
10364W        W12564  24.797   3.279  22.249 -0.0754 -0.0481  0.0433
10365W        W12565  10.956   3.074   5.908 -0.0543  0.4775  0.1158
10366W        W12566   9.725   2.680   7.946 -0.0790  0.0428 -0.1983
10367W        W12567   8.316   2.577  30.219 -0.3634  0.1796  0.0322
10368W        W12568  23.420   5.879  29.532 -0.2588 -0.3440  0.3473
10369W        W12569   0.286   0.673   2.996 -0.0723  0.1359  0.0258
10370W        W12570  11.038   1.095  33.825  0.1144  0.0722 -0.0480
10371W        W12571  11.000   4.337   7.541 -0.1917  0.2217  0.1423
10372W        W12572  12.045   0.338  13.207  0.1460 -0.1624  0.1563
10373W        W12573  13.465   6.152   8.627  0.0315 -0.0198 -0.0177
10374W        W12574  22.128   0.521   5.614  0.2219 -0.2521  0.4535
10375W        W12575  19.460   1.598  11.829  0.3087 -0.1346 -0.0863
10376W        W12576   6.331   4.262  14.497  0.1380  0.1186 -0.0854
10377W        W12577  18.756   3.010   7.127 -0.1377 -0.1214 -0.1548
10378W        W12578  10.246   0.244   8.719  0.1165  0.3351 -0.4454
10379W        W12579   6.458   4.973  31.008 -0.0162  0.3330  0.2395
10380W        W12580  26.225   5.937  35.061  0.1808  0.1354  0.0854
10381W        W12581   8.335   4.507  33.504 -0.2094  0.1878  0.2267
10382W        W12582   1.164   2.142   7.944 -0.1562 -0.1138 -0.0160
10383W        W12583  25.193   3.768  34.444  0.1156 -0.1678  0.2207
10384W        W12584  13.441   3.395  22.958  0.2745 -0.2600  0.0739
10385W        W12585   3.217   2.418  35.888  0.0615 -0.1480  0.0196
10386W        W12586   3.238   5.990   6.016 -0.1833 -0.0139  0.2854
10387W        W12587  16.587   6.358   5.142  0.1180 -0.0950 -0.1282
10388W        W12588   3.574   1.111   4.018 -0.0208  0.1696 -0.0465
10389W        W12589   1.452   5.404  12.469  0.1122 -0.0215 -0.1252
10390W        W12590  22.829   2.427  26.094 -0.1112  0.0284  0.1091
10391W        W12591   6.944   6.226   7.041  0.2083 -0.1775  0.1310
10392W        W12592  14.279   1.600  27.014 -0.1889 -0.0349 -0.0438
10393W        W12593  21.030   6.409  31.781 -0.0473 -0.0876  0.2914
10394W        W12594  16.996   0.156  30.737 -0.2289  0.3173  0.1458
10395W        W12595  22.943   6.547   9.416  0.3659  0.2789  0.1383
10396W        W12596  16.956   3.241  29.810  0.0084  0.2634 -0.1917
10397W        W12597   0.357   1.409   0.165 -0.0569  0.0262 -0.0418
10398W        W12598  22.631   0.951  35.806  0.1316 -0.0361 -0.0673
10399W        W12599  25.306   5.962  22.296  0.0581 -0.2463 -0.2753
10400W        W12600  13.292   4.671  25.554 -0.1730  0.0759  0.1875
10401W        W12601  25.712   4.929   9.294  0.1238  0.3877 -0.1662
10402W        W12602  18.560   5.280  11.203 -0.2005 -0.2026 -0.1386
10403W        W12603  24.670   6.108  30.679 -0.3603  0.2120 -0.3713
10404W        W12604   1.015   5.307  28.316 -0.1934  0.0857 -0.0127
10405W        W12605   9.514   4.749  21.802 -0.0111 -0.0592 -0.1803
10406W        W12606  15.067   1.662   5.006  0.3021  0.1250  0.1131
10407W        W12607  23.228   0.988  27.771 -0.0056  0.0757  0.1926
10408W        W12608  26.336   3.246  29.284 -0.0672 -0.1411 -0.0612
10409W        W12609  10.480   5.008  14.464  0.0355  0.2359  0.0326
10410W        W12610   9.191   1.326   7.495  0.0666 -0.0554  0.1584
10411W        W12611   1.003   3.871   8.187 -0.1742 -0.2024  0.4156
10412W        W12612  16.925   5.828   4.729 -0.0585  0.0021  0.1535
10413W        W12613   8.542   3.794  31.432  0.0121 -0.1707 -0.1282
10414W        W12614  21.974   0.551  25.463  0.1659  0.1347 -0.1392
10415W        W12615  22.962   2.207  20.933 -0.2301 -0.2144 -0.0089
10416W        W12616   8.069   0.571  11.922 -0.2291 -0.0382  0.0572
10417W        W12617  22.419   5.308   8.137 -0.1039 -0.1440 -0.1752
10418W        W12618  25.928   4.432  32.225  0.0701 -0.3269  0.1709
10419W        W12619   0.489   0.904  33.782  0.1883  0.0810  0.3990
10420W        W12620   6.181   0.235   1.108 -0.1937 -0.1514  0.0184
10421W        W12621  10.270   5.193  24.600 -0.1232 -0.3780 -0.1154
10422W        W12622  13.605   2.153  21.262  0.0100 -0.1070  0.0484
10423W        W12623   0.350   4.283   6.094 -0.1866  0.0785 -0.0161
10424W        W12624  15.191   3.341  35.438 -0.0811  0.0032  0.0296
10425W        W12625  15.483   1.877  35.927  0.0335  0.2403 -0.1108
10426W        W12626  19.499   4.298  21.190 -0.0821  0.6524 -0.4750
10427W        W12627   5.255   1.166  27.380  0.2848  0.0265 -0.1494
10428W        W12628  19.057   6.030  11.178 -0.1028 -0.0001 -0.1484
10429W        W12629   6.214   2.595  11.836 -0.1962 -0.1492 -0.1487
10430W        W12630  14.720   3.996   7.718  0.0490 -0.2417  0.0328
10431W        W12631  16.500   3.976  12.326  0.2186 -0.0711  0.2244
10432W        W12632  10.875   4.820  34.423  0.1270  0.0647 -0.1651
10433W        W12633  22.312   6.305   9.126  0.1875  0.0237  0.0300
10434W        W12634  21.731   0.961  20.363  0.3124 -0.0692 -0.0902
10435W        W12635  15.013   0.657   4.839 -0.0246  0.0940  0.0355
10436W        W12636  16.537   3.992  22.210  0.2447 -0.1625 -0.0897
10437W        W12637  14.080   1.412  31.028 -0.2022 -0.0347  0.1790
10438W        W12638   6.835   4.641   3.067  0.0967  0.2154  0.0643
10439W        W12639  17.780   6.231   8.237  0.1275  0.1814  0.0260
10440W        W12640  23.464   1.723  13.491 -0.0999  0.2000 -0.0511
10441W        W12641   2.223   1.736   8.097 -0.0241  0.1828  0.1761
10442W        W12642   7.646   6.232  35.845  0.2777 -0.1163 -0.0848
10443W        W12643  16.952   2.718  35.044 -0.0656 -0.1332  0.1380
10444W        W12644  10.103   2.804  33.513  0.1733 -0.2361 -0.2238
10445W        W12645   1.582   0.346  34.928  0.0120  0.0711  0.1560
10446W        W12646  13.476   2.336  14.243 -0.0998  0.0854 -0.1619
10447W        W12647  14.538   3.651   8.997  0.0925  0.1857 -0.1281
10448W        W12648   7.868   3.502  25.278  0.0842 -0.0431  0.0961
10449W        W12649   1.219   2.994  22.257  0.1776 -0.0325  0.0086
10450W        W12650  20.495   4.233   5.120 -0.1393  0.1407 -0.1545
10451W        W12651  22.809   2.665   3.599 -0.4068  0.1162  0.0680
10452W        W12652  13.345   6.399   1.877  0.0136  0.1476  0.0676
10453W        W12653  17.964   1.997  27.350  0.0046  0.3958 -0.2996
10454W        W12654  17.226   1.889  34.595 -0.3140  0.1082 -0.1905
10455W        W12655   3.207   3.023  14.358 -0.3112 -0.2307 -0.2373
10456W        W12656   8.994   1.702   0.061 -0.0670  0.0063  0.0632
10457W        W12657  16.369   4.717  27.162  0.1891 -0.2029 -0.2146
10458W        W12658   3.537   5.125   3.934 -0.2137  0.1831  0.1583
10459W        W12659   4.135   5.993  25.918  0.0081  0.0963 -0.1805
10460W        W12660   2.441   1.760   9.048  0.0105  0.1168 -0.1091
10461W        W12661  12.828   5.775   0.706  0.1919 -0.2530  0.1107
10462W        W12662  16.372   1.289   0.439  0.1575 -0.1624 -0.0847
10463W        W12663   7.407   2.887  13.933  0.2150 -0.1532 -0.0112
10464W        W12664   5.955   4.651  26.393  0.4792 -0.1174  0.0727
10465W        W12665  10.457   1.456   7.246 -0.0402 -0.0787 -0.0496
10466W        W12666   8.820   3.685  15.436  0.0296 -0.0267 -0.0497
10467W        W12667   2.410   2.188  13.352  0.2369 -0.2640 -0.0360
10468W        W12668  12.229   1.396   4.087  0.1335  0.2215 -0.1482
10469W        W12669  10.992   4.066  12.500 -0.1121  0.0369  0.0577
10470W        W12670  12.688   3.667  31.533  0.1222 -0.1155  0.0555
10471W        W12671  10.675   6.271  32.816  0.0417 -0.1368  0.1359
10472W        W12672  16.538   0.388  10.197 -0.1023 -0.0213  0.2651
10473W        W12673  14.363   5.499   1.605 -0.0257 -0.0539  0.1187
10474W        W12674   6.426   1.088   3.447 -0.0899  0.2746  0.1648
10475W        W12675   3.648   2.039  23.800 -0.0552  0.0860 -0.1176
10476W        W12676   8.088   6.243   0.688  0.0394  0.0214 -0.1350
10477W        W12677  17.774   2.706  20.737  0.0808  0.0061 -0.0739
10478W        W12678  24.889   3.455  11.662 -0.0204  0.2955  0.0724
10479W        W12679   8.916   3.271  28.320  0.1517 -0.0053  0.1440
10480W        W12680  11.224   4.135  16.331  0.0390 -0.1884 -0.0382
10481W        W12681  18.309   0.624  22.949  0.0405  0.1025  0.0141
10482W        W12682   7.955   2.864   5.174  0.1323 -0.2640 -0.1062
10483W        W12683  23.474   1.204  25.712  0.1020  0.2427  0.1524
10484W        W12684   4.213   2.144  28.904  0.5131 -0.1048 -0.1300
10485W        W12685  18.715   6.131  35.769  0.2752 -0.4021 -0.1521
10486W        W12686  12.703   5.842   4.693 -0.0585 -0.2432 -0.0036
10487W        W12687  12.379   1.986  23.542  0.0775  0.3058  0.0169
10488W        W12688  18.057   1.899   0.117  0.1979  0.0883 -0.1389
10489W        W12689   6.164   0.989   8.743  0.0350 -0.3209  0.2358
10490W        W12690   5.109   5.132  25.310 -0.0389  0.3496  0.0024
10491W        W12691  11.046   5.936   2.023  0.2176 -0.2130  0.1434
10492W        W12692   0.832   5.336   5.854 -0.1803  0.1783  0.0943
10493W        W12693  24.347   5.576  26.681  0.2998 -0.0117  0.1142
10494W        W12694  22.736   2.259  10.581  0.2001  0.0421  0.3225
10495W        W12695  16.834   4.689   8.259  0.0095 -0.1480  0.0735
10496W        W12696   7.045   0.622  31.691  0.0443  0.2799 -0.0133
10497W        W12697  19.220   5.738  23.305  0.0095  0.2159 -0.2430
10498W        W12698   9.083   6.342   4.522  0.1066  0.0611  0.2276
10499W        W12699  20.393   1.842  32.841  0.4282  0.0703 -0.0855
10500W        W12700   5.793   2.375  21.510  0.0424 -0.2624 -0.0896
10501W        W12701   2.472   5.616   3.854  0.0907  0.0751 -0.0337
10502W        W12702   6.022   1.377  14.115  0.2126  0.1770  0.2102
10503W        W12703  13.455   2.264   3.489  0.0574  0.1206 -0.0586
10504W        W12704  17.676   5.175  32.412 -0.1525 -0.1438 -0.1580
10505W        W12705  22.714   1.208   1.571  0.2371  0.1124  0.3293
10506W        W12706   3.071   1.851  26.974  0.1510  0.1490 -0.0411
10507W        W12707   3.515   5.948  33.595 -0.1249 -0.1652 -0.0629
10508W        W12708  12.636   6.235  10.401 -0.0559 -0.2008  0.0404
10509W        W12709  13.210   3.907  22.993  0.0810 -0.0030  0.0759
10510W        W12710   9.259   4.154  22.430  0.1942  0.1587 -0.1143
10511W        W12711   4.513   6.351  24.262 -0.1017 -0.0470 -0.0977
10512W        W12712  23.177   0.786  22.173  0.1413  0.1194 -0.2155
10513W        W12713  21.862   2.448   0.128  0.0520 -0.1909 -0.0298
10514W        W12714   3.397   6.140  32.646 -0.1609  0.1263  0.0874
10515W        W12715  13.675   2.225   4.674 -0.2686  0.2439  0.3472
10516W        W12716  18.910   4.485  30.685 -0.0375  0.2393  0.0900
10517W        W12717  13.299   3.026   1.773  0.0635  0.0220 -0.0529
10518W        W12718  19.504   4.742  13.697  0.3082  0.0414 -0.0964
10519W        W12719  23.858   3.871  14.997 -0.0903  0.0381 -0.1800
10520W        W12720  19.520   2.592  31.110 -0.1830  0.3201 -0.3215
10521W        W12721   2.747   4.001   7.785  0.0511  0.2632  0.0709
10522W        W12722   4.571   5.854   6.987  0.1467 -0.1209 -0.1896
10523W        W12723  19.314   1.955   8.044  0.0436 -0.2345 -0.2458
10524W        W12724  10.820   1.242  32.810 -0.1079 -0.0798 -0.1179
10525W        W12725   3.782   5.197  35.041 -0.2465 -0.2026  0.4198
10526W        W12726   0.932   2.758  11.251  0.0064 -0.1683  0.0783
10527W        W12727  16.413   6.329   1.355  0.1482  0.2145 -0.0955
10528W        W12728  19.861   0.296   2.001  0.1662  0.1266  0.0854
10529W        W12729   7.546   3.821   4.626 -0.0916  0.1695  0.0447
10530W        W12730  24.320   0.804  15.055  0.1338  0.2573  0.0852
10531W        W12731  16.392   4.420  14.679 -0.2570  0.1662  0.1313
10532W        W12732  13.200   1.292  26.804 -0.0499 -0.2270  0.1116
10533W        W12733  11.167   5.745  31.668  0.0096 -0.1646 -0.1635
10534W        W12734   7.921   5.124  12.224 -0.3656  0.1012 -0.0080
10535W        W12735  12.164   0.456   1.119 -0.0072  0.0280 -0.1863
10536W        W12736  21.173   0.770  12.799 -0.1799 -0.0810 -0.3739
10537W        W12737   9.432   4.504  10.279  0.2704  0.3373  0.3070
10538W        W12738  20.688   0.865   3.192  0.1282 -0.2505  0.0383
10539W        W12739  17.191   6.423  15.453  0.0034 -0.0323 -0.0919
10540W        W12740  20.547   2.695   4.095 -0.0583 -0.0880  0.4085
10541W        W12741  11.233   1.659  10.885 -0.0536 -0.0282  0.0523
10542W        W12742   2.016   6.435   5.577  0.1391  0.0628 -0.2197
10543W        W12743  26.235   4.057  10.467 -0.0395  0.0585  0.0293
10544W        W12744   0.704   1.609  34.937  0.1071  0.2749  0.1572
10545W        W12745  12.130   6.515  25.539  0.1399 -0.1681 -0.0950
10546W        W12746   1.986   0.382  12.942 -0.0528 -0.0210  0.1629
10547W        W12747   1.778   3.429  22.349  0.0561  0.1541  0.0331
10548W        W12748   6.989   3.729  21.526  0.0849  0.0816  0.0614
10549W        W12749   5.135   2.637   2.570 -0.0481 -0.2219 -0.0114
10550W        W12750  16.731   3.269  28.175  0.2403 -0.0446  0.1826
10551W        W12751   5.497   0.946  21.304 -0.0872  0.0901  0.0773
10552W        W12752  11.472   4.689  22.700  0.0416  0.1149 -0.3441
10553W        W12753  13.216   0.694  15.020 -0.1261 -0.0075 -0.0060
10554W        W12754  15.067   5.769  11.849  0.1678  0.3656 -0.1312
10555W        W12755  17.311   3.419  23.712 -0.2605  0.1444 -0.2057
10556W        W12756   8.765   0.519  12.618 -0.0940  0.0855  0.1443
10557W        W12757  24.965   2.750  26.549  0.4051  0.0894  0.1099
10558W        W12758  10.122   4.834  24.871  0.0394 -0.2335 -0.2011
10559W        W12759  24.470   1.957  28.474  0.1175 -0.2030  0.0291
10560W        W12760  16.877   1.997   1.949  0.3683  0.0619  0.3250
10561W        W12761   8.436   0.617  31.172 -0.0121  0.3052  0.0270
10562W        W12762  17.399   5.933   6.179 -0.0669  0.0526 -0.2025
10563W        W12763   0.047   3.780  35.841  0.1619  0.2847  0.5096
10564W        W12764  13.314   6.419  35.038  0.1449 -0.0125  0.0014
10565W        W12765   1.860   6.007   8.186 -0.1238  0.0103 -0.1006
10566W        W12766  20.137   1.808  13.201 -0.2444 -0.1685  0.1506
10567W        W12767  22.359   5.844   6.934 -0.1515 -0.2395  0.1262
10568W        W12768  10.402   3.948   7.884  0.0784 -0.1351  0.0161
10569W        W12769  15.691   0.725  24.935  0.0123 -0.1327  0.1387
10570W        W12770  14.944   2.964  30.089 -0.0824  0.1113  0.1227
10571W        W12771  16.423   0.611  29.381  0.1935 -0.2116  0.0927
10572W        W12772   1.595   0.884  23.847 -0.1454  0.1307 -0.0297
10573W        W12773   0.384   2.402   9.972  0.1485  0.2354 -0.2509
10574W        W12774  16.486   2.650  32.895 -0.2379  0.3772  0.0863
10575W        W12775  20.390   0.887   2.330  0.0434  0.3102  0.0578
10576W        W12776  20.186   1.377   4.279 -0.0646 -0.0030 -0.1702
10577W        W12777   6.314   5.168   1.306 -0.2256 -0.0536 -0.1579
10578W        W12778   5.333   0.024  33.031  0.3550 -0.0345  0.1821
10579W        W12779   5.006   5.089  33.268  0.0981  0.0582 -0.1397
10580W        W12780   1.167   0.705  28.695 -0.0693  0.1415 -0.2634
10581W        W12781  18.200   4.066  10.488  0.0629  0.0675 -0.3468
10582W        W12782  20.653   4.806  22.880  0.1499 -0.1941  0.0937
10583W        W12783   0.689   4.716  13.440 -0.0865  0.3110  0.0045
10584W        W12784   0.924   4.539  25.886 -0.0935  0.2910  0.2343
10585W        W12785   3.279   5.536  24.234 -0.0620  0.2683  0.1210
10586W        W12786  20.242   3.527  34.836 -0.1256 -0.3682 -0.1050
10587W        W12787   5.932   3.092  26.437  0.0669 -0.1047  0.0469
10588W        W12788  21.254   2.588  12.971  0.2761 -0.2179  0.1839
10589W        W12789  14.582   1.536   5.540  0.1480 -0.0552  0.2215
10590W        W12790   6.631   3.200  32.978  0.1608  0.1092  0.1616
10591W        W12791  21.613   3.156  25.288 -0.6319 -0.1652  0.0202
10592W        W12792   9.476   1.128  23.857  0.0965  0.0251 -0.1425
10593W        W12793  26.147   2.403  29.613  0.1349 -0.0002 -0.0546
10594W        W12794   0.804   3.470  30.880  0.1314 -0.1558 -0.4111
10595W        W12795  25.277   3.433  24.540  0.0793  0.2754  0.1903
10596W        W12796   0.914   3.283  13.727 -0.0336 -0.0105  0.0456
10597W        W12797  14.810   1.434  21.127 -0.1453 -0.0215  0.4513
10598W        W12798   9.984   4.280  31.531  0.2225  0.1622 -0.1830
10599W        W12799   5.523   0.152  24.800  0.0004  0.2808  0.0902
10600W        W12800  12.331   2.845   5.267 -0.0941 -0.2538 -0.1692
10601W        W12801   8.942   3.828  35.790  0.2715 -0.2998  0.3203
10602W        W12802   7.503   6.464  23.075 -0.0308  0.0584  0.2425
10603W        W12803  24.968   4.770  35.948  0.1105 -0.1437  0.1903
10604W        W12804  15.374   0.897   5.181  0.0429 -0.1427 -0.0415
10605W        W12805  12.263   2.211  21.901  0.0493  0.2261 -0.3406
10606W        W12806  25.121   1.818  14.448  0.0909 -0.1452 -0.0349
10607W        W12807   0.388   6.064  10.948 -0.3356  0.1477 -0.2325
10608W        W12808  12.970   5.080   8.229 -0.2330 -0.2069 -0.0754
10609W        W12809   7.673   5.423   9.122 -0.0063 -0.0693  0.1967
10610W        W12810  18.932   0.723  25.563  0.2221 -0.2281 -0.2175
10611W        W12811   2.741   2.225  10.802  0.1702 -0.0086  0.1102
10612W        W12812  20.789   2.602  24.556  0.0117  0.1094  0.1809
10613W        W12813   8.177   1.778  34.080  0.0580  0.0818 -0.0914
10614W        W12814  21.735   4.348  21.571 -0.1262 -0.0226  0.1895
10615W        W12815   0.529   5.849  21.911 -0.2080 -0.0589 -0.0522
10616W        W12816  12.263   4.853  24.282  0.0222 -0.1207 -0.2614
10617W        W12817   6.108   0.597  12.560  0.0097  0.1092 -0.0226
10618W        W12818   9.805   5.513   2.032 -0.2236 -0.1964  0.0308
10619W        W12819  24.506   1.081  13.510 -0.0609 -0.3605  0.0057
10620W        W12820  19.639   6.368   0.220  0.1571  0.1278 -0.0970
10621W        W12821  23.811   2.085  26.860 -0.1612  0.3721  0.0643
10622W        W12822   2.903   1.970   8.915 -0.0685 -0.0031  0.0512
10623W        W12823  13.324   1.023   2.559  0.1923 -0.1484  0.2861
10624W        W12824  10.805   5.407  26.206  0.1506  0.2726  0.0936
10625W        W12825  19.644   5.121  31.086 -0.2420  0.1592  0.1214
10626W        W12826   0.075   5.749   5.360  0.1283  0.0849  0.0207
10627W        W12827  17.626   4.569   6.170 -0.1791  0.1820  0.1357
10628W        W12828  20.946   4.092  14.189 -0.0020  0.0092  0.0643
10629W        W12829   2.379   2.549  29.213 -0.1035 -0.0365  0.1727
10630W        W12830  14.566   3.985  15.515  0.0829 -0.1166 -0.0612
10631W        W12831  15.168   4.410  24.820  0.1022  0.0543 -0.1491
10632W        W12832   7.466   2.509  26.706 -0.3727  0.2326 -0.1973
10633W        W12833   5.620   3.171   6.737  0.0498 -0.2276 -0.2696
10634W        W12834  23.366   1.407  19.986  0.0535 -0.5009  0.0475
10635W        W12835  25.559   6.273   6.505 -0.0345  0.2308  0.1820
10636W        W12836  23.823   0.803  15.341  0.3911 -0.0472 -0.0470
10637W        W12837   8.815   4.701  35.308  0.2066  0.1757  0.1239
10638W        W12838   8.667   5.224  35.180 -0.0187 -0.0878 -0.1330
10639W        W12839  13.156   2.268  10.659  0.1759 -0.0962  0.1267
10640W        W12840   1.011   5.563  35.285  0.0953  0.2309  0.1602
10641W        W12841  26.022   1.436  35.949 -0.1432  0.2041  0.2255
10642W        W12842  11.370   3.236  33.147  0.0139 -0.1273  0.3756
10643W        W12843  14.230   2.206  11.744 -0.1434 -0.1393 -0.1593
10644W        W12844  15.713   4.076  23.252 -0.1085  0.1935 -0.0938
10645W        W12845  23.839   6.462  22.106  0.1557 -0.1521  0.1054
10646W        W12846  15.011   4.938  23.519 -0.1658  0.1527 -0.1418
10647W        W12847   9.262   1.707  29.286 -0.0796 -0.2516 -0.3395
10648W        W12848   2.564   2.984   9.155  0.0971  0.1560  0.0915
10649W        W12849  20.708   5.353  14.507 -0.0774 -0.0410 -0.0255
10650W        W12850  18.847   4.784   6.323  0.0619 -0.2372 -0.0490
10651W        W12851   5.571   2.051  31.642  0.3301  0.1858  0.0174
10652W        W12852  25.257   5.193  35.778  0.4172  0.1118 -0.1480
10653W        W12853  25.230   0.577  10.562 -0.0631  0.2655 -0.0457
10654W        W12854   6.950   6.343   3.738  0.0651 -0.2150  0.2011
10655W        W12855  25.490   1.209  28.101 -0.1689  0.0632  0.2183
10656W        W12856  11.023   6.510   6.950  0.1067  0.0311 -0.2332
10657W        W12857   9.701   0.254  15.327  0.3663 -0.1857  0.0024
10658W        W12858  13.002   5.412  26.286 -0.0966 -0.1146 -0.1909
10659W        W12859  11.523   6.002   2.159  0.1923 -0.4800 -0.0917
10660W        W12860  21.595   0.272  25.311  0.0013  0.1560  0.0855
10661W        W12861  20.291   1.431   2.943 -0.1141  0.1026  0.2226
10662W        W12862   4.172   4.528  33.741 -0.1622  0.0192  0.1665
10663W        W12863  25.246   4.772  35.490  0.1251  0.2915 -0.1932
10664W        W12864   5.991   2.599   2.980  0.1352  0.0340  0.2820
10665W        W12865  17.445   4.420   4.532 -0.0503 -0.4249  0.2721
10666W        W12866   9.397   0.284  10.946  0.1246 -0.0846 -0.1945
10667W        W12867  22.668   3.940  35.785 -0.3924  0.2866  0.0752
10668W        W12868  13.207   1.981  23.977 -0.1759 -0.0460 -0.0396
10669W        W12869  18.025   3.074  22.922  0.0206 -0.0328  0.1428
10670W        W12870  17.758   3.113  27.408  0.0804  0.3823 -0.0848
10671W        W12871  25.804   1.973  35.178  0.1508  0.0222 -0.0294
10672W        W12872   1.205   5.099   7.187  0.2537  0.1641  0.0994
10673W        W12873   0.461   1.364  24.428 -0.1816  0.0327 -0.3128
10674W        W12874  13.361   2.728   6.533  0.0872  0.1925 -0.1986
10675W        W12875  13.570   5.959  20.925 -0.2416 -0.0962  0.0778
10676W        W12876  16.020   3.345  32.851 -0.1349 -0.1874 -0.0866
10677W        W12877  25.700   0.565  31.127 -0.0212  0.0625  0.1224
10678W        W12878  11.566   3.062   4.662  0.0820 -0.2644  0.1876
10679W        W12879   4.201   4.977  20.832 -0.1285 -0.1620  0.0081
10680W        W12880  17.218   2.295   9.880  0.2392 -0.2562 -0.2189
10681W        W12881   6.233   3.405  28.690 -0.2303 -0.0543 -0.0709
10682W        W12882  26.157   0.528  14.744  0.1933  0.0307  0.0413
10683W        W12883  23.601   1.680   6.337 -0.3580  0.0041  0.1983
10684W        W12884   9.461   5.469  27.066 -0.3803 -0.1175  0.1404
10685W        W12885  21.869   2.942   1.727 -0.2794 -0.0068  0.2972
10686W        W12886   0.510   0.075  31.987  0.1050 -0.3902 -0.2109
10687W        W12887  14.907   0.558  27.549  0.2341  0.1271 -0.1441
10688W        W12888  14.806   1.652   8.734 -0.0313 -0.2013  0.3272
10689W        W12889  11.862   3.582  30.836 -0.1710  0.0472 -0.3478
10690W        W12890  12.138   0.801   7.274  0.2594 -0.2514  0.2904
10691W        W12891  10.432   4.487  13.688 -0.3176  0.0642 -0.0693
10692W        W12892  20.732   2.720   3.634  0.0468 -0.0682 -0.0620
10693W        W12893  11.540   6.033   7.426 -0.1267  0.0708  0.1248
10694W        W12894  15.522   2.835  11.772  0.1216  0.1850 -0.0057
10695W        W12895  13.488   5.816   5.251  0.2272 -0.0765 -0.0286
10696W        W12896  22.786   0.119   6.053  0.0462 -0.0854 -0.2095
10697W        W12897  21.316   5.473   7.375  0.1760 -0.2871 -0.0907
10698W        W12898  19.833   3.696   8.501  0.0586  0.0625  0.3253
10699W        W12899   8.404   3.467  15.212 -0.1235  0.1410 -0.0371
10700W        W12900  16.911   5.133  25.997  0.0074  0.0726  0.0030
10701W        W12901  16.432   0.290  35.374 -0.0898  0.0009 -0.0295
10702W        W12902  17.188   5.409  28.662  0.0592  0.0261  0.0529
10703W        W12903  20.985   1.400  26.193 -0.0340  0.1194 -0.0219
10704W        W12904  23.987   0.713  34.145 -0.0573  0.3376 -0.1256
10705W        W12905  25.921   4.850  33.489  0.2943 -0.1648  0.0744
10706W        W12906   1.897   1.466   8.439 -0.0980  0.3523 -0.0524
10707W        W12907  12.167   5.927  25.290 -0.2032  0.0434  0.4119
10708W        W12908  15.259   0.121  22.895 -0.1403  0.3343 -0.2813
10709W        W12909  16.113   1.511   9.100  0.4737 -0.1089 -0.3026
10710W        W12910   7.784   3.118  13.013 -0.1005  0.4232  0.0710
10711W        W12911   4.323   4.278  14.132 -0.1507 -0.0614  0.1214
10712W        W12912   4.845   6.550   9.010 -0.0112 -0.2412 -0.1377
10713W        W12913   2.395   1.908  35.801 -0.1151 -0.2726 -0.2274
10714W        W12914   1.727   1.858  35.928  0.1621 -0.0430 -0.3282
10715W        W12915  21.400   5.046  30.542  0.2945  0.2283  0.2082
10716W        W12916  18.458   2.684  13.561  0.0271  0.3580 -0.0942
10717W        W12917   6.955   4.144  32.381 -0.2870  0.0634  0.2971
10718W        W12918  24.166   2.833  31.681 -0.2350 -0.2434  0.0388
10719W        W12919  18.908   4.323  13.090 -0.0844 -0.6895  0.0343
10720W        W12920  19.862   2.831  26.518  0.0054 -0.2533 -0.2250
10721W        W12921   6.991   1.715   7.984  0.0117 -0.1420 -0.1825
10722W        W12922  21.442   2.598   1.945 -0.0161 -0.1696 -0.2669
10723W        W12923   4.059   3.170   3.012 -0.1205  0.2255 -0.2803
10724W        W12924  11.580   3.848  34.064 -0.1646 -0.1380  0.0319
10725W        W12925   8.418   0.316  24.185 -0.0217 -0.3560 -0.0266
10726W        W12926  14.636   2.287  30.810  0.1401  0.1390 -0.0199
10727W        W12927   2.464   0.626  10.311  0.2499  0.0697 -0.3162
10728W        W12928  19.826   1.958   6.852  0.1923  0.0238 -0.0714
10729W        W12929   9.833   0.862   0.996 -0.2328  0.2100  0.0282
10730W        W12930  25.838   4.436   5.716 -0.2091  0.1389  0.1469
10731W        W12931  21.314   0.974  14.100 -0.1204  0.0457  0.2076
10732W        W12932   6.278   4.962  23.301  0.0946  0.2623  0.3146
10733W        W12933   3.346   0.547   5.443  0.0523  0.0894  0.0096
10734W        W12934   3.461   0.781  27.007 -0.0225  0.2973  0.1436
10735W        W12935  20.837   1.823  25.897 -0.0020  0.1225  0.0487
10736W        W12936  16.778   2.365   3.622 -0.4458 -0.1610  0.0058
10737W        W12937   3.811   0.993   0.163 -0.1764 -0.0645 -0.2550
10738W        W12938   3.512   5.684   5.672 -0.0720 -0.1159 -0.1076
10739W        W12939   2.986   6.310   6.430 -0.2860  0.2323  0.1830
10740W        W12940   8.227   1.296  15.090  0.0240 -0.0009  0.0163
10741W        W12941  19.159   1.651  32.938  0.0075  0.0323  0.0943
10742W        W12942   5.582   0.337   7.322  0.0142 -0.4165 -0.2075
10743W        W12943   4.075   1.766   7.955 -0.1853 -0.0624  0.1589
10744W        W12944  21.603   3.357   1.599 -0.1104  0.0231  0.1352
10745W        W12945   1.358   3.211   8.226  0.1999 -0.4811  0.2294
10746W        W12946  20.257   3.858   4.360 -0.1577 -0.1141  0.0843
10747W        W12947  19.412   3.048  12.810  0.2506  0.0597  0.0784
10748W        W12948   8.429   3.366  14.674  0.0490 -0.1435 -0.2782
10749W        W12949  20.420   6.460  26.170 -0.1650 -0.2964  0.0941
10750W        W12950   9.916   6.303  13.880 -0.1724  0.1082 -0.0060
10751W        W12951   6.928   0.386  21.711 -0.0015 -0.2287  0.0873
10752W        W12952  26.201   0.789   3.010 -0.1362  0.2790 -0.0072
10753W        W12953  14.997   3.111   3.282  0.0095 -0.2219 -0.2802
10754W        W12954  20.434   5.541  31.571  0.0166 -0.2078  0.0783
10755W        W12955   5.086   0.788  30.107  0.1802 -0.1289  0.1331
10756W        W12956  19.492   5.785  34.691  0.1190  0.1442  0.0247
10757W        W12957   5.141   5.668   8.680 -0.1100  0.0042 -0.1133
10758W        W12958   2.521   0.139   7.830  0.0677 -0.0385  0.1231
10759W        W12959   8.173   5.292   6.912  0.1610 -0.0122  0.0745
10760W        W12960  15.009   3.867  23.146 -0.1619  0.0016  0.1940
10761W        W12961  18.079   2.182  29.725  0.2993  0.1472 -0.2513
10762W        W12962  18.098   2.324   2.254 -0.2776 -0.1110  0.1114
10763W        W12963   9.980   5.383   3.357 -0.1280  0.2711 -0.2346
10764W        W12964  20.404   3.802  24.009  0.4513  0.0526  0.1199
10765W        W12965  24.162   0.323  14.235  0.0833  0.1035  0.1758
10766W        W12966  21.813   4.228  34.560  0.0564 -0.3275  0.2422
10767W        W12967  10.290   0.679  22.277 -0.2515  0.5344 -0.0731
10768W        W12968  11.906   1.533  29.260  0.2486 -0.0190 -0.3071
10769W        W12969  10.543   0.709   3.030 -0.1878 -0.1080  0.0593
10770W        W12970   2.068   2.729  35.116 -0.1453  0.1701  0.3365
10771W        W12971   5.078   1.084  22.660  0.0822  0.0284 -0.2467
10772W        W12972  21.539   2.035   1.931 -0.0085  0.0850 -0.2888
10773W        W12973  17.269   4.856   7.479 -0.0192  0.3015  0.2104
10774W        W12974  24.385   5.959  26.350  0.0724  0.2422  0.0942
10775W        W12975  11.125   4.516  21.076 -0.2502 -0.0201 -0.0215
10776W        W12976  15.999   0.549  13.067  0.0677 -0.0145  0.2181
10777W        W12977   1.302   5.959  25.716 -0.0980  0.0930  0.1861
10778W        W12978  14.224   6.233   1.132  0.4061 -0.0341  0.0329
10779W        W12979   9.658   0.558  27.132  0.1684  0.0835 -0.1506
10780W        W12980  17.903   5.214   2.581  0.1356 -0.1799 -0.0417
10781W        W12981  16.830   4.498  11.036 -0.1727  0.1218 -0.0296
10782W        W12982   8.751   5.075   4.445 -0.0636 -0.1047  0.2542
10783W        W12983  21.847   2.194  34.312  0.0811 -0.0248 -0.2648
10784W        W12984  19.257   0.409   1.677  0.0544 -0.0272  0.3038
10785W        W12985  14.243   4.268  12.536  0.2159 -0.0866  0.2056
10786W        W12986  22.168   3.997   5.548 -0.0440 -0.2208  0.0430
10787W        W12987  16.245   2.985  32.557  0.0417 -0.1434 -0.1641
10788W        W12988  12.448   0.078  30.127 -0.0812 -0.2020 -0.0955
10789W        W12989   9.502   2.520   9.868  0.0075  0.3922  0.2433
10790W        W12990  18.549   4.635  24.711  0.1671  0.0701 -0.4714
10791W        W12991   4.884   4.568  12.847 -0.0985 -0.1774  0.1332
10792W        W12992   5.300   3.600  13.585  0.0635 -0.2127  0.0396
10793W        W12993  19.081   0.970  22.079 -0.1337 -0.0550  0.1189
10794W        W12994   6.162   6.076   6.814  0.2484  0.3067 -0.2306
10795W        W12995   7.230   3.769  23.025  0.3379 -0.0274 -0.0037
10796W        W12996  20.679   1.670  20.798 -0.2717 -0.2555 -0.0097
10797W        W12997  10.908   3.921   4.748 -0.1320  0.1460 -0.0418
10798W        W12998  25.826   6.127  13.185  0.1879 -0.0300 -0.0991
10799W        W12999   0.404   3.063  30.779  0.3466 -0.0255 -0.1343
10800W        W13000   8.548   3.239   3.015 -0.0299 -0.0808 -0.0384
10801W        W13001  23.087   3.655   4.725  0.1364  0.0941 -0.3046
10802W        W13002  15.800   3.625  23.030  0.0109 -0.2021 -0.3397
10803W        W13003  23.490   4.312  30.864 -0.0933  0.1886  0.0641
10804W        W13004  10.229   4.168  28.327  0.3120 -0.2230 -0.0571
10805W        W13005   6.137   5.219  26.878  0.1685 -0.0943 -0.1487
10806W        W13006  10.342   2.053   7.304  0.3584 -0.3188  0.1823
10807W        W13007  23.142   0.612   8.554 -0.0125 -0.2422  0.0364
10808W        W13008   2.510   5.777  22.449 -0.3307 -0.0078  0.0596
10809W        W13009   6.325   2.894   7.656 -0.2938 -0.0447  0.1436
10810W        W13010   4.601   1.606  35.209  0.1430  0.1726  0.3041
10811W        W13011  15.874   5.115  21.581  0.2127 -0.3417 -0.2026
10812W        W13012  25.843   0.195  25.679  0.1075  0.2476  0.3949
10813W        W13013  14.242   1.454   2.257 -0.3866  0.1221 -0.0216
10814W        W13014   2.658   3.906  11.634  0.0575  0.1301 -0.0164
10815W        W13015   0.115   0.626  12.032  0.0849 -0.2006  0.1208
10816W        W13016  10.740   1.532   2.070  0.1336 -0.0964  0.1815
10817W        W13017   4.386   1.318   4.902 -0.2977 -0.2533 -0.1494
10818W        W13018  20.094   5.277  23.469 -0.0825 -0.0646 -0.0699
10819W        W13019  19.743   1.997  29.368  0.1939  0.0625  0.2436
10820W        W13020  16.965   4.626  34.037  0.0238 -0.1064  0.0750
10821W        W13021  18.738   4.743  10.244 -0.0182  0.2309 -0.0643
10822W        W13022  21.666   2.079  28.293 -0.1988  0.0720  0.1518
10823W        W13023   8.325   1.658  15.469 -0.1441 -0.3466 -0.0691
10824W        W13024   6.064   2.423  23.449 -0.1468  0.1276  0.1783
10825W        W13025  14.467   2.944  16.123 -0.0895  0.2287  0.1140
10826W        W13026  18.636   1.612  22.197 -0.0697 -0.1401  0.2173
10827W        W13027  10.059   2.630  22.498 -0.3332 -0.3604  0.0590
10828W        W13028  23.875   2.307  23.263 -0.0558 -0.1697  0.3264
10829W        W13029  16.752   4.266  34.376 -0.1602 -0.0797 -0.0868
10830W        W13030  17.410   1.212  25.816 -0.2485  0.3102 -0.1904
10831W        W13031  12.644   0.446  32.104  0.2283 -0.0239 -0.0760
10832W        W13032   3.758   4.198  12.735  0.0452 -0.2490 -0.2729
10833W        W13033  10.178   1.881   1.860 -0.1275  0.1747  0.0476
10834W        W13034   2.123   1.841   8.623 -0.0150 -0.1187 -0.5067
10835W        W13035  11.901   6.593   5.007  0.2507  0.1064  0.1369
10836W        W13036  17.654   0.135  24.960  0.1470 -0.1237  0.1120
10837W        W13037  22.910   0.171  12.344 -0.0991 -0.0227 -0.1397
10838W        W13038   4.099   3.159  33.185  0.1481  0.1712 -0.0341
10839W        W13039   8.835   5.315   8.766 -0.0165 -0.0272 -0.0230
10840W        W13040  22.358   0.674   9.474 -0.1646  0.1083 -0.0391
10841W        W13041   7.578   5.566   8.196  0.0821 -0.0030 -0.0061
10842W        W13042   5.258   6.490   9.241  0.0058  0.0351 -0.2235
10843W        W13043  23.550   4.593   3.572 -0.0240  0.0584  0.1075
10844W        W13044  12.534   2.755   1.228  0.1226 -0.0089 -0.1242
10845W        W13045  26.234   3.158   4.239  0.0731 -0.0304 -0.0316
10846W        W13046   4.615   3.228  21.528  0.0939 -0.4716  0.2487
10847W        W13047  23.749   6.247  28.945 -0.0438  0.0305  0.0368
10848W        W13048   9.698   1.934  11.843  0.1650 -0.1616  0.1428
10849W        W13049  11.587   4.911  32.778 -0.0948  0.0722 -0.0882
10850W        W13050   2.913   0.679  23.852  0.0331 -0.0393  0.0335
10851W        W13051   3.715   4.852  23.563 -0.0047  0.3311  0.2843
10852W        W13052   1.819   6.395  27.712 -0.1970  0.1143 -0.3661
10853W        W13053   3.802   5.900  27.714  0.0461  0.0045  0.0166
10854W        W13054  19.465   1.770  12.515  0.0658  0.1585  0.0577
10855W        W13055   3.568   6.168  24.278 -0.1925 -0.0723  0.2475
10856W        W13056  20.480   1.371  34.065  0.1004 -0.1096  0.1309
10857W        W13057  13.185   5.775   0.373  0.2390  0.2041 -0.0158
10858W        W13058  15.117   2.796  10.754  0.0942  0.1823 -0.0074
10859W        W13059  17.457   0.232  32.465 -0.2104  0.0936  0.2504
10860W        W13060  23.966   0.938  23.997  0.1150 -0.0852 -0.0845
10861W        W13061   7.859   0.835   7.400 -0.0854  0.1445  0.1461
10862W        W13062  24.514   2.221   1.902  0.0104  0.1684 -0.1440
10863W        W13063   1.629   2.083  10.755  0.0764 -0.0638  0.1900
10864W        W13064   8.889   3.111  23.825 -0.1610  0.1435  0.1234
10865W        W13065  16.959   2.552  24.614 -0.0852 -0.1369 -0.1458
10866W        W13066   3.435   4.014  27.124  0.1826  0.2494 -0.0779
10867W        W13067  15.836   5.614   0.165  0.4140 -0.1089  0.0189
10868W        W13068  13.686   5.075   2.564  0.3137 -0.1077 -0.0330
10869W        W13069  15.317   4.990  10.728 -0.2690 -0.1490 -0.1323
10870W        W13070  19.512   0.784   2.418 -0.2894  0.1522 -0.2640
10871W        W13071  13.406   6.452   1.293 -0.1215 -0.2183 -0.2170
10872W        W13072   1.497   5.090   7.757 -0.0445 -0.1989  0.2642
10873W        W13073  15.187   2.280   6.147 -0.2054  0.1360  0.0260
10874W        W13074  10.400   2.728  14.192  0.0196  0.1854 -0.1903
10875W        W13075  22.250   3.585  32.557 -0.0534  0.0611 -0.1808
10876W        W13076  11.172   6.536  29.620  0.0590  0.0972  0.1449
10877W        W13077  17.261   4.587  14.212 -0.0122 -0.2311 -0.0620
10878W        W13078   2.384   6.001   2.287  0.0192 -0.1948 -0.0000
10879W        W13079  17.721   1.578  25.638 -0.2658  0.2896  0.1466
10880W        W13080  19.033   4.492  23.039 -0.0909  0.0561 -0.0178
10881W        W13081   7.334   2.554   4.624  0.0500 -0.0664  0.1106
10882W        W13082   6.724   0.998   8.925  0.1296 -0.2339  0.1729
10883W        W13083  16.461   0.721  35.018 -0.1438 -0.1405 -0.1212
10884W        W13084  23.554   0.588  24.506  0.1025 -0.1145 -0.0809
10885W        W13085   1.924   3.648  27.215  0.3403  0.3026  0.3971
10886W        W13086   0.744   4.442  15.020  0.2221  0.1665  0.7580
10887W        W13087  25.511   3.061  28.951 -0.3238  0.0919  0.0926
10888W        W13088   4.155   1.530  35.462 -0.1501  0.0444 -0.0924
10889W        W13089  21.787   4.298  30.813 -0.0384  0.0675  0.0886
10890W        W13090  23.392   4.576   2.986  0.0502 -0.2329  0.2212
10891W        W13091  21.049   1.400  14.002  0.0627 -0.0067  0.0722
10892W        W13092  22.345   5.460  30.353  0.1139  0.0907  0.1828
10893W        W13093   5.149   1.701  23.477  0.1094  0.0932  0.0218
10894W        W13094  18.923   0.963  31.450 -0.0126  0.0380 -0.0038
10895W        W13095   8.760   0.025  29.495 -0.1068  0.2744 -0.0462
10896W        W13096   5.484   6.425  28.572  0.0263  0.0480  0.0215
10897W        W13097   9.834   0.073  35.454 -0.0787 -0.1329 -0.2299
10898W        W13098   4.955   6.007   5.802 -0.1605  0.1243  0.0511
10899W        W13099  19.071   1.078   5.606  0.0586  0.1886 -0.0049
10900W        W13100  15.813   0.540   1.055  0.0614  0.0988  0.1163
10901W        W13101  18.825   6.360  21.685  0.0850  0.3722  0.2135
10902W        W13102  10.436   6.510  34.548 -0.1689  0.0536 -0.1109
10903W        W13103  23.354   4.949  21.933  0.0192  0.1693 -0.1656
10904W        W13104  22.045   3.141  29.581  0.3897  0.0208  0.3945
10905W        W13105  12.708   6.076   9.092 -0.0829 -0.2016  0.0662
10906W        W13106  25.988   0.453  13.418 -0.1002 -0.0503 -0.0325
10907W        W13107   6.357   3.446   5.020  0.0751 -0.2384 -0.1437
10908W        W13108   8.999   2.641  14.405 -0.1320  0.0170 -0.1237
10909W        W13109   1.917   3.512   4.915 -0.0548 -0.1762 -0.1757
10910W        W13110  26.081   5.866   2.902  0.0363  0.1538 -0.1275
10911W        W13111  12.211   2.622  34.860  0.1852  0.1704 -0.1914
10912W        W13112   8.000   3.562  33.511 -0.1598  0.1273  0.1399
10913W        W13113  11.396   3.623  28.388  0.0847 -0.2593 -0.2001
10914W        W13114   2.551   0.056  30.647 -0.0660  0.4011 -0.1541
10915W        W13115   8.202   6.278   3.433 -0.1597 -0.1901 -0.0660
10916W        W13116  19.782   2.966  32.088 -0.0548  0.1169  0.2954
10917W        W13117   1.092   2.635  20.942 -0.0885  0.1331 -0.3295
10918W        W13118  14.404   5.517  24.062 -0.2053 -0.0939 -0.3162
10919W        W13119  18.251   2.998  24.758  0.0029 -0.1899  0.1441
10920W        W13120   1.159   6.054   0.173 -0.1191  0.2993 -0.1082
10921W        W13121  13.395   5.005  31.962  0.1116  0.2207 -0.0453
10922W        W13122  19.716   2.004   7.674  0.1259  0.0176  0.0604
10923W        W13123  17.216   4.773  27.696 -0.2560 -0.1185  0.1359
10924W        W13124  17.511   4.733  22.172  0.1930 -0.0098 -0.0350
10925W        W13125   8.891   3.540   3.325  0.0988  0.2581  0.1470
10926W        W13126   0.523   5.150  28.325  0.1041 -0.2773 -0.1052
10927W        W13127  11.171   2.668  35.841 -0.1617  0.0205 -0.1620
10928W        W13128  22.880   0.381  28.916  0.2015 -0.1565  0.0547
10929W        W13129   9.803   5.177  27.305  0.1223 -0.0175  0.0699
10930W        W13130   4.221   5.697  13.639  0.1807  0.2099  0.0197
10931W        W13131   7.974   5.524   3.801 -0.2098 -0.0538 -0.2553
10932W        W13132  22.563   5.635   6.475  0.0174  0.2349 -0.2642
10933W        W13133  25.492   0.402  24.168  0.2077  0.2617 -0.1297
10934W        W13134   1.301   5.826  34.939  0.0265 -0.0262  0.1688
10935W        W13135   2.055   3.390   6.242 -0.2586  0.1847  0.1209
10936W        W13136   2.219   1.363  10.518 -0.1533 -0.0785 -0.2384
10937W        W13137   2.786   4.543  10.125  0.0946  0.0252 -0.1656
10938W        W13138  20.991   3.870   9.774 -0.1027  0.0445 -0.0553
10939W        W13139  10.581   2.948   0.904 -0.2034  0.0228 -0.2627
10940W        W13140   7.594   0.511  30.131  0.1610 -0.0558  0.1364
10941W        W13141  17.419   6.452   5.351  0.2785  0.3088 -0.0894
10942W        W13142  18.352   5.378   0.904 -0.2339 -0.0303  0.4660
10943W        W13143  19.348   4.812  21.885  0.0958  0.0150  0.0381
10944W        W13144   9.786   2.620  22.943 -0.2756 -0.0697 -0.3461
10945W        W13145  23.369   4.442  21.189  0.1575 -0.1771  0.0434
10946W        W13146  25.430   4.764   1.362  0.0297  0.1659  0.3553
10947W        W13147  16.174   2.846   2.650 -0.1925 -0.0276 -0.0302
10948W        W13148  14.111   2.306  23.851  0.1410 -0.3472  0.1479
10949W        W13149   4.919   2.827  29.452  0.2709 -0.1097  0.1413
10950W        W13150  23.928   4.703  29.770 -0.1867  0.2325 -0.1434
10951W        W13151  23.771   3.213  10.350 -0.0342  0.2328  0.0359
10952W        W13152  22.526   6.480   4.822 -0.2625 -0.1208  0.0438
10953W        W13153   5.968   4.576  13.802  0.1098  0.1244  0.2608
10954W        W13154  11.044   4.803   6.277 -0.1909 -0.1487 -0.2900
10955W        W13155   3.599   6.555  14.674  0.3842 -0.0970 -0.0212
10956W        W13156  11.044   1.816  21.262 -0.0009  0.0462 -0.3437
10957W        W13157  22.209   0.750  21.666 -0.3519  0.2446  0.3913
10958W        W13158  13.913   3.611  14.482 -0.4411 -0.0167 -0.2551
10959W        W13159  26.256   5.984  31.908  0.1132  0.1405  0.1413
10960W        W13160  10.993   1.901  34.241 -0.0295 -0.1257  0.0077
10961W        W13161  14.436   0.707   3.097  0.2562  0.0718 -0.0113
10962W        W13162  25.850   4.823  27.506 -0.0009  0.1526  0.1316
10963W        W13163   7.736   2.143   3.175  0.0834 -0.0287  0.1440
10964W        W13164  11.402   1.387  23.104 -0.0788  0.1216 -0.0319
10965W        W13165  22.883   5.811   0.469 -0.1749  0.2786  0.2487
10966W        W13166  17.999   0.383  14.646 -0.0836 -0.2209 -0.1348
10967W        W13167  12.158   0.251   4.553 -0.0754 -0.1637 -0.1156
10968W        W13168  15.697   1.719  14.103 -0.2205 -0.1902 -0.0894
10969W        W13169  16.633   3.291   5.255  0.1213 -0.2767  0.1601
10970W        W13170   6.782   0.907  24.042  0.3113 -0.0924 -0.0057
10971W        W13171  13.821   3.453  33.313 -0.0946 -0.3489 -0.0888
10972W        W13172   4.926   2.036   5.457 -0.2975  0.2872  0.0983
10973W        W13173  17.121   3.627  29.583  0.1834  0.1219 -0.0754
10974W        W13174  10.341   1.261  26.650 -0.0341 -0.0966  0.2941
10975W        W13175   9.200   1.859   7.461  0.0812 -0.0402  0.0550
10976W        W13176  21.592   3.585  15.022 -0.2169 -0.2725 -0.0223
10977W        W13177  11.739   4.452  26.468 -0.3297 -0.1968 -0.3085
10978W        W13178  14.379   0.953  28.404 -0.0296 -0.1414 -0.0846
10979W        W13179  21.975   6.427  26.218 -0.0465 -0.0115 -0.0349
10980W        W13180  22.097   2.456  33.262  0.1600 -0.0751  0.2843
10981W        W13181  25.901   3.229   1.700  0.1170  0.2916 -0.2260
10982W        W13182  13.490   2.937  11.414  0.0348 -0.0473 -0.1899
10983W        W13183   8.320   5.002   8.150 -0.1660 -0.0726 -0.0697
10984W        W13184  25.679   2.568  29.763 -0.0263  0.0497  0.2148
10985W        W13185  11.842   5.358  35.273 -0.1051  0.0863  0.1895
10986W        W13186  16.460   1.675  33.557  0.2499  0.2160 -0.4935
10987W        W13187  18.258   1.290   8.098 -0.1425 -0.1563 -0.3355
10988W        W13188  14.399   2.671   6.371 -0.2181  0.0615  0.0659
10989W        W13189  12.587   3.543  26.948  0.2041  0.1776 -0.1318
10990W        W13190  26.363   1.394   4.001  0.0088  0.0599  0.0664
10991W        W13191  16.578   1.677   9.312 -0.0969  0.0588  0.0595
10992W        W13192  18.607   0.818  20.755 -0.0649  0.3703 -0.0845
10993W        W13193   3.082   6.452  29.850 -0.2042  0.3095  0.0681
10994W        W13194  24.943   3.820  35.346  0.0679  0.1570  0.1885
10995W        W13195  21.810   1.310  12.699  0.0667 -0.0572 -0.1204
10996W        W13196   1.068   1.219   9.060  0.1974  0.0431  0.0750
10997W        W13197   7.861   2.987  21.947  0.0583 -0.0757 -0.0833
10998W        W13198  18.725   1.010   4.573  0.3367 -0.1238  0.1173
10999W        W13199   4.202   3.284  13.264 -0.3183 -0.0827 -0.1527
11000W        W13200  12.167   3.952  25.163  0.1142 -0.1941 -0.1880
11001W        W13201   7.403   3.786  24.383 -0.1063 -0.2123 -0.0998
11002W        W13202  13.076   5.582  13.517  0.0675 -0.1490 -0.0880
11003W        W13203  26.368   5.633  31.560 -0.2041  0.2467  0.2337
11004W        W13204  16.168   3.112   7.998  0.2956 -0.0536 -0.4807
11005W        W13205  17.395   4.165  12.675  0.1536 -0.2058 -0.2064
11006W        W13206   5.111   3.857   6.101 -0.1377 -0.3147  0.1570
11007W        W13207  14.835   5.663  28.026 -0.0348 -0.0104 -0.0488
11008W        W13208   0.381   1.522   0.656 -0.1046  0.0992  0.0843
11009W        W13209  15.329   5.597  27.219  0.0602  0.3442 -0.0499
11010W        W13210   1.089   4.394  27.018  0.2037 -0.4174  0.2319
11011W        W13211   6.784   5.961  26.469  0.0408  0.1628  0.0017
11012W        W13212   5.883   3.450  14.432  0.1277 -0.1442 -0.1147
11013W        W13213  14.290   0.141   8.431  0.0457 -0.0125 -0.0054
11014W        W13214   8.841   4.939   0.286  0.0839 -0.3053 -0.1249
11015W        W13215   7.443   1.099  23.327 -0.2073  0.0215  0.2350
11016W        W13216   4.559   4.273   5.521  0.1080 -0.0502 -0.0463
11017W        W13217   8.403   0.877  24.828 -0.3184 -0.0103  0.1009
11018W        W13218  24.843   5.336  24.410 -0.0396  0.1717 -0.1383
11019W        W13219  21.859   3.726  26.842 -0.4620 -0.1884 -0.0329
11020W        W13220   1.232   4.210  24.475  0.0375  0.0479  0.0826
11021W        W13221   4.532   5.406   6.567  0.1496  0.0480  0.0775
11022W        W13222   5.109   1.752  12.111 -0.0390 -0.2711 -0.1922
11023W        W13223   5.684   5.751   4.014  0.0453  0.1992  0.0682
11024W        W13224  11.468   1.031   5.782 -0.0275 -0.0453  0.0573
11025W        W13225  11.721   4.491  13.053 -0.2236 -0.3533  0.0238
11026W        W13226  15.917   6.143  31.847 -0.0246  0.2770  0.3542
11027W        W13227   1.753   2.656   6.955 -0.0037 -0.1034  0.3037
11028W        W13228  13.997   4.712  29.440 -0.3607 -0.0968  0.1012
11029W        W13229   7.043   1.503  31.796  0.4421  0.1851 -0.1808
11030W        W13230  22.335   2.153   1.999  0.3395 -0.0568 -0.0209
11031W        W13231  18.312   0.085  35.006  0.3965  0.1287 -0.2636
11032W        W13232   3.687   6.158  11.918  0.1641 -0.1382 -0.0418
11033W        W13233  16.113   4.910  30.938  0.1722  0.1679  0.1314
11034W        W13234   9.836   5.844   3.609 -0.1477  0.0026  0.0516
11035W        W13235  22.013   5.772   1.469  0.0412 -0.0520  0.1796
11036W        W13236  11.764   5.208  31.333 -0.0248 -0.2381  0.1578
11037W        W13237  14.384   6.457   0.526  0.1673 -0.3787  0.1789
11038W        W13238  15.154   3.700  34.310 -0.1553  0.3642 -0.1281
11039W        W13239  15.280   3.663  21.695 -0.2350  0.3340  0.1020
11040W        W13240   9.640   3.111  12.570  0.2400 -0.0255  0.1082
11041W        W13241  21.688   2.565  22.669 -0.2235 -0.0252 -0.1767
11042W        W13242  11.721   4.369   1.126 -0.0864  0.0112 -0.2468
11043W        W13243   4.270   6.369  11.315 -0.0897  0.1106 -0.1981
11044W        W13244   5.193   1.774   7.252 -0.2176 -0.0536 -0.3294
11045W        W13245   9.093   1.671   8.233 -0.2377  0.4110  0.0889
11046W        W13246  17.391   2.231   5.238  0.0347 -0.1404  0.0437
11047W        W13247   9.808   1.940   1.341  0.1994  0.3747 -0.0725
11048W        W13248  23.603   1.328  27.543 -0.1998  0.1016 -0.0780
11049W        W13249   5.517   0.137  15.046  0.3148  0.3471  0.0058
11050W        W13250  20.949   4.481   0.913  0.0112 -0.1766 -0.2128
11051W        W13251   3.038   4.660  13.346 -0.0171 -0.1314  0.3049
11052W        W13252  16.810   4.869   9.775  0.2241  0.0975 -0.0118
11053W        W13253   8.831   5.084  21.525 -0.0883 -0.1284 -0.0739
11054W        W13254  16.660   0.206   6.040  0.0371  0.2379 -0.0679
11055W        W13255  19.855   6.089  30.306  0.0685  0.2757  0.4186
11056W        W13256  11.079   2.274   8.742  0.0366 -0.1272  0.0028
11057W        W13257   0.535   5.090  29.259 -0.1870  0.2939  0.0749
11058W        W13258  10.227   4.396  23.345  0.0464  0.2046  0.1676
11059W        W13259   5.433   4.706  16.147 -0.0128  0.1870  0.0844
11060W        W13260  16.217   2.505  26.478  0.2251  0.2980 -0.4815
11061W        W13261  26.318   3.588  35.362  0.1168 -0.1429  0.2573
11062W        W13262   5.203   2.923   5.018 -0.0208 -0.1012  0.0637
11063W        W13263   0.389   0.811  12.439  0.0680  0.2080  0.1423
11064W        W13264  20.253   2.052   3.577  0.1841 -0.2554  0.0843
11065W        W13265  12.373   0.335  28.812  0.2390  0.1568 -0.2050
11066W        W13266   5.019   2.976  30.293  0.3580 -0.0605  0.0331
11067W        W13267  25.394   5.407   7.242 -0.0791 -0.0234 -0.2916
11068W        W13268  25.846   4.990  10.256  0.5046  0.1952 -0.1051
11069W        W13269  14.793   5.293  11.473 -0.1720  0.2090 -0.1630
11070W        W13270   2.596   2.991  35.258  0.1076 -0.1168 -0.4110
11071W        W13271  14.108   1.038  30.723 -0.0048  0.3150  0.1309
11072W        W13272  14.912   2.958  26.983  0.0163 -0.1124 -0.1289
11073W        W13273  14.899   4.073  25.786 -0.0462 -0.0782  0.0904
11074W        W13274   8.371   0.519  11.523  0.1736  0.0429  0.1110
11075W        W13275  19.997   2.052  13.697  0.2926 -0.1294  0.0514
11076W        W13276  12.090   0.969  30.474  0.1684  0.4516 -0.1577
11077W        W13277  14.477   2.380  30.240  0.5072 -0.5562  0.0676
11078W        W13278  25.465   0.331   0.316 -0.0993  0.2363 -0.0848
11079W        W13279  11.827   3.186  33.045  0.0456 -0.1916 -0.1339
11080W        W13280  25.284   3.714  20.929  0.3708 -0.0258 -0.1148
11081W        W13281   6.512   3.252   0.685 -0.2701  0.0006 -0.2636
11082W        W13282  20.064   0.554  32.602 -0.0198  0.1048 -0.3615
11083W        W13283   5.462   5.720  29.314 -0.2624  0.1908  0.2330
11084W        W13284  13.279   1.250   6.085  0.1496  0.2526 -0.0098
11085W        W13285  24.759   4.540   9.280  0.4360  0.0907 -0.0471
11086W        W13286  13.425   5.351  14.528  0.0660 -0.1176 -0.0716
11087W        W13287   7.463   2.062  33.614  0.2303 -0.1912  0.0522
11088W        W13288   8.886   3.798   6.190  0.0262  0.0022 -0.1482
11089W        W13289  16.795   0.030   2.765 -0.1005 -0.1333 -0.0631
11090W        W13290   0.085   4.277  31.639 -0.0132  0.1388 -0.2525
11091W        W13291   7.841   0.097  14.104  0.1839  0.2448 -0.1030
11092W        W13292   6.504   1.283  31.213  0.2374 -0.0358  0.2581
11093W        W13293  13.775   1.053  34.954 -0.1074 -0.5686  0.0563
11094W        W13294  18.493   1.721  30.315 -0.1559 -0.1052 -0.0784
11095W        W13295  16.489   4.508  10.655 -0.0151 -0.0430 -0.1575
11096W        W13296  12.197   4.445  10.947 -0.3872 -0.0625 -0.2130
11097W        W13297   3.543   1.807  34.730 -0.1910 -0.0581 -0.0244
11098W        W13298  19.663   1.308  24.038  0.1410  0.0641 -0.2340
11099W        W13299   6.446   4.019  11.605 -0.0860  0.1799  0.0365
11100W        W13300  23.426   5.716   6.246 -0.2494 -0.0076  0.1634
11101W        W13301  16.157   5.836  34.249 -0.3493  0.3061  0.0092
11102W        W13302   0.332   5.966  26.093  0.1746  0.0493  0.3005
11103W        W13303  12.671   6.567   2.435  0.0369 -0.1039  0.2644
11104W        W13304  17.346   6.548  24.586 -0.0648  0.1683 -0.0703
11105W        W13305   0.284   6.502  10.414  0.0746  0.1914  0.0842
11106W        W13306  25.509   4.095   6.591 -0.2435  0.0149 -0.0557
11107W        W13307  25.201   1.098  33.396 -0.2438 -0.0270 -0.1071
11108W        W13308  18.400   5.470  14.112  0.4143 -0.0799  0.0341
11109W        W13309  10.228   2.899   7.409 -0.0999 -0.0293 -0.2158
11110W        W13310   8.331   4.249   7.425 -0.0808 -0.1523  0.0687
11111W        W13311   4.245   0.589  14.908  0.1468 -0.0310  0.2195
11112W        W13312   1.630   1.734   8.721 -0.3015 -0.3117  0.0201
11113W        W13313  10.194   0.178   3.814  0.1090 -0.0457 -0.0466
11114W        W13314  19.726   3.497  13.579 -0.1462 -0.0899  0.0218
11115W        W13315   5.031   3.923  14.788  0.2116 -0.0702 -0.0945
11116W        W13316  12.401   1.719  15.676  0.3833  0.0679 -0.1041
11117W        W13317  20.381   5.670   7.030  0.0252 -0.1432 -0.0522
11118W        W13318  22.195   6.320  27.279  0.0456 -0.1629  0.1322
11119W        W13319  19.166   1.517   2.876  0.1737  0.1512  0.0504
11120W        W13320  13.690   3.829   9.825 -0.1733 -0.1659  0.1090
11121W        W13321  23.372   0.854   9.534  0.0290 -0.0810 -0.3120
11122W        W13322   7.727   2.639   8.123 -0.3430 -0.1444 -0.0810
11123W        W13323  23.506   3.171  14.465 -0.0765  0.0276  0.2455
11124W        W13324   0.021   0.478  26.231  0.1727 -0.1647  0.0292
11125W        W13325  15.531   4.474  14.222  0.0450 -0.1670 -0.1798
11126W        W13326  18.057   4.956   7.523 -0.1881 -0.0888 -0.0774
11127W        W13327   3.720   5.384  35.892  0.4062 -0.2619  0.3625
11128W        W13328   3.622   6.585  13.308  0.1913  0.0594  0.0559
11129W        W13329   5.512   0.099  26.722  0.2662 -0.2159  0.3145
11130W        W13330  24.750   2.098  25.906 -0.0764 -0.0232  0.2184
11131W        W13331   8.287   3.899  28.106  0.0320 -0.1967  0.3647
11132W        W13332   8.833   0.384  29.162 -0.1075  0.1287  0.2392
11133W        W13333   8.815   0.794   4.051  0.1649  0.0690 -0.0834
11134W        W13334   4.277   3.637   5.096  0.3015  0.1782  0.2895
11135W        W13335  11.489   4.290  29.455 -0.2052 -0.4703 -0.1299
11136W        W13336  21.225   4.331  22.352  0.1338  0.1885 -0.0560
11137W        W13337  15.796   1.006  32.568 -0.0020  0.1844 -0.1112
11138W        W13338   0.931   3.869  11.147  0.1662 -0.0757 -0.0152
11139W        W13339  10.657   2.620   9.491  0.0043 -0.0115  0.0334
11140W        W13340  25.033   3.546   8.488 -0.1565 -0.3093  0.2264
11141W        W13341  24.439   2.901  33.413  0.1237 -0.0311 -0.0621
11142W        W13342   9.710   3.200   4.658 -0.2418  0.1448 -0.0749
11143W        W13343   7.586   2.327  15.145  0.1679 -0.3058  0.0044
11144W        W13344  10.844   4.554  14.382 -0.1138 -0.1376 -0.2406
11145W        W13345  16.070   5.550  10.871 -0.1468 -0.1735 -0.0655
11146W        W13346  21.644   5.593   2.501  0.0184  0.0635 -0.3040
11147W        W13347   2.167   6.309  23.371  0.0478 -0.1978  0.0313
11148W        W13348   7.354   2.880   5.052 -0.1666  0.1512 -0.2049
11149W        W13349   0.931   3.315   2.484  0.2839  0.0410  0.0196
11150W        W13350   0.256   0.582   7.773 -0.0032  0.4348  0.1957
11151W        W13351  21.044   1.458  21.045 -0.1869  0.0178  0.1827
11152W        W13352  14.778   2.990   4.973  0.0575  0.1929 -0.1239
11153W        W13353  21.274   3.414  31.634 -0.0709  0.2672  0.2076
11154W        W13354  25.728   5.318  21.983 -0.1300 -0.1503 -0.2546
11155W        W13355  11.014   0.441   3.546  0.0489 -0.0178 -0.2301
11156W        W13356  25.374   2.598  25.051  0.0868  0.1862  0.1455
11157W        W13357  18.368   6.494  24.394  0.2339 -0.1056 -0.1757
11158W        W13358  16.561   3.119  23.138 -0.2093 -0.2347 -0.4350
11159W        W13359   3.893   6.312  34.850  0.2145  0.0674 -0.0618
11160W        W13360  24.040   3.937  29.192 -0.1306  0.3755 -0.2149
11161W        W13361   6.326   5.704   9.556  0.1744 -0.0471 -0.1227
11162W        W13362  21.943   2.629  23.233  0.2722 -0.0259 -0.0743
11163W        W13363  24.834   3.723  27.299  0.2000 -0.0265  0.0774
11164W        W13364  18.060   1.490   6.317  0.1282 -0.0218 -0.2025
11165W        W13365   7.929   0.051  31.603  0.1961  0.1826 -0.1369
11166W        W13366  17.940   6.070  30.121 -0.1748 -0.0018  0.1847
11167W        W13367  18.876   2.551  26.870  0.2544 -0.1939 -0.2333
11168W        W13368  18.875   2.519   6.767 -0.0770 -0.1381 -0.1352
11169W        W13369  19.790   1.394  34.906  0.0809 -0.0160  0.0863
11170W        W13370   1.232   1.280  12.774  0.1477  0.1053  0.1015
11171W        W13371  21.837   5.872  13.793 -0.0637 -0.1062  0.0436
11172W        W13372   6.572   3.118   4.548  0.2194  0.1901 -0.1054
11173W        W13373   2.819   0.379  23.254 -0.1631  0.0152 -0.0300
11174W        W13374   8.963   4.875  21.068  0.1431  0.3543  0.2017
11175W        W13375  23.760   3.594   5.490  0.0391  0.1647  0.2080
11176W        W13376   7.046   4.449  15.218  0.1564 -0.5075  0.0246
11177W        W13377   0.510   2.340  13.841 -0.2028 -0.0654 -0.2453
11178W        W13378   5.528   3.388  11.208 -0.0969  0.2266 -0.1992
11179W        W13379   3.994   0.364  14.333  0.1952  0.0488 -0.1364
11180W        W13380   8.657   1.214  32.617  0.2587  0.2769 -0.3556
11181W        W13381  19.450   1.788   7.204  0.0704  0.0805  0.0195
11182W        W13382  15.541   5.003   7.322 -0.0986 -0.0709 -0.1175
11183W        W13383  12.148   1.399  26.606  0.1467 -0.0305 -0.1296
11184W        W13384  15.605   4.856  13.535 -0.1592  0.0260  0.1664
11185W        W13385  22.966   3.491  35.832  0.3926 -0.2402  0.0833
11186W        W13386   2.372   2.396  30.108 -0.1683  0.1419  0.0025
11187W        W13387  13.978   0.167  32.759  0.1528 -0.1231  0.0305
11188W        W13388  21.064   0.878   7.244 -0.0964  0.0026  0.0597
11189W        W13389  24.255   0.444  24.825  0.0235 -0.2689  0.0025
11190W        W13390  24.548   3.679  13.820 -0.0883  0.1602 -0.1675
11191W        W13391  11.750   3.684  24.476 -0.0324  0.1075 -0.0189
11192W        W13392   6.001   2.402  25.963 -0.1791 -0.1855  0.0610
11193W        W13393  14.021   1.283  10.045  0.1940 -0.0751 -0.1674
11194W        W13394   9.392   5.233  30.477 -0.0784  0.0219  0.1370
11195W        W13395  24.322   2.068  20.514 -0.1005 -0.2060 -0.1724
11196W        W13396  10.511   5.538   1.195  0.1955  0.1396 -0.0321
11197W        W13397  18.745   2.524  30.690  0.1194  0.0421  0.1301
11198W        W13398   6.079   6.213  12.156  0.2025  0.0378  0.1198
11199W        W13399  23.820   4.971   6.581  0.3140 -0.3666  0.1263
11200W        W13400  18.384   0.877  23.405  0.1232 -0.1987  0.0362
11201W        W13401  15.650   4.126  24.742 -0.0593  0.5146  0.0723
11202W        W13402  11.690   4.130  14.759  0.1849 -0.1630  0.1384
11203W        W13403   2.549   1.690   0.199  0.0651  0.0249  0.3728
11204W        W13404   0.201   1.632  14.203 -0.1007 -0.0212  0.0178
11205W        W13405  22.973   4.410  33.865  0.0119  0.0341  0.1174
11206W        W13406   0.888   5.209  30.836 -0.3353  0.2525  0.1478
11207W        W13407   5.713   5.177  11.381 -0.0675  0.3265 -0.1291
11208W        W13408  20.011   4.373  31.287 -0.0751  0.0946 -0.1387
11209W        W13409  14.222   1.022  30.184  0.2089  0.0985 -0.0710
11210W        W13410  21.162   4.549  21.652  0.0404  0.0799  0.1960
11211W        W13411  24.215   0.733  11.586 -0.1186  0.0089 -0.0799
11212W        W13412  11.043   1.368  12.775  0.0506  0.0515  0.0670
11213W        W13413  25.246   2.680   0.319 -0.0394 -0.0800  0.0009
11214W        W13414   5.898   2.801  11.504 -0.0298 -0.0491  0.0351
11215W        W13415  18.040   0.427   7.684  0.2782 -0.2330  0.1107
11216W        W13416  22.213   3.990  31.638 -0.1479 -0.0223  0.0433
11217W        W13417   2.693   2.420  27.874  0.3341 -0.1749  0.1412
11218W        W13418  12.205   3.285   1.409 -0.0144 -0.1528 -0.1695
11219W        W13419  14.318   3.213  15.696 -0.2045  0.0761 -0.0035
11220W        W13420  23.764   1.561  22.885  0.2922  0.0650 -0.1269
11221W        W13421  11.214   1.060  32.524 -0.0629 -0.0471 -0.1917
11222W        W13422  15.878   2.647  14.762 -0.0510  0.1312 -0.1572
11223W        W13423  24.370   0.724  28.416 -0.4190  0.0600  0.0636
11224W        W13424  13.987   4.276   6.072  0.1238 -0.0017  0.0879
11225W        W13425  14.311   1.321   8.508  0.0347 -0.1100 -0.0439
11226W        W13426   4.889   3.867   0.634 -0.2266  0.1362 -0.2222
11227W        W13427   4.319   4.890   9.017  0.0599 -0.1533  0.0634
11228W        W13428  13.337   4.383  14.600 -0.1449  0.1153  0.0975
11229W        W13429  16.105   1.559  30.253  0.2663  0.2006  0.0180
11230W        W13430  17.280   0.704  26.620 -0.1756  0.2627 -0.2838
11231W        W13431   2.369   2.135  26.795 -0.2255 -0.1114 -0.2697
11232W        W13432  20.992   3.561  22.794  0.0561 -0.1780 -0.1276
11233W        W13433   5.807   0.537   5.951 -0.2396 -0.0432 -0.3214
11234W        W13434   6.810   1.298   7.320 -0.3129 -0.0677  0.0877
11235W        W13435  25.901   1.039  10.456  0.1154 -0.1829  0.2573
11236W        W13436   4.791   5.143   9.485 -0.2900 -0.1560 -0.0645
11237W        W13437  25.943   6.272  31.555 -0.0386  0.0759  0.1193
11238W        W13438  24.442   3.604  22.887 -0.0518 -0.3607 -0.1423
11239W        W13439  21.593   5.998   3.502  0.0493  0.1959  0.5344
11240W        W13440   0.071   4.352  13.853  0.0937 -0.2086 -0.0742
11241W        W13441  17.717   5.276  31.902  0.0117 -0.0142 -0.0895
11242W        W13442  20.257   2.586   3.630  0.0644 -0.2595  0.0320
11243W        W13443  10.668   3.693  30.072  0.0287  0.0946  0.0339
11244W        W13444  15.155   2.569   0.974  0.2630  0.2297  0.1025
11245W        W13445  15.529   0.152  28.626  0.1416 -0.1556  0.0980
11246W        W13446   5.663   1.515   6.790 -0.1403 -0.0645  0.1938
11247W        W13447  22.228   6.499  31.416 -0.0733 -0.1731  0.2509
11248W        W13448  16.797   1.267   9.602  0.0205 -0.0024  0.3777
11249W        W13449  22.437   3.679   1.962  0.0593 -0.0485 -0.1201
11250W        W13450  20.753   2.725   8.654  0.2290 -0.1246 -0.0133
11251W        W13451  18.880   0.922  29.949  0.3427  0.1025 -0.1718
11252W        W13452  14.708   3.395  21.773  0.0952 -0.0964  0.0280
11253W        W13453  12.871   3.793  28.437  0.0423 -0.1502  0.0613
11254W        W13454  12.615   0.666   4.989 -0.0268  0.0230 -0.0338
11255W        W13455  16.577   3.091   9.344  0.1383  0.0995  0.1349
11256W        W13456  20.951   2.974  14.350  0.0411 -0.0544  0.2156
11257W        W13457   6.663   5.495   4.195  0.2011 -0.2715 -0.1480
11258W        W13458  24.129   5.033   0.691  0.0757  0.1204  0.0589
11259W        W13459   7.127   1.035  15.222  0.1882  0.0263  0.3768
11260W        W13460  11.078   4.465   4.116  0.0405  0.2482  0.0074
11261W        W13461   5.442   4.375   1.124  0.4210  0.0836  0.1051
11262W        W13462  11.542   4.759  29.614 -0.2919  0.1251  0.0835
11263W        W13463  13.772   1.409  14.293 -0.2225 -0.1645  0.2093
11264W        W13464   6.419   3.464   3.442  0.0441  0.0140 -0.1878
11265W        W13465   7.816   1.086  28.277 -0.2749 -0.1291  0.2954
11266W        W13466  22.355   3.958  15.131 -0.0660  0.3547 -0.0084
11267W        W13467  13.127   0.784  13.566 -0.1670  0.3011  0.2900
11268W        W13468   1.914   0.506  24.322 -0.0288 -0.0168  0.1389
11269W        W13469  16.524   0.387   3.572 -0.1220 -0.2228 -0.0486
11270W        W13470  13.028   3.210  24.788  0.1482 -0.0303  0.0254
11271W        W13471  13.812   4.318  13.289  0.0012  0.2884  0.2063
11272W        W13472  14.733   1.182  24.949 -0.2268  0.1351  0.0854
11273W        W13473  15.882   3.432   5.629  0.2631 -0.0762 -0.0421
11274W        W13474  13.602   0.721  33.671  0.0208  0.0898  0.1560
11275W        W13475  23.704   1.148  24.501  0.4626 -0.1823  0.0784
11276W        W13476  21.594   4.174   5.563  0.0036 -0.0367  0.0602
11277W        W13477  12.647   1.960  31.153 -0.3245  0.0521 -0.2345
11278W        W13478   8.334   5.951   7.727 -0.1004  0.1194  0.2174
11279W        W13479  24.814   3.019  14.861  0.1770 -0.1761  0.0240
11280W        W13480  21.135   3.706  35.971 -0.0299 -0.4039 -0.2430
11281W        W13481   9.194   1.140   4.936 -0.2824  0.1157  0.4513
11282W        W13482  18.579   6.261  21.149  0.0640 -0.1154 -0.0117
11283W        W13483   8.826   2.600   0.094  0.1387 -0.1447  0.0843
11284W        W13484  11.287   4.262  14.154 -0.2091 -0.2472 -0.2021
11285W        W13485   0.683   5.856  28.180 -0.0143  0.4954 -0.2171
11286W        W13486  17.511   2.697  28.567  0.1636  0.2078 -0.0250
11287W        W13487  10.372   1.888  10.478  0.0671  0.0249 -0.4509
11288W        W13488  13.909   5.710  34.369 -0.0700 -0.0558  0.2487
11289W        W13489   2.125   0.567  32.016  0.2731 -0.5127  0.0211
11290W        W13490   4.997   3.351  23.473  0.2471  0.1413 -0.1837
11291W        W13491  19.154   3.448  15.320  0.2500 -0.0515 -0.0199
11292W        W13492   6.622   5.315  23.439 -0.1323  0.1812 -0.1824
11293W        W13493  21.223   2.787  22.522 -0.3019 -0.2283 -0.0611
11294W        W13494   1.198   4.300  36.045 -0.1382  0.1355 -0.1998
11295W        W13495  11.329   0.897  35.179  0.0792 -0.0609  0.1775
11296W        W13496  20.835   2.042  27.866  0.2365 -0.3286 -0.3460
11297W        W13497   4.203   2.092  14.967  0.0673 -0.0569 -0.0636
11298W        W13498  19.071   4.500   6.636 -0.1312  0.0533 -0.1111
11299W        W13499  15.715   5.322  32.573  0.0175  0.0821 -0.0471
11300W        W13500  16.715   3.904   2.434 -0.3735  0.1764  0.3851
11301W        W13501  16.336   4.442   6.864  0.0388 -0.0520  0.3917
11302W        W13502   8.591   6.028  13.399 -0.0174 -0.0722 -0.0239
11303W        W13503  17.772   6.487  14.687 -0.0346 -0.0387  0.2503
11304W        W13504   2.984   1.251   3.491 -0.2950  0.1932 -0.0495
11305W        W13505  16.232   6.060  14.484  0.4140 -0.0265  0.0630
11306W        W13506   7.240   6.166  15.471 -0.0478 -0.0981  0.0915
11307W        W13507   8.045   4.448  24.211 -0.1214 -0.1208  0.1015
11308W        W13508  21.627   4.398  28.481 -0.0927 -0.0258 -0.1891
11309W        W13509   6.667   3.518   4.141 -0.2085 -0.0257  0.0809
11310W        W13510  25.913   3.600  26.869  0.1961 -0.2026 -0.0115
11311W        W13511   8.603   3.648   8.743 -0.1761  0.1392 -0.0011
11312W        W13512   1.372   3.008  13.844 -0.2616 -0.0428 -0.1622
11313W        W13513  11.592   1.477  34.536 -0.2974  0.0407 -0.0692
11314W        W13514  21.858   3.033  23.484 -0.0207 -0.1515 -0.3479
11315W        W13515   7.043   3.729  35.914 -0.1136 -0.1176 -0.1767
11316W        W13516   6.731   2.849   8.781 -0.1017  0.2882 -0.0296
11317W        W13517  14.602   2.239  25.438 -0.0519 -0.1859 -0.0197
11318W        W13518  16.432   4.187  34.841  0.0552  0.2265  0.0879
11319W        W13519  16.174   1.991   9.007  0.2352  0.0210 -0.1314
11320W        W13520  19.181   0.258  24.737 -0.1594 -0.2098  0.1740
11321W        W13521  25.428   4.991  21.137 -0.0852 -0.3235  0.0171
11322W        W13522   1.285   6.052  14.395 -0.2939 -0.0646 -0.1328
11323W        W13523  23.851   3.245   3.313  0.0032 -0.1784  0.2698
11324W        W13524  25.903   3.608   1.203  0.0791  0.0809 -0.2368
11325W        W13525   4.750   4.144   2.442  0.0847 -0.1120  0.1799
11326W        W13526  24.315   5.732   7.294  0.0579 -0.0567  0.2991
11327W        W13527  25.683   1.400  10.847 -0.1335  0.1489 -0.0120
11328W        W13528  13.382   2.815  30.090 -0.4241 -0.3374 -0.1272
11329W        W13529  23.291   2.882  33.010  0.2523 -0.0122  0.3295
11330W        W13530  21.528   2.965   6.768  0.0501 -0.2357  0.0135
11331W        W13531   3.530   2.715   0.835  0.0378  0.0219 -0.1127
11332W        W13532   7.416   0.374  13.411  0.1478  0.0093  0.0247
11333W        W13533  15.987   5.159   7.150  0.2780  0.3151  0.2344
11334W        W13534  14.586   1.262   4.884  0.0476  0.1564 -0.0266
11335W        W13535  25.120   5.197  25.474 -0.0771  0.1503  0.0741
11336W        W13536  15.406   6.028   3.868 -0.0222 -0.0647  0.0324
11337W        W13537  13.385   4.831  35.767  0.4643  0.0255  0.0302
11338W        W13538   8.516   4.060  34.288 -0.2390  0.2201  0.4503
11339W        W13539   1.685   1.614  11.310  0.1490 -0.0167  0.0568
11340W        W13540  15.245   0.694   2.328 -0.1659  0.0503  0.0134
11341W        W13541  14.577   2.984  15.271 -0.0032 -0.0401  0.0107
11342W        W13542   9.122   0.209  32.796  0.0220  0.0273  0.1747
11343W        W13543  22.748   5.810  28.258  0.5772 -0.1357  0.2409
11344W        W13544  22.297   4.390   0.503  0.0544  0.0653 -0.0789
11345W        W13545   6.753   4.637  22.812 -0.0462  0.4809 -0.1036
11346W        W13546  19.826   3.945  21.231 -0.3534 -0.0524  0.0453
11347W        W13547   4.500   2.944  32.246 -0.2866 -0.0297  0.1274
11348W        W13548  16.884   0.727  35.258  0.1212  0.2782  0.3382
11349W        W13549  25.949   5.467  13.668  0.0772 -0.0188 -0.0071
11350W        W13550  19.267   3.168   1.351  0.3211 -0.1928  0.1801
11351W        W13551  14.816   0.981   4.458  0.0575 -0.0127 -0.2248
11352W        W13552  18.741   5.777   5.855  0.0470  0.1370  0.0259
11353W        W13553   4.963   5.797  15.505 -0.1048 -0.1373  0.0319
11354W        W13554  17.738   5.472  28.826 -0.1375  0.4720  0.0003
11355W        W13555  16.627   1.651  32.861  0.0039 -0.1533  0.2115
11356W        W13556   4.256   4.232   2.302 -0.2417  0.2525 -0.1988
11357W        W13557  21.713   6.200  10.558 -0.1469 -0.2864 -0.2068
11358W        W13558  17.403   2.511   0.463  0.1644  0.1286 -0.1388
11359W        W13559  22.298   2.615   6.608  0.0464 -0.1276  0.0373
11360W        W13560   7.876   5.168   8.125  0.1151  0.0845  0.1813
11361W        W13561  13.069   0.723   4.019 -0.0853  0.1843 -0.0176
11362W        W13562  16.152   6.079   6.840  0.0944  0.0077  0.0312
11363W        W13563   2.042   0.379  13.783  0.1873  0.2948 -0.0653
11364W        W13564   7.808   3.547  13.303 -0.1534  0.0746  0.0649
11365W        W13565   2.919   6.579  27.453 -0.0698 -0.0195  0.2330
11366W        W13566  11.698   1.177  33.986  0.3385  0.0885 -0.1254
11367W        W13567  22.818   1.247   6.205 -0.1725 -0.0563 -0.0938
11368W        W13568  22.244   1.540  33.758 -0.1968 -0.0185  0.0687
11369W        W13569  20.061   4.227  30.511  0.2373  0.0344 -0.0170
11370W        W13570  20.471   1.284  30.631 -0.0324 -0.1715 -0.0653
11371W        W13571  22.038   5.533   3.506 -0.1014  0.0515  0.0109
11372W        W13572  20.860   3.788  30.184  0.0885  0.0937  0.0647
11373W        W13573  12.674   6.283   0.637 -0.1567  0.0603 -0.0175
11374W        W13574  19.533   0.450   6.805 -0.1786 -0.0617 -0.1142
11375W        W13575   8.194   1.081   5.373 -0.2167  0.1295  0.1549
11376W        W13576   1.710   2.713  32.334  0.1052  0.1268 -0.0572
11377W        W13577   6.729   6.246  26.011 -0.2638  0.0912  0.3030
11378W        W13578   7.093   1.255  14.589  0.0562  0.0058  0.2087
11379W        W13579  24.413   6.096   6.035 -0.0395 -0.0656 -0.1818
11380W        W13580  13.467   4.841   3.449 -0.0739  0.0300  0.0547
11381W        W13581  21.601   2.805  30.559 -0.0749 -0.3740 -0.0726
11382W        W13582  19.476   1.218  26.264  0.2361 -0.1894  0.1491
11383W        W13583   3.728   5.660  15.029  0.2244  0.1043 -0.0615
11384W        W13584  25.224   4.417   0.993 -0.0511  0.0701  0.1147
11385W        W13585  15.820   1.905   4.494  0.0028 -0.1057 -0.3342
11386W        W13586   9.255   6.509  22.949 -0.1724  0.3512 -0.0869
11387W        W13587  21.701   0.162  12.641  0.1110  0.3677  0.2496
11388W        W13588  22.757   2.778  23.730  0.0208  0.1414 -0.0691
11389W        W13589  18.385   0.805  14.111 -0.0232  0.1363 -0.1929
11390W        W13590  18.171   1.597  32.004  0.2620 -0.3629  0.2075
11391W        W13591   5.242   6.139  10.869 -0.1320 -0.0892  0.0132
11392W        W13592  25.566   6.047   4.698  0.2734 -0.0891  0.3473
11393W        W13593   5.967   5.161   7.726 -0.4089 -0.0299 -0.1577
11394W        W13594   7.436   5.677  30.240 -0.0832  0.1682  0.0531
11395W        W13595   4.740   3.352  22.231  0.3055  0.0854  0.2032
11396W        W13596  18.574   1.967  35.338 -0.1896  0.1405 -0.2855
11397W        W13597  23.018   4.703   6.462 -0.0895  0.3239  0.1489
11398W        W13598  12.928   3.592  23.903 -0.0468 -0.0184 -0.1912
11399W        W13599  19.665   6.096  33.559 -0.0923 -0.0415  0.0567
11400W        W13600   9.405   0.168  34.690 -0.0555  0.1231  0.3395
11401W        W13601  22.014   5.379  23.640  0.1964 -0.0171 -0.0120
11402W        W13602  17.508   1.304  29.151  0.1359  0.2331  0.1345
11403W        W13603  19.825   1.787   0.454  0.1743  0.0187 -0.0868
11404W        W13604  17.614   1.694  21.538 -0.0113 -0.1020  0.3680
11405W        W13605  15.472   6.440   0.619 -0.3334  0.0756  0.0198
11406W        W13606  24.514   6.092  27.930 -0.2713 -0.0487  0.0012
11407W        W13607  12.087   1.029  25.723 -0.0029 -0.3429  0.0832
11408W        W13608  21.416   2.869   2.398  0.0792  0.0307  0.1801
11409W        W13609   0.919   4.408  35.056 -0.1513  0.0051 -0.2035
11410W        W13610  18.239   2.217  29.189 -0.2337  0.1593  0.1358
11411W        W13611   1.345   5.892   6.710  0.0432  0.0576 -0.2122
11412W        W13612  10.630   5.061  24.935 -0.0848 -0.0618 -0.3105
11413W        W13613   1.237   2.834   4.822  0.0485 -0.0045 -0.2296
11414W        W13614  20.845   0.019  28.911  0.0095  0.0000 -0.1134
11415W        W13615  24.548   4.222  11.666  0.0047 -0.0002  0.1132
11416W        W13616  25.417   6.002  35.996 -0.1065  0.0503  0.1713
11417W        W13617  20.516   2.912   0.122 -0.0733 -0.3108  0.2086
11418W        W13618  15.049   3.261  32.592  0.1412 -0.1427  0.1081
11419W        W13619  13.348   4.686   1.770 -0.0762  0.1336  0.0208
11420W        W13620  17.994   2.550   9.818 -0.3048 -0.1676  0.1518
11421W        W13621  10.001   5.756   9.027  0.1091 -0.3281  0.0768
11422W        W13622  10.383   2.160  29.852  0.1458 -0.1254 -0.2343
11423W        W13623  24.879   0.909  22.141 -0.1198 -0.0630 -0.0944
11424W        W13624   8.352   1.278  23.840  0.0907  0.0325 -0.3620
11425W        W13625  23.002   0.356  35.402  0.0714  0.1447  0.0797
11426W        W13626  15.809   4.579  12.162 -0.2411  0.0804  0.0467
11427W        W13627   0.218   5.311  14.226 -0.0454 -0.3468  0.0955
11428W        W13628  14.400   3.846   7.337 -0.2611 -0.1810  0.2763
11429W        W13629   3.078   5.286  32.977 -0.2611 -0.3653 -0.1784
11430W        W13630  13.665   5.568  23.344  0.1818  0.0342  0.5028
11431W        W13631  26.230   1.502  31.977 -0.0402  0.0911 -0.0074
11432W        W13632  11.452   0.484  21.473 -0.2856  0.4778  0.0139
11433W        W13633   4.714   0.712   0.986  0.1319  0.0708  0.1221
11434W        W13634  21.072   6.201  23.125 -0.3095 -0.3799 -0.0582
11435W        W13635  19.023   0.084   3.119  0.1026  0.2138 -0.1232
11436W        W13636   2.267   4.715  13.772  0.2917  0.0201  0.0177
11437W        W13637   9.033   4.776  34.905 -0.0867 -0.0370  0.0858
11438W        W13638   0.692   1.200  11.761  0.1318 -0.2868 -0.0467
11439W        W13639   2.158   4.498  21.526  0.2470  0.3878  0.0365
11440W        W13640  25.602   5.965   5.468  0.1861 -0.0162 -0.0686
11441W        W13641  19.115   0.591   8.055  0.2065 -0.0579 -0.2722
11442W        W13642   2.715   4.617  26.921  0.0173 -0.1189  0.1965
11443W        W13643  10.226   2.108   9.386  0.0300  0.2698  0.0338
11444W        W13644  19.468   4.558  25.562  0.2208 -0.0060  0.2058
11445W        W13645   7.470   1.114   8.562 -0.0428  0.1919 -0.0428
11446W        W13646  16.723   3.553   9.948 -0.1463  0.1461  0.0696
11447W        W13647   1.538   1.267  11.720  0.4772  0.0473 -0.1771
11448W        W13648  13.674   2.343  22.214 -0.3143 -0.2244 -0.1519
11449W        W13649   7.474   3.712  34.999  0.0152 -0.1625 -0.1083
11450W        W13650  25.927   6.412  29.791  0.2086 -0.1490 -0.0125
11451W        W13651  17.135   5.762  10.775 -0.0737  0.0895  0.2284
11452W        W13652   9.285   0.120   0.663 -0.0542 -0.0301 -0.1260
11453W        W13653  12.993   1.401  28.355  0.0843  0.0742  0.0932
11454W        W13654  21.798   4.014   5.975 -0.2335  0.1386  0.0967
11455W        W13655   1.672   6.335  30.645  0.1635 -0.2148 -0.2306
11456W        W13656  22.260   4.723  14.518 -0.0073 -0.0117  0.2706
11457W        W13657  20.829   2.879  31.536 -0.0901  0.1613 -0.1521
11458W        W13658   1.697   3.291   5.750 -0.0215  0.0801  0.0672
11459W        W13659  10.434   3.107  31.086  0.2120 -0.2248 -0.1251
11460W        W13660  23.552   4.155  10.291  0.2018  0.0647  0.0133
11461W        W13661  22.098   2.881  10.995  0.0520 -0.0291  0.2856
11462W        W13662   6.033   3.721  13.176 -0.1928  0.0960 -0.0975
11463W        W13663  18.687   5.186  12.307 -0.0572 -0.2288 -0.0314
11464W        W13664   6.099   0.331   2.730 -0.1937  0.0857  0.1345
11465W        W13665   5.835   0.422  23.535 -0.0680  0.1801  0.1470
11466W        W13666   7.287   4.500  11.839  0.1880 -0.1070  0.2861
11467W        W13667   4.200   1.397  30.452  0.0278 -0.2349 -0.1219
11468W        W13668  17.748   2.697  32.631  0.1359  0.0637 -0.0186
11469W        W13669  18.274   4.809  34.127 -0.1691 -0.2748 -0.1783
11470W        W13670   3.350   1.200  12.131  0.1002  0.2042  0.0951
11471W        W13671  10.994   3.438  10.316 -0.2673 -0.1237 -0.2136
11472W        W13672   2.464   1.102   8.869 -0.1713  0.1284  0.2428
11473W        W13673   8.259   5.906  29.006 -0.2824 -0.3099  0.1103
11474W        W13674  24.738   6.412  15.505 -0.0323  0.1173  0.2254
11475W        W13675  18.279   1.373  33.150  0.2414  0.1175  0.1263
11476W        W13676  24.701   0.140   7.686 -0.1270 -0.1043  0.0352
11477W        W13677  10.335   5.094   5.670 -0.2916  0.0755 -0.3182
11478W        W13678  26.005   4.863  11.197  0.0924  0.1110  0.1149
11479W        W13679   0.866   0.617  35.732  0.1147 -0.2507  0.1910
11480W        W13680  18.422   6.046  12.712 -0.5863  0.1052 -0.0258
11481W        W13681  13.687   3.452  25.577  0.0574  0.2470  0.0410
11482W        W13682  22.439   0.698   3.333  0.3079 -0.1764 -0.0830
11483W        W13683   0.931   0.754   5.236 -0.0896 -0.2614 -0.0475
11484W        W13684   3.689   3.377  28.159 -0.2133 -0.0147 -0.1906
11485W        W13685  22.638   2.413  29.483 -0.2473 -0.2697  0.0148
11486W        W13686   6.509   2.453   4.299  0.1075  0.0762 -0.1615
11487W        W13687  10.692   2.805  13.164  0.1227  0.2588 -0.0169
11488W        W13688  25.350   5.713   2.223 -0.1516  0.0270  0.1799
11489W        W13689  12.400   5.394   6.016  0.0848 -0.5915 -0.0359
11490W        W13690  22.627   2.062   0.661  0.0149 -0.0605  0.4267
11491W        W13691  18.737   5.286  13.612 -0.2221 -0.0204  0.0919
11492W        W13692  11.157   0.562  14.441  0.1005 -0.3571  0.1174
11493W        W13693   8.978   0.039   7.269 -0.0571 -0.2533 -0.1743
11494W        W13694   7.601   4.058  33.413 -0.0195  0.0263 -0.2470
11495W        W13695  15.534   3.968   7.384  0.0955  0.0099 -0.0706
11496W        W13696  24.919   2.021  30.099 -0.0444 -0.1103  0.1514
11497W        W13697  21.021   3.605   0.904  0.0517  0.3807  0.0443
11498W        W13698   3.151   2.042  24.584  0.0961 -0.1668  0.2123
11499W        W13699   7.185   3.814  26.603  0.1516 -0.3462  0.1969
11500W        W13700  15.559   5.837  34.204  0.1826  0.1099  0.0730
11501W        W13701  25.590   2.679  28.086 -0.0446  0.0903 -0.0234
11502W        W13702  19.166   3.588  34.819 -0.0447 -0.2407  0.2255
11503W        W13703  17.494   5.463   6.544  0.0635  0.0333  0.1432
11504W        W13704  25.692   1.444  33.469 -0.1139 -0.0891 -0.1453
11505W        W13705  21.553   1.930   6.635  0.1600  0.2602 -0.1154
11506W        W13706   4.487   1.621  35.900 -0.2216 -0.0274 -0.0332
11507W        W13707  11.848   0.713  33.666 -0.0690  0.0304 -0.1283
11508W        W13708   5.173   0.674  22.970 -0.5273 -0.0541 -0.0338
11509W        W13709  10.166   0.069  24.997 -0.1552  0.0966 -0.1350
11510W        W13710   8.839   0.457  13.145 -0.3421 -0.1525 -0.1020
11511W        W13711  19.404   5.670   1.434  0.2297 -0.0231 -0.2057
11512W        W13712  20.853   3.748   7.898 -0.0875 -0.1818  0.0695
11513W        W13713  25.696   2.043  31.338 -0.3380 -0.1772 -0.1285
11514W        W13714   0.684   5.308  20.627  0.2398 -0.0535 -0.0766
11515W        W13715  12.928   2.022  27.692  0.0337 -0.3414  0.0616
11516W        W13716   4.340   2.699   5.230  0.0394  0.1906 -0.0072
11517W        W13717  24.230   5.520  15.310  0.1524 -0.1541 -0.0865
11518W        W13718  16.628   1.096  26.238  0.1469 -0.2745  0.1986
11519W        W13719   6.746   2.876  23.769  0.1073 -0.0724 -0.2038
11520W        W13720   9.983   1.290  26.290  0.5713 -0.0749  0.0849
11521W        W13721   3.120   4.662  22.983 -0.0685 -0.2059 -0.1438
11522W        W13722  22.218   5.507  12.799  0.0858  0.0201  0.0036
11523W        W13723   4.857   5.966  23.234 -0.0489 -0.0732  0.0944
11524W        W13724  18.352   4.348  21.641 -0.2903  0.0225  0.2975
11525W        W13725   8.388   5.379  33.597  0.1306 -0.0138 -0.1858
11526W        W13726  12.819   3.178  34.622 -0.1727  0.2834 -0.0133
11527W        W13727  15.725   1.269  28.075 -0.0984 -0.1601  0.1156
11528W        W13728   3.572   1.436   0.978 -0.0548 -0.0179  0.2552
11529W        W13729   2.233   5.413  27.683 -0.0827 -0.2509  0.1139
11530W        W13730   2.495   1.194  29.495 -0.0480  0.1112  0.0323
11531W        W13731   1.945   2.391  22.372 -0.0300 -0.0683 -0.0563
11532W        W13732   2.554   6.213   6.214 -0.0195 -0.1398 -0.1924
11533W        W13733  25.524   5.641   9.875  0.0604 -0.0969  0.3454
11534W        W13734   4.334   2.139   9.867 -0.1088  0.1792 -0.3203
11535W        W13735  18.966   1.891   0.964  0.1287  0.1156  0.2772
11536W        W13736  21.315   4.325  32.314  0.1751  0.1069  0.2108
11537W        W13737   2.245   3.172  27.007 -0.3182 -0.0944  0.2112
11538W        W13738  18.311   3.667  14.974  0.4791 -0.1187 -0.0792
11539W        W13739  25.223   4.425  13.294 -0.0655 -0.1477  0.1967
11540W        W13740   6.662   3.178  29.613  0.0708  0.0288 -0.1633
11541W        W13741   1.059   4.937   4.921 -0.0909  0.1383 -0.0683
11542W        W13742  14.503   4.549   8.839  0.0538  0.1764  0.1805
11543W        W13743   2.954   5.049  32.550  0.1778 -0.4841 -0.1798
11544W        W13744  14.434   5.456  33.947 -0.2079 -0.0834 -0.0357
11545W        W13745  18.209   5.511  24.483  0.2202  0.1148 -0.2933
11546W        W13746   3.622   3.396   1.292  0.0747 -0.2719 -0.0347
11547W        W13747  17.323   4.195  28.716 -0.1074 -0.0111  0.1035
11548W        W13748  14.140   2.781  11.554 -0.1410 -0.2561  0.2089
11549W        W13749   1.227   4.161   7.255  0.1750  0.0347  0.2947
11550W        W13750  22.333   4.488   1.919 -0.3341 -0.0784  0.1346
11551W        W13751  16.109   0.547   9.752  0.1759 -0.2809 -0.0741
11552W        W13752  14.563   6.179   8.530 -0.0034 -0.1420  0.0288
11553W        W13753  13.458   5.421  22.276  0.2947  0.1265 -0.0383
11554W        W13754  12.507   4.667  26.264  0.3549 -0.3188 -0.0613
11555W        W13755   1.309   2.839   9.201  0.1024  0.0259  0.1861
11556W        W13756  18.072   5.180   4.762 -0.0153  0.1269 -0.0931
11557W        W13757   2.637   4.832  26.319 -0.1325 -0.3390  0.2029
11558W        W13758  13.107   3.745  25.688  0.1736 -0.0799 -0.1612
11559W        W13759  11.502   1.457   0.093 -0.2297 -0.0180  0.0930
11560W        W13760   2.370   2.522  25.424 -0.3603  0.1638 -0.0229
11561W        W13761   5.541   5.148   6.593  0.3029 -0.1651  0.0936
11562W        W13762   2.143   6.075  12.786  0.0610 -0.1633 -0.0440
11563W        W13763  20.952   3.405  13.974 -0.0535  0.0967  0.0869
11564W        W13764  10.393   0.566  29.706 -0.1817  0.2302  0.1002
11565W        W13765  21.160   5.696  20.626  0.1545  0.1897 -0.4239
11566W        W13766  21.994   1.248   9.873  0.0989 -0.2091  0.0558
11567W        W13767   0.386   0.007  21.971 -0.1576 -0.1698 -0.1342
11568W        W13768   5.288   2.124  14.473  0.0200 -0.0907 -0.2057
11569W        W13769   6.977   4.697  13.822  0.1666 -0.1489 -0.3448
11570W        W13770  26.106   0.965  31.211 -0.2146 -0.0138 -0.2033
11571W        W13771  23.958   5.213  27.510  0.0504  0.0652  0.0270
11572W        W13772  18.696   6.586  32.154 -0.0411  0.1496 -0.2974
11573W        W13773  15.665   1.393  23.048 -0.0745  0.0918 -0.2593
11574W        W13774  12.490   3.127   9.481  0.1565  0.1725  0.0024
11575W        W13775   8.089   2.250   1.671  0.0481 -0.1732  0.0843
11576W        W13776  19.351   5.687  35.217 -0.0590 -0.0266  0.2698
11577W        W13777  23.385   1.419   9.462  0.0332 -0.0039 -0.2518
11578W        W13778   4.771   2.363  22.267  0.1066 -0.0257 -0.0089
11579W        W13779   5.471   0.208  12.778 -0.2311 -0.0875 -0.0505
11580W        W13780  13.670   1.588   9.862 -0.1122 -0.1521 -0.0145
11581W        W13781  14.785   0.506  33.175  0.0827 -0.1102 -0.2998
11582W        W13782   1.173   6.147  30.585  0.2589  0.3440  0.0859
11583W        W13783  19.745   3.836   4.365 -0.0024 -0.0802  0.1543
11584W        W13784  22.428   6.495  32.377  0.1307 -0.1169 -0.0471
11585W        W13785   1.843   3.136  14.973  0.0847  0.0478  0.0662
11586W        W13786  21.464   1.729  24.997 -0.0717  0.1924 -0.0435
11587W        W13787   7.530   2.414  31.887 -0.3383 -0.1698  0.3125
11588W        W13788   4.525   3.584  13.533 -0.0547  0.2934 -0.2581
11589W        W13789   5.308   3.473  24.017 -0.2306  0.2998  0.2166
11590W        W13790  13.595   2.900   5.226  0.0846  0.1081 -0.2288
11591W        W13791   2.560   5.626   6.199 -0.0061  0.2868  0.0429
11592W        W13792   2.843   2.857  27.620 -0.2719 -0.0887 -0.0794
11593W        W13793   2.002   5.039  15.077  0.2382 -0.1985 -0.1099
11594W        W13794  14.345   5.097   9.735  0.0023 -0.1706  0.2297
11595W        W13795  18.233   0.606  25.784  0.0847  0.0955  0.2676
11596W        W13796  25.403   5.099   1.998  0.1739  0.1150 -0.1851
11597W        W13797  11.213   3.041  29.058 -0.0934 -0.3733 -0.0900
11598W        W13798  23.084   4.456  15.184  0.1841 -0.0286 -0.1563
11599W        W13799  21.993   4.935  36.002  0.4609  0.1964 -0.1480
11600W        W13800  18.887   3.816   8.599  0.3225  0.2517  0.0167
11601W        W13801   8.413   5.181  23.515  0.1872  0.5202 -0.1162
11602W        W13802  16.810   6.265  29.027 -0.0700 -0.1355  0.0020
11603W        W13803   8.317   2.566   4.384  0.3262  0.0710 -0.1601
11604W        W13804  25.534   5.594   8.945 -0.0657  0.1368  0.0930
11605W        W13805   7.402   1.784   2.766 -0.2515 -0.1690  0.1016
11606W        W13806   6.836   2.295  33.458  0.0576 -0.2704 -0.0934
11607W        W13807  20.431   4.873   6.369 -0.1343 -0.1759  0.0060
11608W        W13808   5.043   2.392  34.144 -0.1795 -0.2826 -0.1987
11609W        W13809  22.621   5.148  33.553 -0.4390  0.4094 -0.1185
11610W        W13810   8.335   1.987  32.604 -0.0349 -0.2104 -0.0962
11611W        W13811  22.522   4.101  11.313  0.1917 -0.1273 -0.2256
11612W        W13812   4.200   0.132  24.382  0.2624  0.1024  0.1077
11613W        W13813  10.519   4.482  13.099 -0.3263 -0.4517  0.1354
11614W        W13814  20.099   4.101  11.847 -0.1346  0.0409 -0.0972
11615W        W13815  21.846   4.409   0.935  0.0671 -0.2420 -0.0968
11616W        W13816  17.359   2.975  31.783 -0.2111 -0.1264 -0.1453
11617W        W13817  15.041   0.547   0.375  0.1249 -0.1771 -0.1349
11618W        W13818  19.283   5.698  10.851  0.2102 -0.2830  0.2245
11619W        W13819  12.551   1.698   9.502 -0.0810 -0.0027  0.0863
11620W        W13820  23.277   6.503  12.561  0.1355 -0.0259 -0.1657
11621W        W13821   9.081   3.577  12.653  0.1270 -0.1928  0.1179
11622W        W13822  25.012   3.615  23.079 -0.2561  0.3465 -0.0325
11623W        W13823   8.148   3.712  25.912  0.0254 -0.1067 -0.0139
11624W        W13824  17.545   4.304  25.033 -0.1899 -0.2584  0.1471
11625W        W13825   0.337   1.470  34.586  0.0251  0.0214  0.3022
11626W        W13826  12.041   5.729   5.442 -0.0743  0.0248  0.3150
11627W        W13827  10.832   1.599   6.889 -0.0733  0.1247 -0.0852
11628W        W13828  24.800   4.035   8.548 -0.0342  0.0874  0.1306
11629W        W13829  19.925   2.898  10.386  0.1010 -0.0150  0.3902
11630W        W13830   3.815   3.742  28.476  0.2851  0.0094 -0.1032
11631W        W13831   7.526   2.410  32.923 -0.3408  0.1794 -0.1391
11632W        W13832   7.099   0.727  12.238  0.0178 -0.1613 -0.1055
11633W        W13833  13.135   3.175  22.647  0.3440  0.0950 -0.0784
11634W        W13834   3.470   5.926  30.716  0.0974 -0.0999 -0.0634
11635W        W13835   0.444   0.281   3.298 -0.3806 -0.1517 -0.0463
11636W        W13836   8.602   2.109  30.453  0.1727 -0.0437  0.2439
11637W        W13837  21.661   1.583  34.181  0.0681 -0.2151 -0.0389
11638W        W13838  11.904   2.535   7.726  0.0642  0.0121 -0.0173
11639W        W13839  22.044   3.574  12.986 -0.1859 -0.0857 -0.2104
11640W        W13840  10.717   4.140  15.473 -0.4970  0.2064  0.2982
11641W        W13841  19.034   3.224  32.817 -0.0553 -0.1642 -0.0462
11642W        W13842  11.656   3.289  10.812  0.0534 -0.0197 -0.2257
11643W        W13843  16.847   4.566  13.492  0.1501 -0.1419  0.2558
11644W        W13844   4.326   3.774  12.316 -0.0754 -0.1001  0.4666
11645W        W13845   0.742   0.070  21.575 -0.1758 -0.1768  0.1046
11646W        W13846  12.251   1.811  25.910 -0.2969  0.2140  0.0554
11647W        W13847  10.003   2.330   1.624  0.1290 -0.2290 -0.1436
11648W        W13848   3.264   0.855  12.537  0.1871 -0.0174  0.2838
11649W        W13849  23.724   4.542  35.792 -0.0233  0.0358 -0.1214
11650W        W13850  25.535   6.394   7.651 -0.0891  0.0161  0.0358
11651W        W13851   6.057   2.426   9.223 -0.0778 -0.0665 -0.1008
11652W        W13852   5.086   1.265   9.473 -0.0612 -0.1291  0.1174
11653W        W13853  11.235   3.204   2.628  0.1913 -0.2765 -0.0086
11654W        W13854  15.047   4.889   1.125 -0.0137 -0.0260  0.3216
11655W        W13855  23.066   4.943  15.221 -0.0002 -0.0540  0.0433
11656W        W13856  25.412   2.349  13.066 -0.1223 -0.0733 -0.0788
11657W        W13857  21.121   0.238  10.463  0.1092  0.0760 -0.2366
11658W        W13858   9.377   5.135   3.670 -0.2232  0.1467 -0.1427
11659W        W13859   3.246   0.376  23.660 -0.2144 -0.3091 -0.0732
11660ION     NA13860  15.307   5.432  22.148 -0.6604 -0.0684 -0.0600
11661ION     NA13861  25.034   4.124  35.002  0.2722  0.1813 -0.3017
11662ION     NA13862  12.301   0.032  34.568  0.0840 -0.4874  0.7160
11663ION     NA13863  15.722   0.421   4.633 -0.2824  0.0483  0.1448
11664ION     NA13864  13.496   4.758  33.050  0.2118 -0.4042 -0.3101
11665ION     NA13865  20.463   1.781  32.048 -0.2109 -0.3469  0.2396
11666ION     NA13866   7.487   3.552  10.512  0.1799  0.2440 -0.1784
11667ION     NA13867  22.917   2.819  27.886  0.0352  0.1930 -0.4206
11668ION     NA13868  16.200   2.401  14.606  0.0102  0.1600  0.1652
11669ION     NA13869  25.769   1.525  34.917 -0.1170  0.1887 -0.4351
11670ION     NA13870  24.153   4.800   1.793  0.3832  0.0079  0.4237
11671ION     NA13871  12.982   2.828   7.219 -0.2043 -0.2395 -0.2431
11672ION     NA13872  14.752   4.803   5.992 -0.1754  0.1611 -0.5030
11673ION     NA13873   1.762   5.799   6.794  0.0642  0.0685  0.0924
11674ION     NA13874  14.644   2.159  32.439 -0.1535  0.3397  0.6415
11675ION     NA13875   5.767   6.455   5.607 -0.0986 -0.0304 -0.3526
11676ION     NA13876   0.848   2.599  13.941 -0.3068  0.0770 -0.1339
11677ION     NA13877  15.150   4.703   1.903 -0.0054 -0.2438  0.5313
11678ION     NA13878  25.879   4.613  23.345 -0.3973 -0.1550  0.6026
11679ION     NA13879  12.463   3.480   7.282  0.3101  0.0328  0.3789
11680ION     NA13880   6.541   6.594  29.249 -0.0024  0.0146 -0.1282
11681ION     NA13881  18.042   3.300  25.716 -0.0504  0.5191  0.1808
11682ION     NA13882  14.021   3.283  10.889  0.0728 -0.1756  0.0688
11683ION     NA13883   2.324   2.610  31.635 -0.1832  0.0367 -0.0472
11684ION     NA13884  21.114   5.908  13.294 -0.0100 -0.0913 -0.2737
11685ION     NA13885   9.840   5.859  13.832  0.0202  0.2218  0.3616
11686ION     NA13886   7.724   3.538  12.448 -0.1005  0.4051 -0.3877
11687ION     NA13887   3.842   2.551  15.955 -0.1490  0.5392  0.3112
11688ION     NA13888  21.121   0.304  25.898  0.1238  0.0886  0.4486
11689ION     NA13889   7.490   0.848  10.495  0.4549  0.1919 -0.0985
11690ION     NA13890   2.151   0.785   6.482 -0.3927 -0.0932 -0.0078
11691ION     NA13891  11.198   4.241   7.939 -0.0146 -0.2053  0.3122
11692ION     NA13892  19.086   1.727  29.080 -0.1286 -0.1527 -0.2586
11693ION     NA13893  11.921   1.439  22.466  0.1113  0.0118 -0.3687
11694ION     NA13894  15.429   4.533  10.738  0.1131  0.2365 -0.1068
11695ION     NA13895  17.447   4.077  13.401  0.0527 -0.2752 -0.1703
11696ION     NA13896   0.085   4.037  30.115 -0.1412  0.1193  0.8923
11697ION     NA13897   0.028   4.498  34.730  0.1388  0.0079 -0.2653
11698ION     NA13898   8.953   2.965   2.144 -0.0984 -0.3365  0.0698
11699ION     NA13899   5.735   4.268  10.043 -0.4540 -0.3820  0.5309
11700ION     NA13900  20.285   2.523   9.085  0.0145  0.1782 -0.3586
11701ION     NA13901  19.215   2.315  23.578 -0.0192 -0.1404  0.3186
11702ION     NA13902   8.515   1.360  27.275  0.0406 -0.1924  0.0103
11703ION     NA13903  18.813   1.714   1.276  0.1230  0.0561  0.1928
11704ION     NA13904   6.643   2.859   6.852 -0.3379  0.2992 -0.3105
11705ION     NA13905  16.209   4.507  15.085  0.3538 -0.0048 -0.1396
11706ION     NA13906   0.662   5.868  22.909  0.4060 -0.2740  0.0974
11707ION     NA13907   1.553   2.184  27.778 -0.0880  0.0798 -0.1487
11708ION     NA13908  15.200   0.936  11.571 -0.4831 -0.1383  0.2764
11709ION     NA13909   9.454   6.364  33.253  0.1057 -0.1849  0.0858
11710ION     NA13910   1.278   3.266  12.429 -0.3264  0.2329 -0.5025
11711ION     NA13911   5.376   0.962  28.593 -0.2079 -0.6407  0.2767
11712ION     NA13912  14.615   4.540  30.663 -0.1824 -0.5663 -0.2377
11713ION     NA13913   8.731   6.397  13.606 -0.2250 -0.3384  0.2388
11714ION     NA13914   5.364   6.275  21.471 -0.3470 -0.3229 -0.5134
11715ION     NA13915   3.615   2.243   0.980 -0.2483  0.2577 -0.0112
11716ION     NA13916  23.997   6.112   8.558  0.3396 -0.1546  0.4135
11717ION     NA13917  25.236   0.555  28.414  0.1363  0.1360 -0.0671
11718ION     NA13918  20.221   3.391   5.293  0.1837  0.0654 -0.4621
11719ION     NA13919   7.300   4.402   3.426 -0.1679  0.0355 -0.1134
11720ION     NA13920  18.812   0.402   6.874  0.5481 -0.0629 -0.2189
11721ION     NA13921  13.755   0.746  24.126  0.2513  0.0519 -0.0251
11722ION     NA13922  21.318   1.167   9.480  0.0033  0.0376  0.2027
11723ION     NA13923  23.204   1.340  35.614 -0.3342  0.0474  0.1780
11724ION     NA13924  18.181   6.440  13.234 -0.3821 -0.2614  0.0072
11725ION     NA13925   6.197   1.628  10.714  0.1469 -0.3673  0.0689
11726ION     NA13926   9.428   6.091  25.184 -0.3502  0.1853 -0.1483
11727ION     NA13927   5.559   4.061  14.231 -0.4389  0.0822  0.3220
11728ION     NA13928  15.712   3.810  25.421 -0.3087 -0.0408  0.2896
11729ION     NA13929  18.937   1.239  13.136 -0.0258 -0.4941  0.0488
11730ION     NA13930  19.158   4.200  26.555  0.1026 -0.2491 -0.0704
11731ION     NA13931   8.895   5.823  11.853  0.5675 -0.0619  0.0392
11732ION     NA13932   4.970   3.297   5.116 -0.0762 -0.0063  0.2365
11733ION     NA13933  24.812   0.384   6.447  0.2895 -0.2871  0.0337
11734ION     NA13934  10.531   2.803  30.340  0.1354 -0.1393 -0.0855
11735ION     NA13935   2.345   4.729  31.885 -0.0193 -0.0962 -0.1471
11736ION     NA13936  10.325   1.632   2.191 -0.2726 -0.0974 -0.1957
11737ION     NA13937  17.156   1.182  35.874  0.0128  0.0540 -0.1490
11738ION     NA13938  25.279   0.465  14.778 -0.0277 -0.0973 -0.3551
11739ION     NA13939   7.183   6.327  22.816 -0.0806 -0.1877  0.0500
11740ION     NA13940  20.868   3.864   5.110 -0.4807  0.0204 -0.2243
11741ION     NA13941   6.463   0.758  30.628  0.5331  0.7031  0.2084
11742ION     NA13942  21.014   3.533   7.146 -0.2878 -0.0464 -0.2558
11743ION     NA13943  23.003   2.329   8.586 -0.1910  0.4682  0.3043
11744ION     NA13944   1.229   0.430  29.034 -0.4090 -0.1250 -0.0603
11745ION     NA13945  20.160   4.042   5.263  0.0949 -0.2455  0.0945
11746ION     NA13946  15.840   3.922  11.060 -0.3040 -0.1142 -0.2955
11747ION     NA13947   6.277   4.595   4.810  0.3805 -0.1438 -0.3607
11748ION     NA13948   2.911   1.034   2.265  0.0931 -0.1934 -0.2269
11749ION     NA13949   9.089   2.836  11.760  0.5047  0.5110 -0.1143
11750ION     NA13950  16.773   2.044  35.819  0.5094 -0.0028  0.5114
11751ION     NA13951  20.141   3.957  25.402 -0.0313 -0.3104  0.1511
11752ION     NA13952   6.071   0.340   8.977  0.0105 -0.4122  0.3501
11753ION     NA13953  21.358   2.733   6.431 -0.3944  0.2132 -0.0387
11754ION     NA13954  21.025   2.347  12.680 -0.1225 -0.0376  0.3384
11755ION     NA13955   6.194   0.871  28.569 -0.1339 -0.3283  0.1304
11756ION     NA13956   7.635   0.558   0.063 -0.2627 -0.3810  0.0212
11757ION     NA13957   6.880   2.625  27.619 -0.0908 -0.1239  0.4558
11758ION     NA13958  25.290   2.210  31.502  0.1740 -0.3391  0.0936
11759ION     NA13959  15.965   3.923  31.670 -0.4183 -0.5759 -0.0365
11760ION     NA13960  21.717   4.466  33.923  0.0225  0.1583 -0.4325
11761ION     NA13961  10.215   0.202   9.161  0.1202 -0.3412  0.5642
11762ION     NA13962  10.446   1.639  12.286 -0.2794 -0.0366  0.2731
11763ION     NA13963   4.832   6.376  22.040  0.0375  0.0595  0.2212
11764ION     NA13964  10.691   4.820  13.851 -0.2033  0.3792 -0.6009
11765ION     NA13965   0.558   2.208   6.345 -0.2150  0.0920 -0.0405
11766ION     NA13966  16.176   4.589  13.015 -0.1121  0.1408  0.0418
11767ION     NA13967  24.028   3.857  31.257 -0.3586 -0.2811 -0.0813
11768ION     NA13968   2.092   1.687  23.791 -0.1800 -0.3011  0.2043
11769ION     NA13969  14.491   5.454  10.134 -0.0655  0.0596 -0.5109
11770ION     NA13970   7.937   5.639   1.362  0.0245 -0.2307  0.4389
11771ION     NA13971   6.674   3.697   8.442  0.1760  0.1759 -0.1826
11772ION     NA13972   2.384   6.490   9.525  0.4393 -0.0578 -0.0146
11773ION     NA13973  21.170   1.392  22.217 -0.0534 -0.0219  0.3400
11774ION     NA13974   2.016   3.280  27.411  0.2183  0.1039  0.3312
11775ION     NA13975   8.522   1.379  33.350  0.2911 -0.0946  0.1215
11776ION     NA13976  16.076   0.731  11.041 -0.2648  0.3174  0.3786
11777ION     NA13977   8.688   0.926   6.906 -0.2767 -0.1666  0.1745
11778ION     NA13978   9.412   4.706  32.141 -0.4531  0.0980  0.1478
11779ION     NA13979  19.079   1.644  34.298 -0.0572 -0.1959 -0.1669
11780ION     NA13980  23.991   2.817  30.869 -0.2439  0.4337  0.0826
11781ION     NA13981  25.606   0.398  21.777  0.4074  0.2403  0.1098
11782ION     NA13982  13.314   5.211   1.225  0.1878  0.1143  0.1014
11783ION     NA13983  14.915   3.482  12.132  0.0998 -0.2177  0.0115
11784ION     NA13984  18.639   2.916  20.784 -0.3957 -0.3520 -0.3550
11785ION     NA13985  15.641   0.058  20.544  0.0163 -0.1247  0.0414
11786ION     NA13986  19.312   2.657   2.793 -0.2692 -0.2762  0.3159
11787ION     NA13987  23.141   4.740   5.172  0.3609 -0.2025 -0.3552
11788ION     NA13988  11.901   1.801  31.807 -0.4729  0.3331 -0.2274
11789ION     NA13989  25.680   2.766  27.265  0.1147 -0.0709 -0.2811
11790ION     NA13990  15.140   6.319  22.223 -0.3386  0.1237  0.0022
11791ION     NA13991   0.544   1.233  23.960  0.1333  0.0330  0.3030
11792ION     NA13992   6.304   0.125   4.925  0.1963 -0.7186  0.1518
11793ION     NA13993  16.684   0.544  11.100 -0.3340 -0.0884 -0.1905
11794ION     NA13994  12.805   5.991  34.366  0.6116  0.1324  0.1309
11795ION     NA13995  21.574   4.065  11.969  0.0258  0.0927  0.5597
11796ION     NA13996  24.821   3.716   7.622 -0.6130 -0.0764 -0.2783
11797ION     NA13997  13.949   0.592  22.930  0.1045 -0.1672  0.0429
11798ION     NA13998  15.165   5.762  34.054  0.2055 -0.0311  0.2153
11799ION     NA13999  25.948   5.589  12.939  0.2499  0.1954 -0.0044
11800ION     NA14000   0.810   4.135   2.250 -0.1981  0.1751  0.4399
11801ION     NA14001  21.316   4.040  25.109 -0.4119 -0.4591 -0.2358
11802ION     NA14002  23.631   1.668   5.095 -0.0827  0.1209  0.2795
11803ION     NA14003  12.708   4.434  10.366  0.0124 -0.3998  0.4136
11804ION     NA14004   5.860   1.936  21.444 -0.0926  0.0881  0.0494
11805ION     NA14005   5.249   3.080  29.586 -0.0925 -0.0159 -0.1743
11806ION     NA14006  21.230   0.954  36.067  0.1793 -0.0004 -0.1391
11807ION     NA14007   8.364   1.634   7.531  0.0353  0.1677 -0.1733
11808ION     NA14008   2.423   0.151  20.231 -0.1078  0.4031  0.4948
11809ION     NA14009  18.599   1.737   5.111  0.2093 -0.1115  0.2193
11810ION     NA14010  19.398   1.793   5.341  0.0070  0.2625  0.1686
11811ION     NA14011   7.632   0.004  34.496 -0.5365 -0.1131  0.2361
11812ION     NA14012  11.230   4.066  25.092 -0.0553 -0.2694  0.0797
11813ION     NA14013  11.945   5.914  30.726 -0.3186  0.4825  0.1431
11814ION     NA14014   1.613   5.893   4.051 -0.3398  0.1361 -0.0565
11815ION     NA14015   4.345   0.276  30.755 -0.0796 -0.1706 -0.1478
11816ION     NA14016  23.531   1.088  22.355  0.3319 -0.2991  0.1280
11817ION     NA14017  12.749   3.190   2.761  0.0694  0.3553  0.3223
11818ION     NA14018  24.682   3.595  29.577  0.2303  0.1290 -0.1790
11819ION     NA14019  24.462   5.127   5.215 -0.0266  0.2320  0.2013
11820ION     NA14020  23.320   2.698  20.406 -0.2640  0.2831 -0.1178
11821ION     NA14021  23.687   2.831   3.478  0.0689  0.0393 -0.3677
11822ION     NA14022  13.656   3.162  15.085  0.1291  0.2109  0.5410
11823ION     NA14023   3.213   1.793   1.552  0.0141  0.1584 -0.1929
11824ION     NA14024  20.750   4.864  15.690 -0.2011 -0.4644  0.4657
11825ION     NA14025   6.804   2.216  15.555 -0.0440  0.2597  0.3199
11826ION     NA14026  14.174   1.895  26.733 -0.0522  0.1322 -0.7642
11827ION     NA14027  16.181   3.551  21.160  0.4665 -0.1483 -0.1734
11828ION     NA14028  21.352   2.297  31.548 -0.3785  0.2873 -0.1537
11829ION     NA14029  18.826   6.086  34.766  0.0378 -0.3545 -0.0339
11830ION     NA14030  15.090   6.275   7.605  0.0717  0.4228  0.3813
11831ION     NA14031  16.088   3.076   6.606  0.0022  0.7583 -0.0949
11832ION     NA14032   2.833   2.468  33.177  0.0373 -0.0982 -0.0221
11833ION     NA14033  24.480   1.117   1.706  0.1285 -0.2173 -0.0208
11834ION     NA14034  21.749   2.488  11.675  0.1172 -0.0164  0.0307
11835ION     NA14035  12.206   0.452  29.502  0.0901 -0.2496 -0.1901
11836ION     NA14036  11.080   6.599  31.138 -0.2831 -0.1616 -0.1391
11837ION     NA14037  12.231   3.835  26.718  0.4967 -0.4217  0.1622
11838ION     NA14038  19.386   5.171   5.054  0.0135  0.2359  0.1669
11839ION     NA14039  19.211   3.162  30.301 -0.1680  0.2302  0.0859
11840ION     NA14040   1.808   6.072  23.498 -0.1859  0.1088  0.3013
11841ION     NA14041   9.067   3.547  34.675 -0.5128  0.1498 -0.1545
11842ION     NA14042  17.216   3.772   9.373  0.2511 -0.1192 -0.1603
11843ION     NA14043   8.880   2.954  26.991 -0.0342 -0.1174  0.2485
11844ION     NA14044  21.905   0.535  34.824  0.0373  0.3744  0.1373
11845ION     NA14045   2.174   6.446  12.191  0.0776 -0.1560  0.3062
11846ION     NA14046   4.066   3.493  28.762 -0.1052  0.3092  0.3164
11847ION     NA14047   7.336   3.876  25.648 -0.2101  0.1820 -0.2154
11848ION     NA14048  16.966   3.904   0.137 -0.1535  0.0058 -0.3675
11849ION     NA14049  23.293   1.924  29.938 -0.4189  0.2262  0.6347
11850ION     NA14050  18.533   5.965  31.256  0.2229  0.1479  0.1092
11851ION     NA14051  21.625   1.129  30.064 -0.0431 -0.1625  0.1549
11852ION     NA14052   9.922   2.967   7.700  0.0843  0.0752 -0.0228
11853ION     NA14053  19.822   0.997  30.142  0.1988  0.4930  0.5536
11854ION     NA14054  16.214   4.606  35.057 -0.1728 -0.2114 -0.0335
11855ION     CL14055  18.803   3.269  21.308  0.3111  0.0725 -0.0502
11856ION     CL14056  25.309   1.511  33.335  0.2882 -0.2162 -0.3477
11857ION     CL14057  23.112   1.131  26.538 -0.2915  0.2992  0.1829
11858ION     CL14058  17.663   4.164   8.032  0.0506 -0.2740 -0.3270
11859ION     CL14059  20.823   1.521   6.743 -0.0951  0.2439  0.0424
11860ION     CL14060   5.640   2.557  24.234  0.1353 -0.2202 -0.0934
11861ION     CL14061  21.288   0.972   8.891 -0.4147 -0.3124 -0.0107
11862ION     CL14062  24.012   2.479  30.980  0.0077 -0.1482  0.3705
11863ION     CL14063  25.007   0.325  21.215 -0.1496 -0.1487 -0.3720
11864ION     CL14064  16.800   3.117  26.429  0.0253  0.3326  0.0645
11865ION     CL14065   5.125   6.576  12.569 -0.0509  0.3481 -0.2015
11866ION     CL14066  18.755   0.698  27.295 -0.0092  0.3109 -0.3306
11867ION     CL14067  10.497   5.870  25.070 -0.2733  0.1065 -0.0922
11868ION     CL14068  22.187   0.361  13.261 -0.3928  0.0198 -0.2388
11869ION     CL14069  18.038   6.503  10.124  0.1629  0.1330 -0.3844
11870ION     CL14070  16.968   0.868   0.116 -0.2070 -0.0092  0.0641
11871ION     CL14071   8.164   1.376  34.115  0.5752  0.0706  0.2149
11872ION     CL14072  11.062   5.405   7.637 -0.3214 -0.3620 -0.0996
11873ION     CL14073   0.271   1.154  12.709 -0.3916  0.2025  0.0129
11874ION     CL14074   1.625   1.793  27.532  0.2796 -0.2084 -0.2313
11875ION     CL14075  22.386   2.846   2.357 -0.3010 -0.1986 -0.0516
11876ION     CL14076  15.840   4.858  25.431 -0.3627 -0.1898  0.4136
11877ION     CL14077  24.424   3.140  13.979 -0.0068  0.5827  0.1561
11878ION     CL14078   8.704   6.081   8.500  0.0125  0.2177 -0.1474
11879ION     CL14079  19.585   0.752  10.883  0.1134 -0.0895 -0.2576
11880ION     CL14080  17.392   4.777  29.372 -0.2664 -0.0426 -0.1994
11881ION     CL14081  24.097   1.757  29.876 -0.2989 -0.1671  0.0238
11882ION     CL14082  21.026   3.754   1.318 -0.2686  0.0395  0.4189
11883ION     CL14083  20.008   2.776   8.904 -0.2246 -0.1788 -0.0802
11884ION     CL14084  12.009   0.004  33.630 -0.2682  0.2003  0.4240
11885ION     CL14085  16.483   4.643  21.303 -0.0346 -0.0866  0.3315
11886ION     CL14086  20.237   4.281   3.178  0.3287 -0.5627 -0.0800
11887ION     CL14087   7.822   3.513  27.254 -0.3926  0.3003  0.0980
11888ION     CL14088   2.804   2.814  33.087 -0.2558  0.0753 -0.3382
11889ION     CL14089  21.040   4.075  31.949 -0.0439  0.1650  0.0674
11890ION     CL14090  21.749   1.802  34.547  0.3130 -0.5071  0.1737
11891ION     CL14091   4.317   3.385  24.045 -0.2585  0.1847 -0.0493
11892ION     CL14092  24.543   1.202  12.447  0.1283 -0.2755 -0.2613
11893ION     CL14093  16.653   2.686  11.855 -0.1663 -0.0054 -0.2930
11894ION     CL14094   7.484   5.797   6.925  0.2054 -0.2860  0.0611
11895ION     CL14095  13.082   6.204   8.430  0.1002 -0.1541 -0.1620
11896ION     CL14096  15.468   0.622   4.680  0.3919 -0.0405 -0.4352
11897ION     CL14097  23.454   1.963  35.608 -0.5938  0.1433 -0.1803
11898ION     CL14098   5.779   1.555  21.404  0.0504 -0.0737 -0.1379
11899ION     CL14099   4.751   5.892  30.497 -0.6118  0.0293  0.2989
11900ION     CL14100  12.126   1.452  24.202 -0.4919 -0.1035  0.0613
11901ION     CL14101   1.864   1.076  35.173  0.3662  0.0084 -0.0448
11902ION     CL14102  21.134   4.948  28.170  0.3162  0.0546 -0.4524
11903ION     CL14103   1.817   5.880   3.420 -0.1779  0.0402 -0.1492
11904ION     CL14104  19.877   0.421  23.707  0.4760 -0.1326  0.2547
11905ION     CL14105  20.491   2.730  28.260  0.1230 -0.0891  0.1016
11906ION     CL14106  13.046   5.655   8.878  0.8148 -0.2997 -0.2142
11907ION     CL14107  21.891   3.648   0.521  0.2756 -0.1718  0.0490
11908ION     CL14108   4.619   4.783  24.833  0.5307 -0.1255 -0.0293
11909ION     CL14109  14.693   4.275  26.108  0.3524  0.4739  0.0209
11910ION     CL14110  10.351   4.620   8.137 -0.0024  0.2318  0.1139
11911ION     CL14111   8.457   5.339  24.228  0.5798  0.2995 -0.2635
11912ION     CL14112   8.318   3.831   2.265 -0.4094  0.1967 -0.1413
11913ION     CL14113  25.221   5.640   4.549  0.0674 -0.2660 -0.3294
11914ION     CL14114   8.736   1.916  25.655 -0.0804 -0.2563  0.0938
11915ION     CL14115  22.582   1.279  34.978 -0.5092  0.1295  0.0500
11916ION     CL14116  12.530   4.351  25.987 -0.5670  0.0912  0.5999
11917ION     CL14117  20.470   0.668  24.925 -0.2920  0.2207  0.1742
11918ION     CL14118   3.749   3.116  11.388 -0.0715  0.5200 -0.1390
11919ION     CL14119   3.483   3.673   6.800  0.2505  0.0784 -0.4016
11920ION     CL14120   7.546   6.546  28.707 -0.0119 -0.5912  0.2205
11921ION     CL14121  12.601   2.914   2.571 -0.4312 -0.4921  0.2573
11922ION     CL14122  16.904   5.291   5.295  0.2670 -0.1817  0.1059
11923ION     CL14123   0.046   3.493  34.128 -0.4287  0.2136  0.0367
11924ION     CL14124   7.770   1.502  30.872 -0.0692 -0.0345 -0.0310
11925ION     CL14125  18.130   1.739   5.100 -0.2969 -0.2152 -0.0033
11926ION     CL14126   4.656   2.962  12.298  0.0042 -0.0798 -0.4901
11927ION     CL14127  13.635   5.800  22.211  0.4533 -0.2004  0.0441
11928ION     CL14128  25.939   0.206   3.351  0.2105 -0.2402  0.4070
11929ION     CL14129   2.393   1.006  25.563 -0.3913 -0.1751  0.0853
11930ION     CL14130   8.526   1.601  32.542 -0.1415  0.1122  0.0680
11931ION     CL14131   9.426   2.699  11.796  0.0041  0.6490  0.0542
11932ION     CL14132  20.414   3.513   5.559  0.3227 -0.0984  0.1955
11933ION     CL14133  16.292   6.516  28.067  0.3122  0.2803 -0.1861
11934ION     CL14134  22.273   2.238  21.152 -0.0778 -0.1798 -0.0573
11935ION     CL14135  24.424   4.485  32.918  0.1094  0.1342  0.1768
11936ION     CL14136  15.310   5.335  10.429 -0.2616 -0.1139 -0.0327
11937ION     CL14137  14.593   5.476  12.498 -0.1094 -0.3145  0.0217
11938ION     CL14138  22.635   6.187  13.981  0.3413 -0.0961 -0.4789
11939ION     CL14139  24.035   0.722  22.770 -0.0379 -0.1866  0.4944
11940ION     CL14140  13.409   2.678  29.681 -0.1400  0.3488 -0.3605
11941ION     CL14141   4.732   4.184  35.780 -0.0334 -0.0113  0.0321
11942ION     CL14142  18.986   6.338   0.615  0.3271 -0.0465 -0.7339
11943ION     CL14143  19.486   1.998   5.717  0.1934  0.0279  0.0186
11944ION     CL14144  14.999   3.802  11.534 -0.4622  0.0347 -0.3790
11945ION     CL14145   9.173   2.608  25.426  0.0556  0.1378  0.4149
11946ION     CL14146  21.396   0.208  25.729 -0.2467  0.2186  0.0690
11947ION     CL14147  26.302   0.332   5.121 -0.4284 -0.0861 -0.1287
11948ION     CL14148  17.140   4.961  24.511  0.2981  0.5397  0.3209
11949ION     CL14149   1.398   2.068   8.914 -0.0181  0.0233  0.3069
11950ION     CL14150   0.150   2.979   0.228 -0.0567  0.1943  0.2876
11951ION     CL14151  24.714   4.664  13.038  0.0039 -0.0622 -0.3310
11952ION     CL14152  16.872   5.286   0.579  0.2503  0.2234 -0.4708
11953ION     CL14153   7.502   0.384  35.583  0.1283  0.1228  0.3157
11954ION     CL14154  20.806   0.754  23.954 -0.7435 -0.5700  0.1561
11955ION     CL14155   8.948   0.506   4.598  0.0037 -0.0200 -0.3719
11956ION     CL14156  18.483   2.854  14.936  0.0199 -0.1326 -0.3461
11957ION     CL14157   6.091   5.076   3.505  0.0467 -0.6222  0.1622
11958ION     CL14158   2.205   1.789  25.270  0.1436 -0.0357 -0.0495
11959ION     CL14159   0.088   3.822  28.640  0.2833 -0.7702 -0.1129
11960ION     CL14160   4.611   4.762  35.191 -0.4183 -0.5142  0.1149
11961ION     CL14161  21.679   4.948  13.772 -0.0239  0.0830  0.2796
11962ION     CL14162   5.788   6.066   5.804 -0.0141  0.0008 -0.1610
11963ION     CL14163  17.127   5.847   5.867 -0.1565  0.0404  0.3296
11964ION     CL14164  16.176   3.544  28.721  0.0347 -0.4820 -0.3983
11965ION     CL14165  17.200   2.843  14.764  0.2937  0.2034 -0.1552
11966ION     CL14166   9.900   4.126  24.860 -0.5195 -0.0035 -0.2904
11967ION     CL14167  22.482   3.782   3.449 -0.0199 -0.1971  0.3812
11968ION     CL14168  21.565   5.858   6.518  0.6695 -0.1057 -0.4027
11969ION     CL14169  15.536   3.876  28.051  0.2061  0.3782 -0.2130
11970ION     CL14170  20.521   3.233  31.079  0.0921  0.1502 -0.2651
11971ION     CL14171   9.904   2.124   3.032 -0.0243  0.1210  0.2532
11972ION     CL14172  25.854   1.295  13.031 -0.2806 -0.1865 -0.0205
11973ION     CL14173  21.063   2.684   6.270 -0.0023  0.0887 -0.3840
11974ION     CL14174  16.868   3.636  35.947  0.2447  0.4432  0.1895
11975ION     CL14175   5.576   3.040   7.544  0.0890  0.1181 -0.4086
11976ION     CL14176  16.243   2.723   3.055 -0.0850 -0.1698  0.2128
11977ION     CL14177  23.744   1.819   1.453  0.0470  0.4306  0.3229
11978ION     CL14178   7.762   4.664   4.061 -0.1294 -0.0258 -0.0691
11979ION     CL14179   8.790   4.074  12.209  0.2238  0.3586  0.1246
11980ION     CL14180   7.528   1.281  26.528  0.0314 -0.1110  0.0881
11981ION     CL14181   0.989   0.340   5.110  0.5113  0.0003 -0.1099
11982ION     CL14182   0.604   4.296  29.117 -0.1438  0.0129  0.1894
11983ION     CL14183  21.109   1.172   1.409 -0.1302  0.0426  0.0546
11984ION     CL14184  22.374   0.893  32.538 -0.0433 -0.5017 -0.0729
11985ION     CL14185  20.472   0.071   7.753  0.1224  0.3343 -0.2999
11986ION     CL14186  19.576   4.686  34.572  0.1855  0.3173  0.1641
11987ION     CL14187  21.116   2.980   2.691 -0.2450 -0.5297 -0.5092
11988ION     CL14188   1.352   3.485  30.756 -0.5283  0.0254 -0.1312
11989ION     CL14189   1.953   3.433  12.510  0.2537  0.1090  0.2378
11990ION     CL14190  18.697   2.268  29.150  0.0133  0.4341 -0.3441
11991ION     CL14191  21.782   5.262  21.350 -0.2594 -0.0261  0.5367
11992ION     CL14192   6.465   0.438  28.686  0.1738 -0.3579  0.3057
11993ION     CL14193   5.391   6.329  24.021  0.3796  0.0765 -0.3891
11994ION     CL14194  23.948   3.542  31.155 -0.0695 -0.2083 -0.0107
11995ION     CL14195  12.965   4.590  11.023 -0.1598 -0.1029  0.0367
11996ION     CL14196   4.860   3.129   2.518  0.2173 -0.0505 -0.0698
11997ION     CL14197  21.540   3.144   7.729 -0.2380 -0.0530  0.4319
11998ION     CL14198   2.452   4.495   0.617  0.1192  0.0337 -0.6267
11999ION     CL14199  15.888   1.400   9.437 -0.5838  0.2302  0.3912
12000DPPC   NC314200  24.901   5.946  20.440  0.0869 -0.0490  0.1402
12000DPPC   PO414201  24.723   5.775  20.089 -0.2663  0.4394  0.2551
12000DPPC   GL114202  24.819   5.708  19.628 -0.0674  0.0878  0.1460
12000DPPC   GL214203  24.463   5.571  19.744 -0.0736  0.1763  0.2015
12000DPPC   C1A14204  24.751   5.621  19.298 -0.0043 -0.1616  0.1840
12000DPPC   C2A14205  24.779   5.633  18.869 -0.0078 -0.1031  0.0698
12000DPPC   C3A14206  24.728   5.596  18.424  0.0687 -0.3583  0.2670
12000DPPC   C4A14207  24.774   5.557  17.898 -0.2126  0.2457  0.2448
12000DPPC   C1B14208  24.322   5.688  19.439  0.0610  0.0469  0.1588
12000DPPC   C2B14209  24.311   5.862  19.054 -0.0624  0.1133 -0.2302
12000DPPC   C3B14210  24.266   5.805  18.587  0.1858  0.1413 -0.2282
12000DPPC   C4B14211  24.289   5.725  18.091 -0.1056 -0.1148  0.2301
12001DPPC   NC314212   1.103   4.498  20.508  0.0840 -0.1448 -0.0255
12001DPPC   PO414213   0.885   4.390  20.190 -0.1130  0.0034  0.0356
12001DPPC   GL114214   1.089   4.309  19.808 -0.0352 -0.3937  0.1287
12001DPPC   GL214215   1.339   4.224  19.795 -0.1787 -0.2127  0.2281
12001DPPC   C1A14216   0.849   4.268  19.530 -0.1622  0.3064  0.2704
12001DPPC   C2A14217   0.779   4.227  19.132 -0.1056 -0.1003  0.3045
12001DPPC   C3A14218   0.844   4.139  18.686 -0.2377  0.0732 -0.0632
12001DPPC   C4A14219   0.776   4.199  18.195  0.2282  0.0066  0.0176
12001DPPC   C1B14220   1.285   4.044  19.464  0.0821 -0.0451  0.2086
12001DPPC   C2B14221   1.276   3.997  19.019 -0.3250  0.0272 -0.5339
12001DPPC   C3B14222   1.338   3.973  18.562  0.0641  0.0778 -0.0678
12001DPPC   C4B14223   1.225   3.968  18.057  0.0227  0.2048  0.1847
12002DPPC   NC314224   1.154   3.837  19.974  0.0459 -0.1126  0.0534
12002DPPC   PO414225   0.946   3.507  19.943 -0.2110 -0.2000  0.1759
12002DPPC   GL114226   0.797   3.569  19.614 -0.0148 -0.0859  0.1110
12002DPPC   GL214227   0.946   3.676  19.523  0.0816 -0.0993  0.0665
12002DPPC   C1A14228   0.550   3.384  19.337 -0.1436 -0.1211 -0.0282
12002DPPC   C2A14229   0.457   3.355  18.928 -0.5750 -0.0018 -0.0400
12002DPPC   C3A14230   0.486   3.317  18.434 -0.3567 -0.1333  0.2790
12002DPPC   C4A14231   0.397   3.330  17.959  0.1689  0.2492  0.0006
12002DPPC   C1B14232   0.850   3.804  19.209  0.0376  0.3553  0.1021
12002DPPC   C2B14233   0.918   3.666  18.858 -0.0751 -0.1050 -0.2198
12002DPPC   C3B14234   0.893   3.667  18.365  0.1214  0.1421 -0.2887
12002DPPC   C4B14235   0.821   3.628  17.863 -0.2403 -0.0073  0.1443
12003DPPC   NC314236  23.860   1.824  20.574 -0.1453 -0.1780  0.0331
12003DPPC   PO414237  23.670   1.697  20.263  0.1376  0.1501  0.0594
12003DPPC   GL114238  23.846   1.689  19.911  0.0379 -0.1295 -0.2010
12003DPPC   GL214239  23.593   1.780  19.811  0.4575  0.1254 -0.1668
12003DPPC   C1A14240  23.778   1.447  19.676 -0.2924  0.3515 -0.1888
12003DPPC   C2A14241  23.634   1.368  19.353 -0.1220  0.2918  0.0144
12003DPPC   C3A14242  23.586   1.412  18.853  0.0628  0.0209  0.1965
12003DPPC   C4A14243  23.526   1.351  18.400 -0.2666 -0.2502  0.1210
12003DPPC   C1B14244  23.565   1.771  19.453  0.1751  0.3544 -0.1302
12003DPPC   C2B14245  23.559   1.873  19.032  0.0570  0.0734  0.0089
12003DPPC   C3B14246  23.448   1.911  18.564  0.0817 -0.0795 -0.0759
12003DPPC   C4B14247  23.486   1.908  18.090 -0.0258  0.1520  0.0249
12004DPPC   NC314248  24.169   2.506  20.308  0.0011  0.1701 -0.6117
12004DPPC   PO414249  24.425   2.573  20.032 -0.1909 -0.1680 -0.0332
12004DPPC   GL114250  24.767   2.832  19.993 -0.3174  0.0494 -0.0267
12004DPPC   GL214251  24.742   2.604  19.809 -0.2106  0.0764  0.2425
12004DPPC   C1A14252  24.926   3.015  19.710 -0.2067  0.1279 -0.0322
12004DPPC   C2A14253  25.012   3.108  19.306  0.1139  0.0175  0.2518
12004DPPC   C3A14254  25.050   3.129  18.839  0.2168 -0.1995  0.1173
12004DPPC   C4A14255  25.083   3.168  18.380 -0.0978 -0.3568  0.0666
12004DPPC   C1B14256  24.638   2.706  19.440 -0.0754  0.0753  0.1997
12004DPPC   C2B14257  24.657   2.875  19.048  0.1347 -0.0356  0.2121
12004DPPC   C3B14258  24.671   2.857  18.545 -0.0142  0.1271 -0.0919
12004DPPC   C4B14259  24.666   2.807  18.078 -0.0091 -0.3306  0.1753
12005DPPC   NC314260  25.813   3.388  20.207 -0.0029 -0.2504 -0.1067
12005DPPC   PO414261  25.514   3.640  20.238 -0.0289  0.1080  0.0947
12005DPPC   GL114262  25.350   3.827  19.938  0.3157 -0.2968  0.1404
12005DPPC   GL214263  25.111   3.750  19.894 -0.2716 -0.2284  0.1106
12005DPPC   C1A14264  25.386   3.942  19.572  0.0225 -0.0541 -0.1452
12005DPPC   C2A14265  25.396   3.954  19.143 -0.4118  0.1018  0.3045
12005DPPC   C3A14266  25.353   3.902  18.699  0.0655 -0.0359 -0.0976
12005DPPC   C4A14267  25.300   3.971  18.268 -0.0301 -0.2417  0.0880
12005DPPC   C1B14268  25.017   3.610  19.571 -0.2918  0.4666  0.2152
12005DPPC   C2B14269  25.017   3.601  19.088 -0.3221  0.1918 -0.0379
12005DPPC   C3B14270  24.949   3.598  18.577 -0.1298 -0.1142 -0.3072
12005DPPC   C4B14271  25.054   3.568  18.062  0.0782  0.1834  0.2086
12006DPPC   NC314272  24.224   1.621  20.222 -0.3265  0.0479 -0.0439
12006DPPC   PO414273  24.618   1.782  20.220  0.0383 -0.2972 -0.0484
12006DPPC   GL114274  24.494   2.019  19.949 -0.0978  0.1234  0.0449
12006DPPC   GL214275  24.405   1.714  19.831  0.0947 -0.4097 -0.0913
12006DPPC   C1A14276  24.686   2.178  19.681 -0.1587  0.0822  0.3346
12006DPPC   C2A14277  24.694   2.313  19.311  0.3758  0.0463  0.1468
12006DPPC   C3A14278  24.691   2.336  18.844 -0.0313 -0.2079  0.0695
12006DPPC   C4A14279  24.713   2.298  18.311 -0.3036  0.1139 -0.1737
12006DPPC   C1B14280  24.274   1.640  19.503 -0.1610  0.1177 -0.2219
12006DPPC   C2B14281  24.024   1.684  19.164 -0.2828  0.2444 -0.0212
12006DPPC   C3B14282  23.981   1.642  18.682  0.1842 -0.1507  0.2135
12006DPPC   C4B14283  23.924   1.615  18.210  0.1035 -0.0598  0.1387
12007DPPC   NC314284   1.229   6.250  20.292 -0.3335 -0.2245 -0.1756
12007DPPC   PO414285   1.044   5.924  20.207 -0.3111  0.1167  0.1871
12007DPPC   GL114286   1.159   5.636  19.764  0.2158  0.3488  0.1110
12007DPPC   GL214287   1.250   5.912  19.742  0.3268  0.0758 -0.0216
12007DPPC   C1A14288   1.053   5.491  19.421 -0.1124 -0.2269 -0.0176
12007DPPC   C2A14289   1.013   5.383  19.022 -0.1899 -0.1945  0.1464
12007DPPC   C3A14290   1.020   5.405  18.482 -0.1652 -0.2928 -0.1721
12007DPPC   C4A14291   1.002   5.460  17.964 -0.1077  0.0927 -0.2350
12007DPPC   C1B14292   1.331   6.101  19.409  0.1351  0.0954 -0.2451
12007DPPC   C2B14293   1.280   6.216  19.019 -0.0334 -0.0736  0.2432
12007DPPC   C3B14294   1.269   6.297  18.597 -0.0026  0.1218  0.2481
12007DPPC   C4B14295   1.330   6.267  18.112  0.1962 -0.0731  0.2936
12008DPPC   NC314296   0.071   3.680  20.170 -0.1110 -0.0113  0.0723
12008DPPC   PO414297  -0.280   3.770  20.251  0.0646 -0.0884  0.0136
12008DPPC   GL114298  -0.661   4.044  19.966 -0.0776 -0.0071 -0.2212
12008DPPC   GL214299  -0.577   3.813  19.950  0.0118  0.1506 -0.1084
12008DPPC   C1A14300  -0.652   4.142  19.696 -0.2379 -0.0234  0.6167
12008DPPC   C2A14301  -0.625   4.259  19.260  0.2461 -0.0390 -0.1015
12008DPPC   C3A14302  -0.657   4.284  18.785 -0.0190 -0.1830 -0.3514
12008DPPC   C4A14303  -0.675   4.240  18.322  0.0649  0.0697 -0.0013
12008DPPC   C1B14304  -0.636   3.535  19.747  0.2071 -0.0053 -0.0359
12008DPPC   C2B14305  -0.464   3.225  19.542 -0.0539  0.0776  0.1043
12008DPPC   C3B14306  -0.554   3.252  19.074 -0.1314 -0.1042 -0.1331
12008DPPC   C4B14307  -0.449   3.262  18.563  0.0598  0.1201 -0.0401
12009DPPC   NC314308   1.517   1.354  20.869  0.1235 -0.0394  0.0637
12009DPPC   PO414309   1.892   1.362  20.675  0.1101 -0.0733 -0.0096
12009DPPC   GL114310   1.931   1.499  20.281  0.1577 -0.0968  0.1879
12009DPPC   GL214311   2.145   1.375  20.133  0.3520  0.2915 -0.0500
12009DPPC   C1A14312   1.668   1.640  20.005  0.1065 -0.1430  0.3015
12009DPPC   C2A14313   1.555   1.576  19.615  0.0071  0.3100  0.1815
12009DPPC   C3A14314   1.451   1.503  19.152 -0.1400 -0.0205 -0.0924
12009DPPC   C4A14315   1.435   1.509  18.622 -0.1886 -0.3182 -0.0984
12009DPPC   C1B14316   2.044   1.326  19.774  0.2673 -0.0096  0.5310
12009DPPC   C2B14317   2.003   1.300  19.378 -0.0480  0.0595  0.1848
12009DPPC   C3B14318   1.975   1.287  18.896 -0.1721  0.1442  0.1626
12009DPPC   C4B14319   1.846   1.304  18.411 -0.0137 -0.1360  0.1925
12010DPPC   NC314320  25.972   1.324  20.181 -0.1092 -0.2680 -0.1744
12010DPPC   PO414321  26.362   1.361  20.200  0.1826 -0.1841 -0.0818
12010DPPC   GL114322  26.713   1.422  19.961  0.3819 -0.2956 -0.3115
12010DPPC   GL214323  26.526   1.616  19.804 -0.0986 -0.1820 -0.2937
12010DPPC   C1A14324  26.835   1.285  19.584 -0.2824  0.2070 -0.3315
12010DPPC   C2A14325  27.025   1.370  19.240 -0.0516  0.0030 -0.0748
12010DPPC   C3A14326  26.976   1.337  18.768  0.2412 -0.0415  0.1396
12010DPPC   C4A14327  26.946   1.283  18.308  0.0076  0.0828 -0.0071
12010DPPC   C1B14328  26.577   1.686  19.459  0.1556  0.0044  0.3266
12010DPPC   C2B14329  26.590   1.625  19.080 -0.0084 -0.0444  0.0709
12010DPPC   C3B14330  26.569   1.577  18.575 -0.0299 -0.0590  0.0704
12010DPPC   C4B14331  26.510   1.565  18.075 -0.1104 -0.0211  0.1833
12011DPPC   NC314332   1.307   0.242  20.328 -0.0938 -0.0702 -0.0077
12011DPPC   PO414333   0.970   0.056  20.223  0.1287  0.0060  0.0486
12011DPPC   GL114334   1.173  -0.101  19.890  0.1719 -0.0019 -0.1642
12011DPPC   GL214335   0.976  -0.294  19.867  0.0949 -0.3037 -0.0418
12011DPPC   C1A14336   1.354  -0.147  19.578 -0.0527 -0.1089 -0.0063
12011DPPC   C2A14337   1.572  -0.019  19.226 -0.0820  0.0324  0.0606
12011DPPC   C3A14338   1.632  -0.029  18.721 -0.0836  0.0152  0.0753
12011DPPC   C4A14339   1.687   0.041  18.243  0.2495 -0.0814  0.1358
12011DPPC   C1B14340   0.973  -0.370  19.509  0.0789 -0.0312  0.1977
12011DPPC   C2B14341   0.904  -0.679  19.236 -0.2130  0.6979  0.0193
12011DPPC   C3B14342   0.901  -0.742  18.741 -0.2016  0.0407  0.0411
12011DPPC   C4B14343   0.936  -0.755  18.296  0.0408 -0.0121 -0.1381
12012DPPC   NC314344   1.407   3.517  20.764 -0.1771 -0.2029  0.1765
12012DPPC   PO414345   1.614   3.721  20.526 -0.0880  0.1124  0.1848
12012DPPC   GL114346   1.770   3.471  20.172 -0.3387  0.2307 -0.0733
12012DPPC   GL214347   1.583   3.681  19.986 -0.2987  0.0166  0.0651
12012DPPC   C1A14348   2.031   3.522  19.875  0.2243 -0.0472  0.1648
12012DPPC   C2A14349   2.167   3.591  19.499  0.1972 -0.1569 -0.1382
12012DPPC   C3A14350   2.221   3.643  19.003 -0.2308 -0.2922  0.2094
12012DPPC   C4A14351   2.195   3.641  18.517 -0.0636  0.2407 -0.0267
12012DPPC   C1B14352   1.626   3.750  19.633  0.1507  0.0706 -0.3080
12012DPPC   C2B14353   1.746   3.715  19.251 -0.1779  0.0228  0.2529
12012DPPC   C3B14354   1.766   3.773  18.774 -0.0034  0.0585 -0.1380
12012DPPC   C4B14355   1.725   3.792  18.299 -0.0042 -0.0212 -0.0195
12013DPPC   NC314356   2.375   1.398  20.581  0.2859 -0.0881 -0.0307
12013DPPC   PO414357   2.601   1.392  20.279 -0.0639 -0.2254 -0.1360
12013DPPC   GL114358   2.519   1.411  19.899  0.2837  0.2313  0.3093
12013DPPC   GL214359   2.459   1.115  19.870 -0.3553 -0.0548  0.3824
12013DPPC   C1A14360   2.383   1.604  19.581  0.4987  0.2052 -0.2695
12013DPPC   C2A14361   2.370   1.690  19.202  0.0143  0.1622 -0.2593
12013DPPC   C3A14362   2.376   1.558  18.747 -0.1612 -0.0189 -0.1282
12013DPPC   C4A14363   2.308   1.516  18.261  0.1683 -0.4784 -0.1003
12013DPPC   C1B14364   2.446   1.114  19.513  0.2667  0.2781  0.1560
12013DPPC   C2B14365   2.384   1.149  19.082 -0.1682  0.2900 -0.0857
12013DPPC   C3B14366   2.315   1.028  18.605  0.1297  0.2697  0.1551
12013DPPC   C4B14367   2.351   1.047  18.113  0.2010  0.2042  0.2994
12014DPPC   NC314368  24.765   2.256  20.178  0.1096  0.1293  0.0346
12014DPPC   PO414369  24.988   2.444  20.406 -0.0423  0.1806  0.3079
12014DPPC   GL114370  25.231   2.557  20.128 -0.3097  0.0585  0.0153
12014DPPC   GL214371  25.311   2.279  20.044  0.1594  0.2026 -0.0948
12014DPPC   C1A14372  25.165   2.608  19.757  0.0198  0.1838  0.2825
12014DPPC   C2A14373  25.134   2.566  19.354  0.1276 -0.2356 -0.0366
12014DPPC   C3A14374  25.123   2.652  18.833  0.2494 -0.1869  0.2191
12014DPPC   C4A14375  25.157   2.652  18.299 -0.2849 -0.1688 -0.2739
12014DPPC   C1B14376  25.421   2.168  19.699 -0.0412  0.0576  0.1167
12014DPPC   C2B14377  25.547   2.176  19.324 -0.1332  0.2623 -0.1739
12014DPPC   C3B14378  25.637   2.032  18.966 -0.0095 -0.4006  0.2343
12014DPPC   C4B14379  25.676   1.973  18.486 -0.0766  0.3942 -0.1624
12015DPPC   NC314380  23.190   2.820  20.027 -0.0325 -0.0984  0.1417
12015DPPC   PO414381  23.287   2.483  19.948  0.0243 -0.0239  0.1557
12015DPPC   GL114382  23.388   2.279  19.579 -0.0558 -0.1122  0.0326
12015DPPC   GL214383  23.228   2.072  19.630 -0.1884  0.1980  0.0678
12015DPPC   C1A14384  23.375   2.340  19.223  0.1730  0.1912  0.2940
12015DPPC   C2A14385  23.375   2.343  18.786 -0.1337 -0.1172  0.1651
12015DPPC   C3A14386  23.460   2.407  18.300  0.0479 -0.0198 -0.4867
12015DPPC   C4A14387  23.321   2.231  17.782  0.0277  0.1804  0.0795
12015DPPC   C1B14388  22.948   2.041  19.353  0.0894 -0.0204 -0.3170
12015DPPC   C2B14389  22.991   2.058  18.949  0.0292 -0.0274 -0.0919
12015DPPC   C3B14390  22.957   2.044  18.445 -0.0378 -0.3338  0.1356
12015DPPC   C4B14391  22.906   2.009  17.928  0.0174  0.1409  0.0405
12016DPPC   NC314392   0.644   5.652  20.249 -0.1951  0.1099 -0.1579
12016DPPC   PO414393   0.934   5.365  20.196 -0.2393  0.1694  0.0932
12016DPPC   GL114394   0.889   5.258  19.745  0.1478  0.0218 -0.0751
12016DPPC   GL214395   0.604   5.453  19.777 -0.1288 -0.0148  0.2247
12016DPPC   C1A14396   0.985   5.043  19.429  0.0306 -0.0630  0.2211
12016DPPC   C2A14397   1.131   4.902  19.067 -0.1818 -0.3449 -0.2855
12016DPPC   C3A14398   1.141   4.933  18.599  0.0944 -0.2342 -0.3096
12016DPPC   C4A14399   1.100   4.888  18.110  0.1810  0.0241 -0.0901
12016DPPC   C1B14400   0.605   5.597  19.423  0.1149  0.0028  0.2577
12016DPPC   C2B14401   0.545   5.604  19.031 -0.0552  0.1248  0.2847
12016DPPC   C3B14402   0.479   5.573  18.571 -0.3343 -0.0395 -0.0062
12016DPPC   C4B14403   0.496   5.566  18.108  0.2262 -0.1176 -0.1564
12017DPPC   NC314404  26.026   4.579  20.326 -0.0159 -0.3173 -0.1054
12017DPPC   PO414405  26.162   4.227  20.379 -0.1085  0.2141  0.0015
12017DPPC   GL114406  26.300   4.156  20.037 -0.2234 -0.2289  0.0576
12017DPPC   GL214407  26.447   4.406  19.951  0.2246  0.0558  0.1145
12017DPPC   C1A14408  26.143   3.965  19.712  0.0768 -0.0422  0.0989
12017DPPC   C2A14409  25.964   3.772  19.399 -0.2674 -0.0371 -0.0105
12017DPPC   C3A14410  25.851   3.806  18.922  0.1197 -0.1128  0.0946
12017DPPC   C4A14411  25.968   3.721  18.498  0.1919 -0.2470 -0.1824
12017DPPC   C1B14412  26.645   4.565  19.669  0.1146 -0.1638  0.2560
12017DPPC   C2B14413  26.993   4.621  19.386  0.0450  0.0013 -0.0646
12017DPPC   C3B14414  27.113   4.701  18.978  0.1165  0.0503  0.2578
12017DPPC   C4B14415  27.147   4.646  18.483 -0.0416  0.0090  0.0240
12018DPPC   NC314416   2.586   0.868  20.346  0.1284 -0.1069  0.0461
12018DPPC   PO414417   2.251   0.973  20.246 -0.1060  0.2646  0.1074
12018DPPC   GL114418   2.196   0.806  20.012 -0.2867 -0.1486  0.4742
12018DPPC   GL214419   2.075   0.545  19.998 -0.1975  0.1557 -0.7469
12018DPPC   C1A14420   2.053   0.892  19.672 -0.1708 -0.2000 -0.1024
12018DPPC   C2A14421   1.993   0.793  19.253  0.0758  0.3004 -0.0055
12018DPPC   C3A14422   1.929   0.774  18.777 -0.3407 -0.2226  0.2052
12018DPPC   C4A14423   1.922   0.852  18.340 -0.2156  0.0620 -0.0250
12018DPPC   C1B14424   2.140   0.425  19.668  0.0329  0.2718  0.0213
12018DPPC   C2B14425   2.055   0.284  19.258  0.1713  0.1363 -0.1238
12018DPPC   C3B14426   2.028   0.274  18.782 -0.1730 -0.0880  0.0604
12018DPPC   C4B14427   2.082   0.348  18.244  0.3509 -0.0280 -0.0583
12019DPPC   NC314428  26.015   0.092  20.461  0.0305 -0.2305 -0.2314
12019DPPC   PO414429  25.786   0.042  20.146 -0.1495  0.0753  0.0216
12019DPPC   GL114430  25.639   0.063  19.799 -0.1074 -0.2374  0.1828
12019DPPC   GL214431  25.902   0.088  19.645  0.2360  0.0104  0.1681
12019DPPC   C1A14432  25.353  -0.091  19.636 -0.2446  0.1480  0.2382
12019DPPC   C2A14433  25.143  -0.236  19.277  0.2076 -0.0176 -0.1722
12019DPPC   C3A14434  25.050  -0.156  18.804  0.2324 -0.0044  0.1916
12019DPPC   C4A14435  25.096  -0.211  18.301 -0.3144 -0.1022  0.3707
12019DPPC   C1B14436  25.998  -0.080  19.311  0.1573  0.2866 -0.0020
12019DPPC   C2B14437  25.998  -0.034  18.898 -0.1601 -0.2280 -0.0956
12019DPPC   C3B14438  25.948  -0.023  18.434  0.0366  0.2595 -0.0143
12019DPPC   C4B14439  25.982  -0.044  17.960  0.0336 -0.1218  0.0199
12020DPPC   NC314440  24.084   4.208  20.690  0.1117  0.3703 -0.2973
12020DPPC   PO414441  24.224   3.958  20.420 -0.2952 -0.1377 -0.1113
12020DPPC   GL114442  24.202   4.040  19.969  0.1362  0.0006 -0.1908
12020DPPC   GL214443  23.918   3.902  19.919  0.1760 -0.1782  0.0362
12020DPPC   C1A14444  24.334   4.304  19.738  0.1135  0.1122  0.3497
12020DPPC   C2A14445  24.382   4.344  19.343 -0.0117 -0.2279 -0.0874
12020DPPC   C3A14446  24.458   4.260  18.878  0.1467  0.1432  0.4166
12020DPPC   C4A14447  24.419   4.314  18.434  0.1601  0.1306 -0.0443
12020DPPC   C1B14448  23.953   3.902  19.568  0.0723  0.1723 -0.1125
12020DPPC   C2B14449  24.106   3.971  19.167  0.1162  0.0495  0.0398
12020DPPC   C3B14450  24.064   3.974  18.664 -0.1756 -0.2529 -0.1149
12020DPPC   C4B14451  24.108   3.951  18.128  0.0857 -0.0553 -0.0642
12021DPPC   NC314452   1.833   4.536  20.182 -0.0753  0.0563  0.1802
12021DPPC   PO414453   2.199   4.687  20.191 -0.0870 -0.0414  0.0834
12021DPPC   GL114454   2.292   4.679  19.782  0.2335 -0.3542  0.0831
12021DPPC   GL214455   2.024   4.556  19.708 -0.4090  0.1543 -0.1039
12021DPPC   C1A14456   2.555   4.502  19.596 -0.0195  0.0545  0.4032
12021DPPC   C2A14457   2.567   4.494  19.176  0.3340  0.0581  0.0590
12021DPPC   C3A14458   2.636   4.474  18.688  0.0233 -0.3477 -0.1361
12021DPPC   C4A14459   2.501   4.410  18.229  0.4057 -0.1233  0.3579
12021DPPC   C1B14460   2.026   4.593  19.319 -0.0852  0.1011  0.2035
12021DPPC   C2B14461   2.067   4.546  18.959 -0.0329  0.4589  0.1595
12021DPPC   C3B14462   2.083   4.555  18.496 -0.0498 -0.0627  0.0900
12021DPPC   C4B14463   1.991   4.569  18.038 -0.1040  0.2342 -0.0154
12022DPPC   NC314464  23.650   2.151  20.096 -0.4294  0.1926 -0.1220
12022DPPC   PO414465  24.045   2.080  20.095  0.0637 -0.0339  0.1014
12022DPPC   GL114466  24.101   2.058  19.674 -0.1119 -0.1143  0.5728
12022DPPC   GL214467  23.843   2.141  19.612  0.1888 -0.1397 -0.0294
12022DPPC   C1A14468  24.293   2.064  19.345 -0.1125  0.1394  0.2260
12022DPPC   C2A14469  24.338   1.983  18.926  0.1674 -0.1185  0.0862
12022DPPC   C3A14470  24.349   1.968  18.496  0.1313  0.1851 -0.2968
12022DPPC   C4A14471  24.316   1.964  18.008  0.0305  0.0045 -0.2448
12022DPPC   C1B14472  23.892   2.174  19.246 -0.0845  0.2750  0.1834
12022DPPC   C2B14473  23.884   2.198  18.826 -0.2492  0.0341 -0.1162
12022DPPC   C3B14474  23.889   2.080  18.364  0.0343  0.0123 -0.0945
12022DPPC   C4B14475  23.883   2.183  17.888 -0.0614 -0.0812  0.0753
12023DPPC   NC314476  22.070   6.267  20.224 -0.1946  0.2180  0.0172
12023DPPC   PO414477  21.990   6.357  19.847 -0.2062  0.0421  0.0801
12023DPPC   GL114478  22.087   6.030  19.556 -0.0254  0.2104  0.2490
12023DPPC   GL214479  22.211   6.236  19.432  0.0461  0.2970 -0.0973
12023DPPC   C1A14480  22.080   5.749  19.274 -0.0008  0.0426 -0.4367
12023DPPC   C2A14481  22.187   5.663  18.917  0.1811  0.5321  0.1288
12023DPPC   C3A14482  22.158   5.624  18.444  0.0271  0.0648  0.1005
12023DPPC   C4A14483  22.157   5.579  17.957  0.3367 -0.3627 -0.1747
12023DPPC   C1B14484  22.095   6.182  19.084 -0.3090 -0.0468 -0.0431
12023DPPC   C2B14485  22.058   6.121  18.656  0.0994  0.2118 -0.0386
12023DPPC   C3B14486  22.067   6.114  18.188 -0.0451  0.1923 -0.1668
12023DPPC   C4B14487  21.970   6.145  17.730  0.0985  0.0250 -0.0947
12024DPPC   NC314488  23.998   3.425  20.520 -0.1071 -0.1012 -0.4689
12024DPPC   PO414489  23.663   3.522  20.322 -0.0576 -0.2976 -0.0971
12024DPPC   GL114490  23.592   3.569  19.860  0.0156  0.1418  0.1365
12024DPPC   GL214491  23.468   3.826  19.927 -0.2782 -0.2421 -0.1248
12024DPPC   C1A14492  23.591   3.643  19.502  0.1232 -0.2427  0.1246
12024DPPC   C2A14493  23.705   3.676  19.127  0.0491 -0.0305 -0.0784
12024DPPC   C3A14494  23.664   3.588  18.643 -0.4215 -0.1313 -0.0415
12024DPPC   C4A14495  23.684   3.595  18.142 -0.2588 -0.3744  0.2701
12024DPPC   C1B14496  23.534   4.038  19.651 -0.0144  0.2088 -0.1340
12024DPPC   C2B14497  23.632   4.145  19.298  0.1140 -0.3431 -0.0800
12024DPPC   C3B14498  23.659   4.122  18.850  0.2809 -0.0362  0.0698
12024DPPC   C4B14499  23.682   4.055  18.384 -0.2911  0.0633  0.2505
12025DPPC   NC314500   1.995   2.845  20.450  0.1168  0.0776 -0.4864
12025DPPC   PO414501   2.035   2.582  20.173  0.0295  0.2183 -0.0097
12025DPPC   GL114502   1.997   2.540  19.811 -0.2705 -0.0692 -0.1508
12025DPPC   GL214503   1.835   2.297  19.798  0.0431  0.3093 -0.1311
12025DPPC   C1A14504   2.231   2.618  19.515  0.0379 -0.0682 -0.3397
12025DPPC   C2A14505   2.248   2.634  19.085  0.0855  0.2881  0.1109
12025DPPC   C3A14506   2.234   2.489  18.585  0.2299  0.0459 -0.2666
12025DPPC   C4A14507   2.237   2.541  18.051  0.0719 -0.1242  0.2277
12025DPPC   C1B14508   1.765   2.337  19.442  0.1668  0.0354 -0.1416
12025DPPC   C2B14509   1.825   2.304  19.048  0.1673  0.3371  0.0688
12025DPPC   C3B14510   1.775   2.248  18.551  0.1831 -0.2062 -0.1514
12025DPPC   C4B14511   1.710   2.239  18.093  0.0077 -0.4073 -0.1212
12026DPPC   NC314512   1.814   4.921  19.913  0.2010  0.2118 -0.2987
12026DPPC   PO414513   1.498   5.058  20.099 -0.0667  0.0323  0.0416
12026DPPC   GL114514   1.403   5.036  19.637 -0.0887  0.2139  0.4016
12026DPPC   GL214515   1.382   5.289  19.687  0.1869  0.0395  0.2867
12026DPPC   C1A14516   1.514   5.095  19.243 -0.2614  0.0471  0.0842
12026DPPC   C2A14517   1.499   5.221  18.866 -0.0971 -0.0382 -0.0428
12026DPPC   C3A14518   1.499   5.246  18.380 -0.0582 -0.3092  0.0825
12026DPPC   C4A14519   1.450   5.238  17.874 -0.0895  0.0181 -0.0736
12026DPPC   C1B14520   1.486   5.500  19.419 -0.1492  0.0289  0.3917
12026DPPC   C2B14521   1.381   5.742  19.129 -0.0015 -0.1149  0.1271
12026DPPC   C3B14522   1.410   5.712  18.651  0.1072  0.2258 -0.0730
12026DPPC   C4B14523   1.500   5.715  18.203 -0.1235 -0.4989  0.0938
12027DPPC   NC314524   2.280   3.734  20.257 -0.2641 -0.2122  0.1156
12027DPPC   PO414525   2.137   4.064  20.355  0.0504 -0.1300  0.4019
12027DPPC   GL114526   2.248   4.294  19.955  0.1068  0.0734 -0.1981
12027DPPC   GL214527   2.526   4.208  20.078  0.0703 -0.1065 -0.0090
12027DPPC   C1A14528   2.229   4.201  19.598  0.1224 -0.2592 -0.1847
12027DPPC   C2A14529   2.128   4.062  19.239 -0.1760 -0.0004  0.0860
12027DPPC   C3A14530   2.214   4.087  18.746  0.2623 -0.0242 -0.0692
12027DPPC   C4A14531   2.118   4.115  18.265 -0.0324  0.0632 -0.0288
12027DPPC   C1B14532   2.774   4.182  19.806 -0.2701  0.0029  0.1126
12027DPPC   C2B14533   2.951   4.307  19.457  0.1333  0.0969  0.1576
12027DPPC   C3B14534   3.056   4.264  18.986  0.1386  0.0964  0.0216
12027DPPC   C4B14535   3.089   4.231  18.499  0.0298  0.0664 -0.1885
12028DPPC   NC314536   0.142   1.832  20.254 -0.2734 -0.1875  0.2760
12028DPPC   PO414537   0.075   2.226  20.275 -0.0566 -0.1950 -0.0347
12028DPPC   GL114538  -0.048   2.356  19.948  0.0404 -0.2203  0.2860
12028DPPC   GL214539  -0.255   2.580  19.950 -0.1284 -0.3957  0.4902
12028DPPC   C1A14540  -0.170   2.345  19.616 -0.0019  0.2439 -0.2631
12028DPPC   C2A14541  -0.420   2.348  19.281 -0.1166 -0.0201 -0.0376
12028DPPC   C3A14542  -0.377   2.350  18.787 -0.1062  0.0642  0.0483
12028DPPC   C4A14543  -0.388   2.245  18.280  0.0720  0.2394  0.0487
12028DPPC   C1B14544  -0.359   2.730  19.621  0.1691  0.1114 -0.2604
12028DPPC   C2B14545  -0.414   2.852  19.250 -0.3220  0.0410  0.2114
12028DPPC   C3B14546  -0.419   2.811  18.842  0.1593 -0.0588  0.0893
12028DPPC   C4B14547  -0.415   2.794  18.353 -0.0827 -0.2114 -0.1476
12029DPPC   NC314548  23.114   1.062  20.307 -0.0709 -0.1279 -0.0654
12029DPPC   PO414549  22.874   1.272  20.051  0.0356  0.0572  0.4562
12029DPPC   GL114550  22.841   1.204  19.624  0.0290 -0.1766  0.3579
12029DPPC   GL214551  22.875   0.930  19.560 -0.4396  0.0014  0.0062
12029DPPC   C1A14552  22.730   1.305  19.311 -0.2404 -0.4125  0.1717
12029DPPC   C2A14553  22.745   1.260  18.923  0.1660  0.2116 -0.0875
12029DPPC   C3A14554  22.725   1.256  18.412  0.0587 -0.0834  0.0256
12029DPPC   C4A14555  22.695   1.186  17.964  0.0869  0.0866  0.1998
12029DPPC   C1B14556  22.761   0.828  19.230  0.1686  0.1895 -0.0429
12029DPPC   C2B14557  22.797   0.767  18.793 -0.1850 -0.0248 -0.1432
12029DPPC   C3B14558  22.728   0.705  18.292  0.3607  0.0652  0.0532
12029DPPC   C4B14559  22.850   0.671  17.878 -0.0827 -0.1918 -0.0271
12030DPPC   NC314560  25.157   5.613  19.926  0.1486 -0.0833  0.2207
12030DPPC   PO414561  25.371   5.370  20.083 -0.0102  0.4059  0.3180
12030DPPC   GL114562  25.433   5.135  19.765 -0.1019 -0.0428 -0.1023
12030DPPC   GL214563  25.596   4.950  19.772 -0.1218 -0.2408 -0.3227
12030DPPC   C1A14564  25.558   5.207  19.418 -0.2872 -0.1628  0.3727
12030DPPC   C2A14565  25.551   5.223  18.969  0.5833 -0.1245  0.1786
12030DPPC   C3A14566  25.635   5.272  18.460  0.0266 -0.0106 -0.0309
12030DPPC   C4A14567  25.673   5.252  17.957  0.4309 -0.2700 -0.0407
12030DPPC   C1B14568  25.669   4.771  19.456 -0.0544 -0.0367 -0.1131
12030DPPC   C2B14569  25.682   4.729  19.054  0.0118  0.0939 -0.0718
12030DPPC   C3B14570  25.657   4.761  18.581  0.1662 -0.2052 -0.0411
12030DPPC   C4B14571  25.716   4.766  18.087 -0.2008 -0.2436 -0.1128
12031DPPC   NC314572  25.781   5.594  20.363 -0.0451  0.3010 -0.3334
12031DPPC   PO414573  26.085   5.799  20.152  0.0426  0.0790  0.1394
12031DPPC   GL114574  26.036   5.830  19.746  0.1045 -0.1545 -0.2204
12031DPPC   GL214575  26.182   5.519  19.741  0.0454  0.3242  0.3894
12031DPPC   C1A14576  26.032   5.998  19.413 -0.0199 -0.2434  0.1336
12031DPPC   C2A14577  26.138   6.082  18.967  0.1246  0.3717  0.1817
12031DPPC   C3A14578  26.107   6.051  18.459  0.4813 -0.0006  0.1007
12031DPPC   C4A14579  26.016   5.996  18.009 -0.1754 -0.1996 -0.2225
12031DPPC   C1B14580  26.159   5.535  19.360  0.0613  0.1586 -0.0186
12031DPPC   C2B14581  26.125   5.577  18.923 -0.1596  0.1511 -0.1171
12031DPPC   C3B14582  26.112   5.532  18.475  0.0216  0.1577  0.3461
12031DPPC   C4B14583  26.147   5.496  17.990 -0.3340 -0.3067  0.0562
12032DPPC   NC314584  22.885   3.372  20.524  0.0011 -0.2211 -0.0171
12032DPPC   PO414585  23.179   3.124  20.427 -0.0926  0.1388  0.3284
12032DPPC   GL114586  23.416   3.218  20.000 -0.0501 -0.1640  0.0492
12032DPPC   GL214587  23.223   3.354  19.848  0.0601  0.0826 -0.0002
12032DPPC   C1A14588  23.547   2.962  19.755 -0.0571  0.0261 -0.0999
12032DPPC   C2A14589  23.332   2.858  19.360 -0.2065  0.3473 -0.1959
12032DPPC   C3A14590  23.312   2.828  18.883 -0.1133  0.0944 -0.3472
12032DPPC   C4A14591  23.280   2.844  18.384 -0.2574  0.2012  0.1658
12032DPPC   C1B14592  23.248   3.310  19.495  0.0228  0.0711 -0.0014
12032DPPC   C2B14593  23.277   3.379  19.113  0.2636  0.1053 -0.0776
12032DPPC   C3B14594  23.307   3.292  18.617 -0.0418 -0.1057 -0.2116
12032DPPC   C4B14595  23.285   3.335  18.131 -0.2583 -0.3287  0.0677
12033DPPC   NC314596   1.335   3.433  20.258 -0.1527  0.2155 -0.0358
12033DPPC   PO414597   1.244   3.057  20.228  0.0567  0.0669 -0.2380
12033DPPC   GL114598   1.297   2.978  19.823  0.1559 -0.3999 -0.1342
12033DPPC   GL214599   1.292   3.264  19.822 -0.0651  0.0320  0.0734
12033DPPC   C1A14600   1.318   2.909  19.454  0.2131 -0.1426  0.0246
12033DPPC   C2A14601   1.349   2.961  19.041  0.0881  0.0945 -0.1515
12033DPPC   C3A14602   1.354   2.966  18.527  0.1374  0.1259 -0.0129
12033DPPC   C4A14603   1.246   2.955  18.008 -0.2910  0.4219 -0.1016
12033DPPC   C1B14604   1.283   3.421  19.520  0.0741 -0.0414  0.0303
12033DPPC   C2B14605   1.308   3.531  19.137 -0.0485 -0.1371  0.1103
12033DPPC   C3B14606   1.389   3.478  18.678 -0.1788 -0.0347 -0.1556
12033DPPC   C4B14607   1.320   3.476  18.234 -0.3634  0.2027  0.0243
12034DPPC   NC314608  25.235   6.536  20.111 -0.1162  0.0547  0.0771
12034DPPC   PO414609  25.259   6.182  20.270 -0.1574 -0.1999 -0.0705
12034DPPC   GL114610  25.041   6.062  19.963  0.3141 -0.1493 -0.4749
12034DPPC   GL214611  25.279   6.033  19.746  0.2111  0.1348  0.1527
12034DPPC   C1A14612  24.926   6.334  19.746 -0.1429  0.0906  0.0934
12034DPPC   C2A14613  24.668   6.613  19.469 -0.1494  0.0176 -0.0779
12034DPPC   C3A14614  24.639   6.615  18.975  0.2183 -0.0270  0.0735
12034DPPC   C4A14615  24.640   6.604  18.456 -0.1358  0.0732 -0.1023
12034DPPC   C1B14616  25.164   5.933  19.422  0.2409  0.0105  0.0231
12034DPPC   C2B14617  25.217   5.951  19.023  0.3017  0.1222 -0.0096
12034DPPC   C3B14618  25.197   5.906  18.533 -0.1949 -0.0039  0.2254
12034DPPC   C4B14619  25.127   5.888  18.030 -0.2703  0.0960  0.4713
12035DPPC   NC314620   1.585   4.252  20.498  0.0886 -0.3457 -0.0599
12035DPPC   PO414621   1.592   4.065  20.159 -0.0887  0.1237  0.2234
12035DPPC   GL114622   1.816   4.223  19.853 -0.1184  0.2688 -0.2232
12035DPPC   GL214623   2.016   3.937  19.896 -0.0503  0.0831 -0.2562
12035DPPC   C1A14624   1.693   4.224  19.500 -0.0271  0.1446 -0.0742
12035DPPC   C2A14625   1.701   4.221  19.062 -0.0622  0.1653 -0.2536
12035DPPC   C3A14626   1.712   4.264  18.584  0.0673 -0.0920  0.0070
12035DPPC   C4A14627   1.661   4.209  18.073 -0.4576  0.1702  0.0331
12035DPPC   C1B14628   2.409   3.898  19.828 -0.1554 -0.2305  0.0498
12035DPPC   C2B14629   2.536   3.898  19.436  0.0422 -0.2080  0.2066
12035DPPC   C3B14630   2.646   3.933  18.999  0.2087 -0.1546  0.3810
12035DPPC   C4B14631   2.630   3.987  18.474 -0.1122  0.2190  0.1035
12036DPPC   NC314632  25.476   2.168  20.448 -0.1536  0.3262 -0.2202
12036DPPC   PO414633  25.194   1.911  20.301  0.0937  0.0783 -0.0121
12036DPPC   GL114634  25.099   1.937  19.832  0.4695 -0.2956 -0.1920
12036DPPC   GL214635  24.922   1.713  19.848  0.4386  0.0858  0.0257
12036DPPC   C1A14636  25.077   2.111  19.459  0.0927 -0.1356  0.1810
12036DPPC   C2A14637  25.139   2.198  19.001 -0.0967 -0.2542 -0.3851
12036DPPC   C3A14638  25.170   2.224  18.534  0.0138  0.1445 -0.1859
12036DPPC   C4A14639  25.144   2.181  18.041 -0.0620 -0.2539 -0.3238
12036DPPC   C1B14640  24.760   1.798  19.567  0.1105  0.1330 -0.2690
12036DPPC   C2B14641  24.808   1.867  19.140 -0.1078 -0.0678 -0.0271
12036DPPC   C3B14642  24.818   1.809  18.669  0.0398  0.0019  0.0710
12036DPPC   C4B14643  24.739   1.775  18.144 -0.0255 -0.0561 -0.1631
12037DPPC   NC314644  22.683   6.600  20.621 -0.1905  0.0201 -0.1472
12037DPPC   PO414645  22.518   6.527  20.274  0.2081 -0.1355  0.3393
12037DPPC   GL114646  22.575   6.689  19.856  0.3750  0.0042 -0.0527
12037DPPC   GL214647  22.468   6.432  19.760 -0.1647  0.0666 -0.2028
12037DPPC   C1A14648  22.709   6.763  19.515  0.5019 -0.1782 -0.1580
12037DPPC   C2A14649  22.824   6.849  19.113 -0.2710 -0.0005 -0.0897
12037DPPC   C3A14650  22.856   6.840  18.637 -0.1360 -0.0915 -0.0250
12037DPPC   C4A14651  22.904   6.882  18.170 -0.3685  0.1862 -0.2573
12037DPPC   C1B14652  22.664   6.327  19.464 -0.0293 -0.4143  0.0958
12037DPPC   C2B14653  22.843   6.343  19.071 -0.0187 -0.0030 -0.1706
12037DPPC   C3B14654  22.927   6.337  18.600 -0.2431 -0.1085  0.2195
12037DPPC   C4B14655  23.010   6.374  18.095 -0.0772  0.1931 -0.0178
12038DPPC   NC314656   0.151   6.383  20.399  0.2086 -0.2530 -0.0923
12038DPPC   PO414657  -0.189   6.246  20.282  0.0824 -0.0408 -0.2204
12038DPPC   GL114658  -0.299   6.347  19.903  0.3957  0.3835  0.1779
12038DPPC   GL214659  -0.590   6.223  19.912 -0.5016 -0.1290 -0.0477
12038DPPC   C1A14660  -0.146   6.280  19.542  0.0904 -0.0631 -0.1139
12038DPPC   C2A14661   0.095   6.303  19.197 -0.3005  0.0301  0.1312
12038DPPC   C3A14662   0.027   6.349  18.692  0.1707 -0.2815  0.1091
12038DPPC   C4A14663  -0.024   6.357  18.206  0.0220 -0.1874 -0.1377
12038DPPC   C1B14664  -0.744   6.191  19.592 -0.0729 -0.2236  0.0537
12038DPPC   C2B14665  -0.767   6.198  19.171 -0.1119  0.1794 -0.0464
12038DPPC   C3B14666  -0.789   6.239  18.705  0.0418 -0.0753 -0.0284
12038DPPC   C4B14667  -0.832   6.239  18.240 -0.1043 -0.0640  0.3729
12039DPPC   NC314668   1.940   6.138  20.240 -0.2158 -0.0128 -0.1355
12039DPPC   PO414669   1.627   6.063  19.995 -0.0943  0.1110 -0.4034
12039DPPC   GL114670   1.735   6.149  19.639 -0.1224 -0.1471 -0.1988
12039DPPC   GL214671   1.854   6.424  19.640 -0.0267  0.3522 -0.0830
12039DPPC   C1A14672   1.791   6.152  19.294 -0.1112 -0.1707 -0.2868
12039DPPC   C2A14673   1.738   6.113  18.887  0.0194  0.0342  0.0712
12039DPPC   C3A14674   1.716   6.096  18.430  0.0574 -0.0743  0.1155
12039DPPC   C4A14675   1.763   6.019  17.892  0.1119 -0.1507 -0.2407
12039DPPC   C1B14676   2.163   6.392  19.385  0.3695 -0.3098  0.1429
12039DPPC   C2B14677   2.133   6.421  18.949  0.2637 -0.2080 -0.1329
12039DPPC   C3B14678   2.117   6.442  18.520  0.0551 -0.1436 -0.0346
12039DPPC   C4B14679   2.087   6.521  18.006 -0.1949  0.1766 -0.1561
12040DPPC   NC314680   0.172   0.851  20.260  0.0815  0.0399 -0.0229
12040DPPC   PO414681   0.204   0.595  19.991  0.0614 -0.2031  0.0460
12040DPPC   GL114682   0.272   0.532  19.613 -0.2620 -0.2997 -0.0115
12040DPPC   GL214683   0.361   0.263  19.656 -0.1500 -0.2193 -0.0822
12040DPPC   C1A14684   0.273   0.632  19.276 -0.2061  0.2197 -0.2080
12040DPPC   C2A14685   0.320   0.563  18.874  0.0153  0.2906 -0.0224
12040DPPC   C3A14686   0.325   0.518  18.405 -0.0635  0.0701  0.0052
12040DPPC   C4A14687   0.323   0.460  17.908 -0.2077  0.0083 -0.1016
12040DPPC   C1B14688   0.391   0.084  19.358  0.1267 -0.0901 -0.1129
12040DPPC   C2B14689   0.348   0.013  18.934  0.0940 -0.0584 -0.0429
12040DPPC   C3B14690   0.360   0.010  18.440 -0.0350 -0.0966  0.3428
12040DPPC   C4B14691   0.428  -0.076  17.968  0.0521  0.0340  0.1744
12041DPPC   NC314692  22.323   5.667  20.361  0.1085 -0.2290  0.0185
12041DPPC   PO414693  22.086   5.423  20.143  0.1253 -0.1315  0.0260
12041DPPC   GL114694  22.165   5.371  19.802 -0.1728  0.2257  0.2694
12041DPPC   GL214695  22.275   5.638  19.702  0.4130 -0.0046 -0.0710
12041DPPC   C1A14696  22.214   5.192  19.489  0.0403  0.1384 -0.0290
12041DPPC   C2A14697  22.265   5.124  19.076 -0.2894  0.1639 -0.0358
12041DPPC   C3A14698  22.304   5.078  18.608 -0.1038 -0.1594 -0.2960
12041DPPC   C4A14699  22.158   5.015  18.133 -0.2918 -0.2136 -0.2695
12041DPPC   C1B14700  22.446   5.810  19.416  0.0339 -0.0953 -0.0360
12041DPPC   C2B14701  22.543   5.957  19.078 -0.1682 -0.1828  0.2006
12041DPPC   C3B14702  22.531   5.972  18.548 -0.0809  0.0799  0.1194
12041DPPC   C4B14703  22.505   5.869  18.073  0.0440 -0.0872 -0.5252
12042DPPC   NC314704   1.785   0.879  20.575 -0.3331 -0.0192 -0.1447
12042DPPC   PO414705   1.412   0.813  20.438  0.1097 -0.0023 -0.0589
12042DPPC   GL114706   1.451   0.534  20.034 -0.2950 -0.1906 -0.1750
12042DPPC   GL214707   1.355   0.820  19.986  0.0186 -0.3491 -0.2132
12042DPPC   C1A14708   1.268   0.351  19.781  0.2228 -0.2198  0.1019
12042DPPC   C2A14709   1.223   0.257  19.377 -0.2886  0.0862 -0.0307
12042DPPC   C3A14710   1.195   0.140  18.891 -0.1013  0.0152  0.2758
12042DPPC   C4A14711   1.211   0.134  18.432  0.2710  0.2259 -0.0507
12042DPPC   C1B14712   1.064   0.863  19.701  0.0360  0.1233 -0.1539
12042DPPC   C2B14713   1.102   0.734  19.325  0.0263  0.0494 -0.1559
12042DPPC   C3B14714   1.132   0.695  18.843  0.2510  0.1028 -0.2850
12042DPPC   C4B14715   1.125   0.671  18.366 -0.0986 -0.1798 -0.0002
12043DPPC   NC314716  24.563   3.198  20.229  0.0873 -0.1504 -0.0037
12043DPPC   PO414717  24.234   3.019  20.282  0.1020  0.0938  0.1180
12043DPPC   GL114718  23.902   3.147  19.991  0.1522 -0.2090  0.1497
12043DPPC   GL214719  23.951   2.916  19.959  0.1463  0.2063 -0.0870
12043DPPC   C1A14720  23.839   3.276  19.666 -0.0344  0.0716  0.0005
12043DPPC   C2A14721  23.718   3.191  19.345 -0.3673  0.0992  0.0953
12043DPPC   C3A14722  23.710   3.133  18.863  0.2499 -0.0404  0.1570
12043DPPC   C4A14723  23.783   3.176  18.382  0.0020 -0.0102  0.0214
12043DPPC   C1B14724  23.989   2.855  19.566  0.0765  0.2923 -0.1465
12043DPPC   C2B14725  24.212   2.994  19.240 -0.1056 -0.1632  0.1513
12043DPPC   C3B14726  24.239   2.955  18.787  0.0850  0.2064 -0.2844
12043DPPC   C4B14727  24.280   3.044  18.309 -0.0382 -0.0549  0.1178
12044DPPC   NC314728  25.709   4.068  20.452  0.1397 -0.1260 -0.0015
12044DPPC   PO414729  25.562   4.404  20.238 -0.1636  0.1640  0.2657
12044DPPC   GL114730  25.547   4.544  19.784  0.1455 -0.3799 -0.0348
12044DPPC   GL214731  25.814   4.639  19.907 -0.0341 -0.1719 -0.0808
12044DPPC   C1A14732  25.435   4.400  19.463  0.0861  0.2356  0.0467
12044DPPC   C2A14733  25.306   4.413  19.070  0.0265 -0.1739  0.3364
12044DPPC   C3A14734  25.316   4.427  18.555  0.1040 -0.2498  0.2520
12044DPPC   C4A14735  25.306   4.444  18.102 -0.0025 -0.0975  0.1303
12044DPPC   C1B14736  26.059   4.473  19.722 -0.2242 -0.0112 -0.0440
12044DPPC   C2B14737  26.221   4.445  19.341 -0.1657 -0.0814  0.2460
12044DPPC   C3B14738  26.186   4.558  18.871 -0.2528  0.1129 -0.0525
12044DPPC   C4B14739  26.092   4.598  18.382 -0.1398  0.0395  0.1636
12045DPPC   NC314740   0.019   5.976  19.839 -0.0921  0.1653 -0.1454
12045DPPC   PO414741   0.235   5.673  19.927  0.0491  0.1599  0.1780
12045DPPC   GL114742   0.128   5.604  19.558  0.1125 -0.0047 -0.0297
12045DPPC   GL214743   0.222   5.822  19.408 -0.0190 -0.0657  0.1345
12045DPPC   C1A14744   0.218   5.424  19.254  0.0567 -0.2455 -0.5331
12045DPPC   C2A14745   0.164   5.253  18.863  0.1234 -0.1169  0.2145
12045DPPC   C3A14746   0.134   5.295  18.398  0.0496  0.0984 -0.2194
12045DPPC   C4A14747   0.184   5.188  17.878  0.0435 -0.1661 -0.4109
12045DPPC   C1B14748   0.083   5.858  19.137  0.2394  0.2254  0.0801
12045DPPC   C2B14749   0.080   5.865  18.722 -0.4640  0.0490 -0.1281
12045DPPC   C3B14750   0.049   5.811  18.222 -0.0655 -0.0872 -0.0061
12045DPPC   C4B14751   0.132   5.696  17.782 -0.0918 -0.0885  0.1462
12046DPPC   NC314752   0.717   5.913  19.767 -0.1946 -0.2209  0.0853
12046DPPC   PO414753   0.532   6.149  20.018  0.0905 -0.0514 -0.1347
12046DPPC   GL114754   0.526   6.393  19.746  0.2285 -0.0323  0.0424
12046DPPC   GL214755   0.169   6.417  19.843 -0.3185 -0.1458  0.3184
12046DPPC   C1A14756   0.497   6.190  19.423  0.0813  0.0293 -0.1794
12046DPPC   C2A14757   0.504   6.073  19.020 -0.1265 -0.0700  0.0272
12046DPPC   C3A14758   0.437   6.089  18.502  0.0186  0.0569 -0.1082
12046DPPC   C4A14759   0.461   6.036  18.051 -0.0836 -0.1207  0.1869
12046DPPC   C1B14760  -0.004   6.652  19.589  0.0455 -0.0746 -0.0506
12046DPPC   C2B14761  -0.048   6.799  19.181 -0.0644 -0.1552 -0.0271
12046DPPC   C3B14762  -0.039   6.890  18.728  0.0853 -0.4012 -0.0802
12046DPPC   C4B14763  -0.018   6.822  18.222  0.1019 -0.0412  0.2695
12047DPPC   NC314764  24.307   6.419  20.088  0.2611  0.2715 -0.1604
12047DPPC   PO414765  24.403   6.090  20.322  0.2030 -0.0681  0.0312
12047DPPC   GL114766  24.324   5.876  19.977  0.0585 -0.1014  0.1750
12047DPPC   GL214767  24.515   6.068  19.810 -0.0292  0.1925  0.3485
12047DPPC   C1A14768  24.037   5.750  19.771 -0.1672  0.0749 -0.1864
12047DPPC   C2A14769  23.857   5.562  19.439 -0.1676 -0.2495 -0.1683
12047DPPC   C3A14770  23.935   5.525  18.996  0.1232  0.0675  0.1508
12047DPPC   C4A14771  23.934   5.428  18.483 -0.3325  0.2775 -0.3471
12047DPPC   C1B14772  24.631   6.039  19.446  0.1861 -0.2391  0.2145
12047DPPC   C2B14773  24.726   6.161  19.035  0.1871  0.2054 -0.0959
12047DPPC   C3B14774  24.716   6.134  18.572 -0.2200 -0.2918  0.1939
12047DPPC   C4B14775  24.675   6.021  18.134 -0.0039 -0.1015  0.1031
12048DPPC   NC314776   0.735   4.011  19.877  0.2885 -0.0321  0.0197
12048DPPC   PO414777   0.391   4.131  20.060 -0.1769  0.1875 -0.1777
12048DPPC   GL114778   0.152   4.068  19.708  0.4901 -0.0685 -0.1108
12048DPPC   GL214779   0.412   4.173  19.570  0.2971 -0.2142 -0.3477
12048DPPC   C1A14780  -0.031   3.933  19.354 -0.1728 -0.5891 -0.3060
12048DPPC   C2A14781  -0.139   4.079  18.993  0.2276 -0.3379 -0.0036
12048DPPC   C3A14782  -0.075   4.119  18.588 -0.0754 -0.2959  0.1371
12048DPPC   C4A14783  -0.114   4.053  18.086 -0.0448 -0.0031  0.0355
12048DPPC   C1B14784   0.308   4.215  19.233  0.0767 -0.1797  0.0974
12048DPPC   C2B14785   0.410   4.309  18.811  0.0900 -0.0704 -0.1044
12048DPPC   C3B14786   0.329   4.268  18.355  0.0496 -0.0069  0.3606
12048DPPC   C4B14787   0.292   4.333  17.830 -0.1405  0.1980 -0.2041
12049DPPC   NC314788  25.334   4.860  20.177  0.0502 -0.2162  0.0831
12049DPPC   PO414789  25.735   5.000  20.227 -0.1810  0.0092 -0.0091
12049DPPC   GL114790  25.916   5.145  19.931  0.0758  0.1456 -0.0595
12049DPPC   GL214791  25.806   5.426  19.958 -0.1126 -0.0305  0.1967
12049DPPC   C1A14792  25.968   5.121  19.595  0.1340  0.0585  0.1993
12049DPPC   C2A14793  26.070   5.053  19.175 -0.1247 -0.2192 -0.2258
12049DPPC   C3A14794  26.170   5.042  18.718 -0.1183 -0.0472 -0.0378
12049DPPC   C4A14795  26.112   5.083  18.270  0.0018 -0.0473  0.0452
12049DPPC   C1B14796  25.730   5.551  19.604 -0.0017 -0.0539 -0.4190
12049DPPC   C2B14797  25.636   5.687  19.203  0.0490 -0.1805 -0.1410
12049DPPC   C3B14798  25.666   5.671  18.762 -0.0789 -0.1528  0.1376
12049DPPC   C4B14799  25.648   5.708  18.316  0.1229 -0.1073  0.5140
12050DPPC   NC314800  24.777   4.056  20.395  0.0019  0.2836 -0.1079
12050DPPC   PO414801  25.109   4.082  20.236 -0.1802  0.1796  0.1439
12050DPPC   GL114802  25.186   4.225  19.817 -0.3648 -0.4499  0.1516
12050DPPC   GL214803  25.114   4.512  19.945  0.3529  0.1304  0.1984
12050DPPC   C1A14804  25.050   4.122  19.437  0.0356 -0.1333  0.2431
12050DPPC   C2A14805  24.900   4.094  19.020  0.1939 -0.2970 -0.3380
12050DPPC   C3A14806  24.907   4.111  18.553  0.0459  0.2194 -0.1574
12050DPPC   C4A14807  24.857   4.090  18.094 -0.0737 -0.1212 -0.3104
12050DPPC   C1B14808  25.151   4.728  19.635 -0.0663  0.1492 -0.2246
12050DPPC   C2B14809  25.163   4.904  19.260 -0.3980 -0.0344  0.2156
12050DPPC   C3B14810  25.218   4.887  18.779  0.0100  0.0575 -0.1281
12050DPPC   C4B14811  25.278   4.869  18.324  0.0761 -0.0939  0.3641
12051DPPC   NC314812  24.135   6.264  20.768  0.0792 -0.0205 -0.2853
12051DPPC   PO414813  23.932   6.015  20.474 -0.0609  0.2384  0.0457
12051DPPC   GL114814  23.962   6.072  20.028  0.0544  0.2825  0.1994
12051DPPC   GL214815  23.713   6.062  19.945 -0.0601 -0.3830 -0.3465
12051DPPC   C1A14816  24.130   6.190  19.661  0.0721 -0.2013 -0.0288
12051DPPC   C2A14817  24.256   6.291  19.303 -0.1171 -0.2744 -0.0861
12051DPPC   C3A14818  24.237   6.338  18.868  0.0668  0.0991  0.2001
12051DPPC   C4A14819  24.228   6.294  18.364 -0.0616  0.2531 -0.3169
12051DPPC   C1B14820  23.751   5.996  19.588  0.0940 -0.1257  0.0685
12051DPPC   C2B14821  23.838   6.006  19.221 -0.1435  0.1212  0.1365
12051DPPC   C3B14822  23.852   5.946  18.735  0.0081 -0.3089  0.1240
12051DPPC   C4B14823  23.851   5.861  18.231  0.0039 -0.1183 -0.0462
12052DPPC   NC314824   1.013   1.065  20.178 -0.1050  0.1239  0.0726
12052DPPC   PO414825   0.655   0.904  20.069  0.0131 -0.0780  0.0148
12052DPPC   GL114826   0.462   0.922  19.812 -0.3741 -0.3021 -0.2187
12052DPPC   GL214827   0.190   1.015  19.806  0.3734 -0.0568 -0.0723
12052DPPC   C1A14828   0.537   0.902  19.469  0.0748 -0.2970 -0.2723
12052DPPC   C2A14829   0.647   0.868  19.061  0.1220  0.4158  0.0478
12052DPPC   C3A14830   0.680   0.818  18.625  0.3079  0.2442 -0.1878
12052DPPC   C4A14831   0.642   0.788  18.106 -0.2379  0.0492 -0.0013
12052DPPC   C1B14832   0.053   1.085  19.474 -0.1730 -0.1116  0.1240
12052DPPC   C2B14833   0.169   1.134  19.033  0.2067 -0.0690  0.0624
12052DPPC   C3B14834   0.223   1.040  18.574  0.3701  0.2616  0.0232
12052DPPC   C4B14835   0.172   0.974  18.058  0.0868  0.2590 -0.0674
12053DPPC   NC314836   0.641   0.498  20.372 -0.4751  0.0480  0.0057
12053DPPC   PO414837   1.005   0.560  20.225 -0.0954  0.0098  0.1827
12053DPPC   GL114838   0.897   0.458  19.844 -0.1001  0.1384  0.1970
12053DPPC   GL214839   0.846   0.198  19.827  0.0575 -0.3038  0.1816
12053DPPC   C1A14840   0.675   0.476  19.544 -0.2602  0.2825 -0.0848
12053DPPC   C2A14841   0.701   0.423  19.148 -0.0237  0.0448  0.1680
12053DPPC   C3A14842   0.730   0.337  18.690  0.0750 -0.1980  0.0313
12053DPPC   C4A14843   0.769   0.306  18.224 -0.0648 -0.0272  0.2523
12053DPPC   C1B14844   0.761  -0.001  19.511 -0.1179  0.0871 -0.1652
12053DPPC   C2B14845   0.791  -0.143  19.139  0.0774  0.0854  0.0076
12053DPPC   C3B14846   0.800  -0.176  18.687 -0.0342 -0.1084  0.0690
12053DPPC   C4B14847   0.853  -0.253  18.239 -0.4537 -0.1372 -0.4013
12054DPPC   NC314848  23.369   4.554  20.339  0.0594  0.0560 -0.2182
12054DPPC   PO414849  23.700   4.779  20.431 -0.0579 -0.1363  0.0705
12054DPPC   GL114850  23.719   4.696  19.964  0.0150 -0.4837 -0.1892
12054DPPC   GL214851  23.857   4.436  19.878  0.2879  0.3074  0.5227
12054DPPC   C1A14852  23.836   4.875  19.650  0.1851 -0.0685  0.0833
12054DPPC   C2A14853  23.929   5.031  19.273 -0.1100 -0.2645  0.0373
12054DPPC   C3A14854  23.969   5.003  18.814  0.1879 -0.0770 -0.1983
12054DPPC   C4A14855  23.966   4.946  18.347 -0.1886  0.0112  0.1070
12054DPPC   C1B14856  23.968   4.457  19.533  0.4083 -0.2363  0.0064
12054DPPC   C2B14857  24.005   4.513  19.091 -0.2712  0.2859  0.2074
12054DPPC   C3B14858  23.969   4.493  18.603  0.0232  0.1344  0.1550
12054DPPC   C4B14859  23.958   4.457  18.127  0.2915  0.2187 -0.0339
12055DPPC   NC314860   0.251   1.777  20.758  0.0539 -0.0285  0.0088
12055DPPC   PO414861   0.576   1.700  20.577  0.1448  0.0249  0.1947
12055DPPC   GL114862   0.580   1.690  20.132 -0.4121 -0.0454 -0.1974
12055DPPC   GL214863   0.776   1.484  20.075 -0.2455  0.0432 -0.4645
12055DPPC   C1A14864   0.484   1.824  19.778  0.0291 -0.0198  0.2880
12055DPPC   C2A14865   0.534   1.881  19.385 -0.2600 -0.0808  0.1468
12055DPPC   C3A14866   0.584   1.877  18.828  0.1666  0.0526  0.0030
12055DPPC   C4A14867   0.553   1.792  18.340  0.1179  0.2455 -0.0805
12055DPPC   C1B14868   0.927   1.365  19.791  0.0671 -0.0957 -0.1613
12055DPPC   C2B14869   1.142   1.276  19.466 -0.0736 -0.2869 -0.1642
12055DPPC   C3B14870   1.114   1.184  18.992 -0.1945  0.0271  0.1418
12055DPPC   C4B14871   1.081   1.224  18.465 -0.0089  0.3705  0.0216
12056DPPC   NC314872  25.422   2.696  20.546  0.5995 -0.3486  0.0611
12056DPPC   PO414873  25.684   2.617  20.280  0.1979  0.0983 -0.1165
12056DPPC   GL114874  25.575   2.560  19.862 -0.0060  0.1541  0.1566
12056DPPC   GL214875  25.788   2.326  19.892 -0.2130  0.3297  0.0873
12056DPPC   C1A14876  25.593   2.636  19.504  0.3801 -0.0761  0.2991
12056DPPC   C2A14877  25.584   2.566  19.070 -0.0044  0.2789 -0.1235
12056DPPC   C3A14878  25.603   2.480  18.606  0.1235  0.2608  0.2259
12056DPPC   C4A14879  25.648   2.458  18.082  0.1135 -0.0518  0.2089
12056DPPC   C1B14880  25.832   2.029  19.705 -0.1527 -0.0153 -0.4055
12056DPPC   C2B14881  25.748   1.741  19.462 -0.1301 -0.1187 -0.1506
12056DPPC   C3B14882  25.700   1.576  18.951  0.2145 -0.0161 -0.1115
12056DPPC   C4B14883  25.667   1.437  18.500 -0.0071 -0.0022 -0.1370
12057DPPC   NC314884   0.257   4.509  20.359  0.3244  0.1852  0.1812
12057DPPC   PO414885   0.086   4.818  20.101 -0.1328 -0.4560 -0.1056
12057DPPC   GL114886   0.225   5.107  19.830  0.4394  0.0008 -0.5028
12057DPPC   GL214887  -0.049   5.136  19.704  0.2860 -0.0568 -0.1377
12057DPPC   C1A14888   0.464   5.028  19.561 -0.2209 -0.3865  0.2066
12057DPPC   C2A14889   0.541   5.124  19.176 -0.0645  0.2857 -0.0099
12057DPPC   C3A14890   0.621   5.134  18.683 -0.1109  0.3644  0.0775
12057DPPC   C4A14891   0.656   5.091  18.189  0.2097 -0.1761  0.3148
12057DPPC   C1B14892   0.058   4.915  19.438  0.0880 -0.1263  0.0677
12057DPPC   C2B14893   0.187   4.813  19.065  0.1091 -0.0274 -0.0713
12057DPPC   C3B14894   0.194   4.737  18.625 -0.3930 -0.1891 -0.0673
12057DPPC   C4B14895   0.192   4.716  18.172 -0.0237  0.0311 -0.0051
12058DPPC   NC314896  23.011   0.478  19.810  0.1977  0.1495 -0.0787
12058DPPC   PO414897  22.776   0.733  19.988 -0.2479  0.0513 -0.0776
12058DPPC   GL114898  22.518   0.827  19.761  0.0680  0.1551 -0.2783
12058DPPC   GL214899  22.540   0.587  19.618  0.1131  0.2415  0.1198
12058DPPC   C1A14900  22.389   0.959  19.472 -0.2788 -0.2380  0.2952
12058DPPC   C2A14901  22.344   0.911  19.068  0.2499  0.1394  0.0631
12058DPPC   C3A14902  22.270   0.877  18.583  0.2056  0.1522 -0.0386
12058DPPC   C4A14903  22.255   0.844  18.082 -0.1940 -0.1998 -0.2661
12058DPPC   C1B14904  22.436   0.495  19.290 -0.1939 -0.0633 -0.0538
12058DPPC   C2B14905  22.390   0.391  18.877 -0.2378 -0.1617  0.0643
12058DPPC   C3B14906  22.463   0.344  18.411 -0.0708 -0.0320 -0.1876
12058DPPC   C4B14907  22.474   0.371  17.929  0.2571 -0.1335  0.1550
12059DPPC   NC314908  24.058   5.616  20.200  0.0965  0.0604  0.0982
12059DPPC   PO414909  23.645   5.667  20.210 -0.1645 -0.0254  0.3291
12059DPPC   GL114910  23.561   5.668  19.824  0.0537 -0.0357  0.2224
12059DPPC   GL214911  23.433   5.385  19.804 -0.0630  0.1259  0.0562
12059DPPC   C1A14912  23.392   5.771  19.449  0.0081  0.2173  0.2333
12059DPPC   C2A14913  23.410   5.690  19.065  0.0849  0.1022  0.1239
12059DPPC   C3A14914  23.408   5.676  18.597 -0.2489  0.2520 -0.0113
12059DPPC   C4A14915  23.416   5.602  18.133  0.1825  0.1346 -0.0554
12059DPPC   C1B14916  23.541   5.161  19.490 -0.3501 -0.2923  0.0873
12059DPPC   C2B14917  23.497   5.085  19.088 -0.0539 -0.1075  0.1247
12059DPPC   C3B14918  23.514   5.156  18.632 -0.0855 -0.0257 -0.0003
12059DPPC   C4B14919  23.549   5.066  18.109 -0.1447 -0.2540 -0.0704
12060DPPC   NC314920  25.745   0.575  19.917  0.1880  0.1834 -0.0582
12060DPPC   PO414921  25.402   0.428  20.064  0.1059  0.1486  0.1987
12060DPPC   GL114922  25.412   0.360  19.626  0.1183  0.4321 -0.0620
12060DPPC   GL214923  25.341   0.600  19.600  0.2436 -0.2004  0.3575
12060DPPC   C1A14924  25.545   0.181  19.328  0.5715  0.1006  0.1335
12060DPPC   C2A14925  25.487   0.036  18.945  0.0838  0.5466  0.2991
12060DPPC   C3A14926  25.450   0.049  18.491 -0.2873 -0.0065  0.1590
12060DPPC   C4A14927  25.497   0.054  17.996  0.1024  0.0458 -0.2480
12060DPPC   C1B14928  25.467   0.636  19.234 -0.1481 -0.0585  0.0613
12060DPPC   C2B14929  25.458   0.586  18.832 -0.1405 -0.0015  0.1820
12060DPPC   C3B14930  25.426   0.614  18.369 -0.4387  0.0392 -0.1136
12060DPPC   C4B14931  25.428   0.695  17.890 -0.0190 -0.1019  0.0855
12061DPPC   NC314932  23.830   5.054  20.844 -0.0295 -0.0229  0.0712
12061DPPC   PO414933  24.012   5.186  20.491 -0.0370  0.0787 -0.1003
12061DPPC   GL114934  23.996   4.992  20.114  0.1542 -0.1457  0.2768
12061DPPC   GL214935  23.996   5.296  19.901 -0.1731 -0.3953 -0.1059
12061DPPC   C1A14936  24.208   4.732  19.886 -0.0909  0.1589  0.1788
12061DPPC   C2A14937  24.327   4.798  19.535 -0.0545 -0.1626  0.0360
12061DPPC   C3A14938  24.386   4.824  19.069  0.0307  0.1341 -0.0927
12061DPPC   C4A14939  24.476   4.812  18.616  0.1991 -0.1229  0.1944
12061DPPC   C1B14940  24.184   5.258  19.560  0.0118  0.3179  0.2464
12061DPPC   C2B14941  24.350   5.322  19.193  0.1857  0.0430 -0.1284
12061DPPC   C3B14942  24.378   5.331  18.686  0.0000 -0.3310 -0.0782
12061DPPC   C4B14943  24.408   5.254  18.200  0.0750 -0.2326 -0.2794
12062DPPC   NC314944  24.305   0.464  20.644 -0.0534  0.0946 -0.0154
12062DPPC   PO414945  24.174   0.359  20.285 -0.0532 -0.3373 -0.0065
12062DPPC   GL114946  24.403   0.434  19.847  0.0106  0.2541 -0.0975
12062DPPC   GL214947  24.399   0.214  19.913 -0.3736  0.1495  0.1671
12062DPPC   C1A14948  24.554   0.431  19.474  0.2374  0.1538 -0.1510
12062DPPC   C2A14949  24.553   0.522  19.116 -0.1699 -0.1575  0.2217
12062DPPC   C3A14950  24.585   0.510  18.662 -0.0218  0.0293 -0.0388
12062DPPC   C4A14951  24.607   0.446  18.194 -0.0184 -0.0192 -0.2241
12062DPPC   C1B14952  24.211   0.092  19.634  0.0000  0.4437  0.3671
12062DPPC   C2B14953  24.226   0.168  19.204  0.2191  0.2550 -0.0159
12062DPPC   C3B14954  24.187   0.174  18.711  0.1482  0.2032  0.2625
12062DPPC   C4B14955  24.140   0.189  18.168  0.1852  0.1017 -0.1221
12063DPPC   NC314956  25.659   1.088  20.598 -0.2729  0.3499 -0.1304
12063DPPC   PO414957  25.720   0.949  20.213  0.0953  0.0585 -0.1825
12063DPPC   GL114958  25.805   1.130  19.784  0.0715  0.0378  0.0363
12063DPPC   GL214959  25.605   1.337  19.801 -0.1065 -0.2323 -0.0696
12063DPPC   C1A14960  25.869   1.010  19.449 -0.1817  0.1616  0.0261
12063DPPC   C2A14961  25.770   0.952  19.068  0.1242  0.0434  0.0851
12063DPPC   C3A14962  25.832   0.985  18.572  0.5144  0.0328  0.1556
12063DPPC   C4A14963  25.837   0.934  18.058 -0.0229  0.3261  0.0426
12063DPPC   C1B14964  25.493   1.294  19.459 -0.0393  0.3966  0.0946
12063DPPC   C2B14965  25.355   1.195  19.096 -0.0998  0.0611 -0.3295
12063DPPC   C3B14966  25.326   1.057  18.628 -0.3524  0.3059  0.1469
12063DPPC   C4B14967  25.355   1.080  18.179 -0.1164  0.3285  0.0832
12064DPPC   NC314968   2.446   2.629  20.598 -0.0819  0.1845  0.1572
12064DPPC   PO414969   2.397   2.268  20.415  0.1525  0.0138 -0.1036
12064DPPC   GL114970   2.387   2.337  20.017 -0.2455  0.3701  0.0472
12064DPPC   GL214971   2.658   2.501  20.073  0.0331  0.1194 -0.1811
12064DPPC   C1A14972   2.250   2.238  19.728 -0.3889 -0.3570  0.2003
12064DPPC   C2A14973   2.197   2.152  19.313  0.0041  0.0683  0.1520
12064DPPC   C3A14974   2.246   2.075  18.859 -0.1585 -0.0215  0.1339
12064DPPC   C4A14975   2.331   1.994  18.360 -0.1257 -0.0233 -0.0914
12064DPPC   C1B14976   2.617   2.540  19.701  0.2341 -0.0299 -0.0771
12064DPPC   C2B14977   2.635   2.490  19.289 -0.2042  0.0648 -0.0639
12064DPPC   C3B14978   2.711   2.419  18.793  0.1294 -0.0175  0.0077
12064DPPC   C4B14979   2.656   2.445  18.297  0.0109  0.2390 -0.0356
12065DPPC   NC314980  25.803   2.945  19.941 -0.0812  0.0189 -0.3257
12065DPPC   PO414981  26.147   3.011  20.136  0.1031 -0.1445 -0.1824
12065DPPC   GL114982  26.395   3.008  19.769  0.0397  0.1202 -0.1308
12065DPPC   GL214983  26.474   2.781  19.702  0.0112  0.0864  0.1926
12065DPPC   C1A14984  26.368   3.062  19.441  0.0064 -0.2916  0.0778
12065DPPC   C2A14985  26.429   3.029  19.050 -0.0155 -0.0297 -0.0732
12065DPPC   C3A14986  26.445   3.089  18.640 -0.1016 -0.1512  0.0046
12065DPPC   C4A14987  26.353   3.074  18.177 -0.1618 -0.0990  0.0216
12065DPPC   C1B14988  26.454   2.621  19.344  0.1884 -0.3558 -0.0367
12065DPPC   C2B14989  26.453   2.567  18.945 -0.0789  0.2598 -0.0853
12065DPPC   C3B14990  26.416   2.500  18.475 -0.0640 -0.0219 -0.2036
12065DPPC   C4B14991  26.368   2.513  17.991 -0.3401  0.0732  0.0236
12066DPPC   NC314992   2.758   3.160  20.674 -0.1108  0.0918 -0.1964
12066DPPC   PO414993   2.551   3.503  20.579 -0.0576 -0.1838 -0.2249
12066DPPC   GL114994   2.679   3.335  20.167  0.1305 -0.1969 -0.3370
12066DPPC   GL214995   2.650   3.562  20.085 -0.1023  0.0292 -0.1273
12066DPPC   C1A14996   2.954   3.272  19.887 -0.0624 -0.0189 -0.0376
12066DPPC   C2A14997   3.097   3.247  19.513 -0.3178 -0.2345  0.0098
12066DPPC   C3A14998   3.054   3.316  19.057 -0.1006 -0.2282  0.0182
12066DPPC   C4A14999   3.057   3.302  18.613 -0.0613 -0.3014  0.2222
12066DPPC   C1B15000   2.597   3.477  19.730  0.0480 -0.2817 -0.2763
12066DPPC   C2B15001   2.642   3.453  19.290 -0.0011 -0.0266  0.0801
12066DPPC   C3B15002   2.654   3.495  18.781  0.0671  0.2593  0.1003
12066DPPC   C4B15003   2.663   3.476  18.256 -0.1461 -0.0270  0.0665
12067DPPC   NC315004   1.957   2.100  20.242  0.1042  0.4050  0.0596
12067DPPC   PO415005   1.627   2.271  20.224  0.1573 -0.0023 -0.2055
12067DPPC   GL115006   1.277   2.509  19.997 -0.0161  0.1365  0.2695
12067DPPC   GL215007   1.446   2.496  19.795 -0.1199  0.1900 -0.0443
12067DPPC   C1A15008   1.083   2.267  19.746  0.1204 -0.1295  0.1068
12067DPPC   C2A15009   0.877   2.204  19.427 -0.1030  0.0851 -0.0815
12067DPPC   C3A15010   0.944   2.209  18.888 -0.1425  0.1185 -0.0764
12067DPPC   C4A15011   0.888   2.178  18.391  0.4198 -0.0154 -0.2791
12067DPPC   C1B15012   1.357   2.483  19.422  0.0118  0.2760 -0.2149
12067DPPC   C2B15013   1.361   2.441  19.023  0.1974 -0.1416 -0.2874
12067DPPC   C3B15014   1.301   2.412  18.530  0.0009  0.0499  0.0335
12067DPPC   C4B15015   1.224   2.378  18.078  0.1764  0.1798  0.2432
12068DPPC   NC315016  22.842   2.098  19.972  0.0834 -0.1680  0.3318
12068DPPC   PO415017  23.195   1.976  20.058  0.2028 -0.0167  0.2368
12068DPPC   GL115018  23.039   1.674  19.812  0.2421 -0.0806 -0.1623
12068DPPC   GL215019  22.729   1.685  19.804  0.1090  0.2390 -0.1550
12068DPPC   C1A15020  23.156   1.531  19.422  0.0175 -0.0288 -0.0444
12068DPPC   C2A15021  23.149   1.586  19.021  0.2559  0.2801  0.1309
12068DPPC   C3A15022  23.084   1.570  18.503  0.2878  0.0076  0.0710
12068DPPC   C4A15023  23.053   1.473  17.982 -0.2263 -0.1722  0.0464
12068DPPC   C1B15024  22.614   1.782  19.503 -0.1109 -0.0008  0.1411
12068DPPC   C2B15025  22.628   1.745  19.101  0.1052 -0.4178 -0.2154
12068DPPC   C3B15026  22.652   1.753  18.642  0.0254 -0.2546 -0.2532
12068DPPC   C4B15027  22.607   1.673  18.206  0.0591 -0.1823  0.0766
12069DPPC   NC315028   1.045   2.201  20.250 -0.0492  0.0481 -0.0372
12069DPPC   PO415029   0.647   2.146  20.285  0.0502 -0.0764 -0.1493
12069DPPC   GL115030   0.629   2.237  19.906 -0.2742  0.1504 -0.2404
12069DPPC   GL215031   0.884   1.939  19.879  0.0751 -0.2177 -0.3433
12069DPPC   C1A15032   0.350   2.218  19.669  0.0140  0.1553 -0.1563
12069DPPC   C2A15033   0.120   2.163  19.335 -0.2120  0.3679  0.0988
12069DPPC   C3A15034   0.095   2.081  18.847 -0.1132 -0.0035 -0.3282
12069DPPC   C4A15035   0.038   2.032  18.407  0.1704  0.0891 -0.0294
12069DPPC   C1B15036   0.988   1.736  19.603 -0.0293  0.1313  0.5232
12069DPPC   C2B15037   0.994   1.740  19.210  0.2282  0.1002  0.0187
12069DPPC   C3B15038   0.990   1.664  18.728  0.1546 -0.0953 -0.1475
12069DPPC   C4B15039   0.991   1.661  18.218  0.1850  0.0539  0.1811
12070DPPC   NC315040  23.691   0.446  20.235  0.2217  0.2150  0.0114
12070DPPC   PO415041  23.341   0.598  20.266  0.1503  0.1090 -0.1505
12070DPPC   GL115042  23.287   0.854  19.953  0.0512 -0.0884 -0.0233
12070DPPC   GL215043  23.420   0.634  19.823  0.1611  0.1821 -0.0443
12070DPPC   C1A15044  23.350   1.033  19.611  0.1734 -0.2946 -0.0983
12070DPPC   C2A15045  23.212   1.091  19.235 -0.0370  0.3352  0.0888
12070DPPC   C3A15046  23.183   1.085  18.700  0.0792 -0.1115 -0.0542
12070DPPC   C4A15047  23.114   1.024  18.206  0.1141  0.3142 -0.0708
12070DPPC   C1B15048  23.322   0.636  19.461 -0.2554  0.1012  0.2785
12070DPPC   C2B15049  23.263   0.602  19.050  0.1410  0.3206 -0.4160
12070DPPC   C3B15050  23.314   0.545  18.540  0.4084 -0.2677 -0.2700
12070DPPC   C4B15051  23.285   0.517  18.103 -0.2659  0.0004  0.1749
12071DPPC   NC315052   2.183   1.790  21.092 -0.1540 -0.2570 -0.2093
12071DPPC   PO415053   2.156   1.849  20.695  0.0444  0.0212  0.0037
12071DPPC   GL115054   2.303   1.734  20.271  0.3724 -0.1081 -0.3152
12071DPPC   GL215055   2.445   1.867  20.283  0.0644 -0.2698  0.3526
12071DPPC   C1A15056   2.112   1.754  19.964  0.1386  0.1167 -0.1163
12071DPPC   C2A15057   1.942   1.772  19.587  0.1546 -0.0271 -0.1504
12071DPPC   C3A15058   1.862   1.826  19.117 -0.0331 -0.1434 -0.0311
12071DPPC   C4A15059   1.889   1.744  18.635  0.1186  0.3448  0.1000
12071DPPC   C1B15060   2.546   1.907  19.923  0.0773  0.1352  0.0148
12071DPPC   C2B15061   2.659   2.023  19.553 -0.0116  0.2726  0.0852
12071DPPC   C3B15062   2.712   1.997  19.128  0.0413 -0.0549 -0.0012
12071DPPC   C4B15063   2.754   1.872  18.669 -0.1113  0.1613 -0.0005
12072DPPC   NC315064  25.004   1.490  20.464  0.2101 -0.1196  0.1427
12072DPPC   PO415065  24.668   1.269  20.380 -0.3928 -0.0023 -0.0985
12072DPPC   GL115066  24.517   1.306  19.969 -0.1880 -0.1243 -0.1137
12072DPPC   GL215067  24.550   1.069  19.940  0.1441 -0.1965  0.2264
12072DPPC   C1A15068  24.581   1.398  19.611 -0.0337  0.2634 -0.2575
12072DPPC   C2A15069  24.535   1.474  19.207 -0.0072  0.1901  0.0972
12072DPPC   C3A15070  24.402   1.515  18.738 -0.3635 -0.0482 -0.0767
12072DPPC   C4A15071  24.360   1.431  18.319 -0.0311 -0.0592 -0.0791
12072DPPC   C1B15072  24.567   0.953  19.593  0.0164 -0.0492  0.1046
12072DPPC   C2B15073  24.551   0.997  19.174 -0.1156  0.0022  0.0897
12072DPPC   C3B15074  24.527   1.005  18.720  0.0346  0.1787 -0.0691
12072DPPC   C4B15075  24.469   0.979  18.203  0.1949 -0.0084 -0.1098
12073DPPC   NC315076  25.000   0.270  20.473  0.2073 -0.0686 -0.1514
12073DPPC   PO415077  24.686   0.345  20.288  0.2561  0.0615 -0.1110
12073DPPC   GL115078  24.819   0.469  19.915  0.2921 -0.1406  0.4220
12073DPPC   GL215079  24.923   0.138  19.859 -0.0094  0.2037 -0.1883
12073DPPC   C1A15080  24.906   0.761  19.691  0.1425  0.0733  0.4831
12073DPPC   C2A15081  25.070   0.856  19.317 -0.0659  0.0476 -0.0076
12073DPPC   C3A15082  25.000   0.835  18.875  0.1854 -0.4479 -0.1068
12073DPPC   C4A15083  24.937   0.829  18.384 -0.1656 -0.1142  0.1926
12073DPPC   C1B15084  24.997   0.270  19.518  0.0143  0.0755 -0.2124
12073DPPC   C2B15085  25.085   0.319  19.096  0.2186 -0.1082 -0.1307
12073DPPC   C3B15086  24.998   0.298  18.640 -0.1234 -0.2136 -0.2044
12073DPPC   C4B15087  25.080   0.350  18.133  0.0408 -0.2187 -0.1802
12074DPPC   NC315088  24.427   5.002  20.386  0.1143 -0.0441  0.1961
12074DPPC   PO415089  24.432   5.204  20.039  0.1466 -0.0278 -0.2535
12074DPPC   GL115090  24.714   5.119  19.701 -0.1482 -0.0443  0.1106
12074DPPC   GL215091  24.987   5.182  19.865 -0.0066 -0.0383  0.0992
12074DPPC   C1A15092  24.787   5.144  19.327  0.1026  0.4561 -0.1128
12074DPPC   C2A15093  24.769   5.142  18.951  0.0610 -0.1269  0.2134
12074DPPC   C3A15094  24.835   5.097  18.490  0.2156 -0.0468  0.2420
12074DPPC   C4A15095  24.869   5.062  17.991  0.2930  0.0875 -0.1387
12074DPPC   C1B15096  25.088   5.376  19.550 -0.0873  0.2104  0.2592
12074DPPC   C2B15097  25.173   5.486  19.131  0.2171 -0.0024  0.1229
12074DPPC   C3B15098  25.182   5.414  18.665  0.1148  0.2954  0.1648
12074DPPC   C4B15099  25.204   5.405  18.172 -0.0755  0.3475 -0.2651
12075DPPS   CNO15100  22.808   2.186  20.453  0.1684  0.0478  0.1232
12075DPPS   PO415101  22.850   2.487  20.248 -0.0640 -0.1791  0.0653
12075DPPS   GL115102  22.813   2.533  19.821  0.1353  0.2046 -0.2290
12075DPPS   GL215103  22.746   2.835  19.826 -0.1839 -0.3001  0.3077
12075DPPS   C1A15104  22.952   2.450  19.515 -0.1498 -0.1212  0.1948
12075DPPS   C2A15105  22.976   2.507  19.101 -0.1863  0.4306 -0.0993
12075DPPS   C3A15106  22.903   2.548  18.637  0.1506  0.2294 -0.0349
12075DPPS   C4A15107  22.917   2.492  18.168  0.3260  0.0153 -0.0756
12075DPPS   C1B15108  22.863   2.989  19.479 -0.3673 -0.2277  0.1572
12075DPPS   C2B15109  22.852   3.054  19.090 -0.0062 -0.2267 -0.0248
12075DPPS   C3B15110  22.877   3.047  18.577 -0.1048  0.1917 -0.3651
12075DPPS   C4B15111  22.824   2.990  18.095 -0.1807  0.0872  0.0488
12076DPPS   CNO15112  22.994   5.923  20.580 -0.0953  0.1989 -0.1324
12076DPPS   PO415113  22.742   6.007  20.353  0.0712 -0.0915 -0.0213
12076DPPS   GL115114  22.752   6.104  19.939  0.1554 -0.0312  0.1488
12076DPPS   GL215115  22.863   6.411  19.997 -0.3774  0.0371 -0.0012
12076DPPS   C1A15116  22.788   5.910  19.667 -0.0904 -0.4232  0.0125
12076DPPS   C2A15117  22.961   5.812  19.316  0.1686 -0.1447  0.0489
12076DPPS   C3A15118  22.960   5.873  18.855 -0.1622  0.1986 -0.0510
12076DPPS   C4A15119  22.943   5.926  18.296 -0.0303  0.1046 -0.2233
12076DPPS   C1B15120  23.123   6.612  19.779 -0.1186  0.1380 -0.2752
12076DPPS   C2B15121  23.260   6.769  19.382  0.1210  0.0155  0.1450
12076DPPS   C3B15122  23.327   6.681  18.883 -0.0361 -0.2285  0.3387
12076DPPS   C4B15123  23.272   6.636  18.368  0.0508 -0.0678  0.3379
12077DPPS   CNO15124  23.029   5.420  20.706  0.2370 -0.1951 -0.0801
12077DPPS   PO415125  22.820   5.417  20.387 -0.2092  0.0119  0.0143
12077DPPS   GL115126  22.800   5.614  19.970  0.2771 -0.1077 -0.0820
12077DPPS   GL215127  22.602   5.512  19.935  0.1827 -0.2454 -0.0285
12077DPPS   C1A15128  23.045   5.526  19.690  0.1479 -0.1397 -0.4504
12077DPPS   C2A15129  23.100   5.349  19.335  0.0593 -0.2316  0.1143
12077DPPS   C3A15130  23.108   5.309  18.865  0.1633  0.3188 -0.2696
12077DPPS   C4A15131  23.085   5.241  18.396  0.2030  0.0102 -0.2429
12077DPPS   C1B15132  22.636   5.416  19.559 -0.1287 -0.0129 -0.0370
12077DPPS   C2B15133  22.601   5.456  19.150  0.0464 -0.0487 -0.1144
12077DPPS   C3B15134  22.647   5.473  18.680  0.0122 -0.1183 -0.2516
12077DPPS   C4B15135  22.528   5.347  18.198  0.0671 -0.0379  0.2776
12078DPPS   CNO15136  22.508   4.072  20.476  0.2409 -0.1757 -0.2653
12078DPPS   PO415137  22.481   4.126  20.101  0.1339 -0.0238  0.1691
12078DPPS   GL115138  22.734   4.126  19.803  0.0349  0.2063 -0.2786
12078DPPS   GL215139  22.843   4.449  19.839 -0.0244  0.1129 -0.0137
12078DPPS   C1A15140  22.780   3.982  19.445 -0.0626  0.2275 -0.1484
12078DPPS   C2A15141  22.744   3.984  19.015  0.0562  0.3209 -0.0102
12078DPPS   C3A15142  22.850   3.955  18.554  0.0157  0.1530  0.1513
12078DPPS   C4A15143  22.789   3.928  18.063  0.0937  0.0458  0.1146
12078DPPS   C1B15144  23.051   4.419  19.533 -0.1061 -0.1107 -0.2369
12078DPPS   C2B15145  23.163   4.293  19.163 -0.0623  0.0709  0.1006
12078DPPS   C3B15146  23.216   4.250  18.685 -0.0942  0.1665 -0.0026
12078DPPS   C4B15147  23.243   4.238  18.180 -0.2928 -0.0979 -0.1566
12079DPPS   CNO15148   0.401   3.445  20.529 -0.0296 -0.0206 -0.0990
12079DPPS   PO415149   0.617   3.685  20.322  0.0898 -0.1383 -0.0428
12079DPPS   GL115150   0.450   3.676  19.958  0.0447  0.0293  0.1006
12079DPPS   GL215151   0.489   3.382  19.920 -0.2446 -0.2370 -0.2349
12079DPPS   C1A15152   0.420   3.740  19.536  0.0205 -0.1555  0.3944
12079DPPS   C2A15153   0.403   3.797  19.113 -0.1488 -0.4599 -0.0270
12079DPPS   C3A15154   0.432   3.822  18.616 -0.0960  0.1804 -0.0222
12079DPPS   C4A15155   0.438   3.819  18.128  0.1761 -0.2421 -0.1009
12079DPPS   C1B15156   0.248   3.352  19.627  0.1866  0.1154 -0.0493
12079DPPS   C2B15157   0.048   3.472  19.328  0.0300 -0.2164 -0.2229
12079DPPS   C3B15158  -0.148   3.525  18.882 -0.3440  0.0546  0.1270
12079DPPS   C4B15159  -0.010   3.586  18.379  0.2229 -0.1966  0.2234
12080DPPS   CNO15160  23.889   0.078  20.614 -0.0117 -0.0323 -0.1834
12080DPPS   PO415161  23.851  -0.138  20.282 -0.0365 -0.1588 -0.1721
12080DPPS   GL115162  23.936   0.107  19.971  0.1657  0.0682 -0.0104
12080DPPS   GL215163  23.825  -0.133  19.831 -0.0090  0.4150 -0.3668
12080DPPS   C1A15164  23.933   0.446  19.751 -0.0869 -0.1104 -0.0314
12080DPPS   C2A15165  24.126   0.654  19.427 -0.1117  0.0682 -0.2085
12080DPPS   C3A15166  24.117   0.726  18.913  0.0962  0.1066 -0.0535
12080DPPS   C4A15167  24.124   0.615  18.448 -0.1677 -0.3049 -0.0087
12080DPPS   C1B15168  23.776  -0.099  19.514  0.0279  0.1668  0.2222
12080DPPS   C2B15169  23.790  -0.054  19.093 -0.1495  0.1833  0.0497
12080DPPS   C3B15170  23.782  -0.115  18.617  0.4184  0.1214  0.0424
12080DPPS   C4B15171  23.779  -0.235  18.126 -0.0640 -0.0117 -0.2173
12081DPPS   CNO15172  25.325   3.168  20.745 -0.0219  0.2278  0.0381
12081DPPS   PO415173  25.452   3.154  20.391 -0.0365 -0.4764  0.0688
12081DPPS   GL115174  25.408   3.204  19.993  0.2968  0.1633  0.0169
12081DPPS   GL215175  25.337   2.955  19.909  0.2906 -0.2361  0.0515
12081DPPS   C1A15176  25.379   3.422  19.709  0.3217  0.0669 -0.0663
12081DPPS   C2A15177  25.441   3.515  19.357  0.0680  0.0848  0.1736
12081DPPS   C3A15178  25.410   3.446  18.866 -0.4008 -0.0934 -0.0491
12081DPPS   C4A15179  25.473   3.489  18.379  0.0859 -0.0069  0.1286
12081DPPS   C1B15180  25.376   3.034  19.532 -0.0525  0.1328 -0.0132
12081DPPS   C2B15181  25.465   3.029  19.162 -0.2281  0.0589 -0.2878
12081DPPS   C3B15182  25.518   2.977  18.645 -0.2361 -0.1924 -0.4413
12081DPPS   C4B15183  25.534   2.959  18.138  0.2577 -0.5736 -0.2691
12082DPPS   CNO15184   1.643   5.800  20.489 -0.0438 -0.0240 -0.0229
12082DPPS   PO415185   1.888   5.599  20.263  0.0028 -0.0422 -0.1746
12082DPPS   GL115186   1.772   5.459  19.827 -0.1495 -0.1522 -0.0701
12082DPPS   GL215187   1.701   5.717  19.706  0.0118  0.0113 -0.1171
12082DPPS   C1A15188   1.837   5.177  19.522 -0.0895  0.2770  0.2894
12082DPPS   C2A15189   1.970   5.063  19.133  0.0755 -0.0795  0.1583
12082DPPS   C3A15190   1.990   5.033  18.649  0.3653  0.1354 -0.0440
12082DPPS   C4A15191   1.870   5.038  18.146 -0.0079  0.0553 -0.0566
12082DPPS   C1B15192   1.899   5.723  19.379  0.2162  0.1596 -0.2418
12082DPPS   C2B15193   1.829   5.629  18.978 -0.0662  0.1481  0.1020
12082DPPS   C3B15194   1.864   5.582  18.521 -0.0137  0.0203 -0.1017
12082DPPS   C4B15195   1.890   5.541  18.025 -0.1518  0.2387 -0.1273
12083DPPS   CNO15196   1.733   3.045  20.857  0.3002 -0.3234  0.4502
12083DPPS   PO415197   1.692   3.207  20.504  0.0251  0.1039  0.0106
12083DPPS   GL115198   1.701   3.046  20.050  0.1935  0.2270 -0.5195
12083DPPS   GL215199   1.642   2.783  20.059 -0.0852  0.0854  0.1764
12083DPPS   C1A15200   1.747   3.273  19.751  0.0312  0.1708 -0.1082
12083DPPS   C2A15201   1.691   3.245  19.362  0.2689  0.1974 -0.0951
12083DPPS   C3A15202   1.757   3.279  18.898 -0.0657 -0.0623 -0.0598
12083DPPS   C4A15203   1.760   3.329  18.412 -0.1581  0.1597 -0.0498
12083DPPS   C1B15204   1.722   2.840  19.671 -0.1136 -0.2445  0.0134
12083DPPS   C2B15205   1.777   2.784  19.258  0.2021  0.0349 -0.1000
12083DPPS   C3B15206   1.745   2.703  18.777  0.0471 -0.2098  0.1542
12083DPPS   C4B15207   1.729   2.841  18.266  0.1576 -0.0174  0.0016
12084DPPS   CNO15208  26.139   0.578  20.209  0.0235  0.0142  0.1048
12084DPPS   PO415209  26.157   0.891  19.970  0.0204 -0.2044 -0.1099
12084DPPS   GL115210  26.251   0.705  19.578  0.0669  0.0351 -0.0657
12084DPPS   GL215211  26.225   0.439  19.703  0.0788 -0.1031  0.0840
12084DPPS   C1A15212  26.235   0.757  19.225 -0.3058  0.3662 -0.1970
12084DPPS   C2A15213  26.196   0.778  18.826 -0.0208  0.2436  0.0443
12084DPPS   C3A15214  26.252   0.683  18.382  0.4864 -0.0488  0.1657
12084DPPS   C4A15215  26.189   0.630  17.870  0.0537  0.0247  0.2479
12084DPPS   C1B15216  25.896   0.477  19.495  0.0394  0.6036 -0.1495
12084DPPS   C2B15217  25.891   0.453  19.102  0.0382  0.1335  0.3432
12084DPPS   C3B15218  25.869   0.428  18.646  0.0532  0.0873  0.0749
12084DPPS   C4B15219  25.829   0.452  18.144 -0.3768  0.1316  0.1154
12085DPPS   CNO15220  25.950   2.181  20.295  0.0658  0.4270 -0.0418
12085DPPS   PO415221  26.102   1.824  20.345 -0.2438 -0.0487  0.0478
12085DPPS   GL115222  26.112   1.733  19.942 -0.0521  0.3253 -0.0141
12085DPPS   GL215223  26.223   1.965  19.913 -0.2084 -0.0501 -0.2885
12085DPPS   C1A15224  26.083   1.502  19.656  0.3569 -0.1018  0.0624
12085DPPS   C2A15225  26.150   1.371  19.254  0.0686  0.2916 -0.0804
12085DPPS   C3A15226  26.151   1.295  18.785 -0.0989  0.2854 -0.1496
12085DPPS   C4A15227  26.173   1.215  18.267  0.1253 -0.0725 -0.0734
12085DPPS   C1B15228  26.224   1.898  19.525 -0.2277  0.0760 -0.0188
12085DPPS   C2B15229  26.137   1.867  19.147 -0.0259  0.0099 -0.2506
12085DPPS   C3B15230  26.068   1.847  18.666 -0.0549 -0.0631  0.1785
12085DPPS   C4B15231  26.035   1.732  18.203  0.2445  0.0029 -0.0482
12086DPPS   CNO15232  23.706   3.008  20.358 -0.1258 -0.2286  0.2974
12086DPPS   PO415233  23.704   2.650  20.233 -0.1877 -0.1016  0.4756
12086DPPS   GL115234  23.762   2.525  19.871  0.2198  0.2022 -0.1454
12086DPPS   GL215235  24.028   2.481  19.845  0.0166 -0.1652 -0.0411
12086DPPS   C1A15236  23.662   2.556  19.503  0.1507 -0.1540 -0.2464
12086DPPS   C2A15237  23.785   2.649  19.115 -0.1337 -0.3550  0.1459
12086DPPS   C3A15238  23.777   2.668  18.655  0.2480 -0.0489 -0.0590
12086DPPS   C4A15239  23.848   2.685  18.124 -0.2421  0.0055  0.0508
12086DPPS   C1B15240  24.191   2.496  19.496 -0.0539  0.4057  0.1077
12086DPPS   C2B15241  24.279   2.468  19.050  0.0458  0.0488 -0.1282
12086DPPS   C3B15242  24.214   2.484  18.530 -0.0819  0.2588 -0.1668
12086DPPS   C4B15243  24.325   2.456  18.074  0.2123 -0.2245  0.2072
12087DPPS   CNO15244  23.746   4.099  20.321 -0.0678  0.0350  0.1519
12087DPPS   PO415245  23.412   3.979  20.353  0.1126  0.0598  0.0404
12087DPPS   GL115246  23.181   4.164  20.071 -0.0684  0.6463 -0.2291
12087DPPS   GL215247  23.346   4.292  19.926  0.1947  0.0304 -0.0077
12087DPPS   C1A15248  23.144   3.986  19.703  0.1864  0.0366 -0.3182
12087DPPS   C2A15249  23.244   3.829  19.340 -0.0704  0.0049 -0.0614
12087DPPS   C3A15250  23.207   3.796  18.866 -0.0059 -0.1438 -0.0774
12087DPPS   C4A15251  23.305   3.775  18.363  0.1253 -0.3011 -0.2680
12087DPPS   C1B15252  23.478   4.472  19.627 -0.0619  0.0295 -0.1884
12087DPPS   C2B15253  23.584   4.669  19.327  0.0215  0.0789 -0.1662
12087DPPS   C3B15254  23.520   4.625  18.861 -0.0000 -0.0440 -0.2446
12087DPPS   C4B15255  23.560   4.669  18.392  0.0070  0.1606 -0.0954
12088DPPS   CNO15256  25.646   1.626  20.497  0.1709  0.0111  0.0265
12088DPPS   PO415257  25.456   1.394  20.299 -0.2787  0.3598  0.3366
12088DPPS   GL115258  25.275   1.580  19.996 -0.0756 -0.3158  0.1153
12088DPPS   GL215259  25.081   1.343  20.039  0.2099 -0.0258 -0.1810
12088DPPS   C1A15260  25.368   1.669  19.680 -0.0576 -0.0727 -0.1992
12088DPPS   C2A15261  25.293   1.758  19.250 -0.0438  0.0922  0.2807
12088DPPS   C3A15262  25.266   1.699  18.804 -0.3499  0.2907 -0.0773
12088DPPS   C4A15263  25.282   1.673  18.307  0.2514  0.2486  0.0182
12088DPPS   C1B15264  24.940   1.193  19.717 -0.2675  0.0554  0.0385
12088DPPS   C2B15265  25.025   1.364  19.337 -0.0425  0.0547  0.1185
12088DPPS   C3B15266  24.907   1.330  18.941  0.0171 -0.0213 -0.2908
12088DPPS   C4B15267  24.854   1.305  18.506  0.2579 -0.3170  0.1398
12089DPPS   CNO15268  22.254   3.123  20.552 -0.2114  0.2168 -0.1732
12089DPPS   PO415269  22.358   3.304  20.237 -0.1159  0.1535  0.1895
12089DPPS   GL115270  22.140   3.215  19.955 -0.1223 -0.2950  0.0896
12089DPPS   GL215271  21.893   3.263  19.913  0.1846  0.0711  0.0988
12089DPPS   C1A15272  22.382   3.203  19.652  0.1779 -0.0378 -0.1313
12089DPPS   C2A15273  22.385   3.138  19.292  0.1449  0.2245 -0.1171
12089DPPS   C3A15274  22.390   3.185  18.769 -0.1456  0.0303 -0.3129
12089DPPS   C4A15275  22.383   3.122  18.274 -0.2789 -0.1554 -0.1315
12089DPPS   C1B15276  21.852   3.312  19.495  0.0522  0.2317 -0.1533
12089DPPS   C2B15277  21.938   3.342  19.048 -0.1018  0.0728  0.1026
12089DPPS   C3B15278  21.930   3.354  18.578  0.1734 -0.1557 -0.2623
12089DPPS   C4B15279  21.885   3.322  18.122 -0.0856 -0.3236  0.0633
12090DPPS   CNO15280  25.082   3.605  20.482 -0.0641  0.5321  0.0026
12090DPPS   PO415281  25.005   3.417  20.165  0.0906 -0.0463  0.0664
12090DPPS   GL115282  24.658   3.498  19.904  0.0970  0.0312  0.0288
12090DPPS   GL215283  24.572   3.729  19.941 -0.0703  0.0990 -0.0058
12090DPPS   C1A15284  24.676   3.382  19.537 -0.3880  0.1348  0.0363
12090DPPS   C2A15285  24.542   3.375  19.101 -0.2785  0.2626 -0.0438
12090DPPS   C3A15286  24.556   3.319  18.626 -0.1401  0.2678 -0.3507
12090DPPS   C4A15287  24.590   3.374  18.212 -0.0536  0.0548 -0.2342
12090DPPS   C1B15288  24.324   3.662  19.677  0.2037 -0.0373 -0.1416
12090DPPS   C2B15289  24.154   3.462  19.386 -0.0891 -0.2377 -0.0884
12090DPPS   C3B15290  24.120   3.448  18.909 -0.2474  0.0456  0.0551
12090DPPS   C4B15291  24.133   3.550  18.454  0.0825  0.2099 -0.0356
12091DPPS   CNO15292   0.995   2.669  20.401  0.4046  0.2103 -0.0225
12091DPPS   PO415293   0.860   2.727  20.055  0.1290 -0.0862 -0.0210
12091DPPS   GL115294   0.973   2.750  19.677 -0.4258 -0.1181  0.1838
12091DPPS   GL215295   0.902   3.081  19.795 -0.1428 -0.1639 -0.0868
12091DPPS   C1A15296   0.898   2.642  19.337  0.4936  0.0645  0.2540
12091DPPS   C2A15297   0.942   2.734  18.926 -0.1493  0.2489  0.0944
12091DPPS   C3A15298   0.870   2.729  18.439  0.0236  0.1409  0.2726
12091DPPS   C4A15299   0.785   2.559  17.950 -0.0618 -0.0181 -0.0462
12091DPPS   C1B15300   0.928   3.197  19.453  0.1143  0.1854 -0.1950
12091DPPS   C2B15301   0.934   3.212  19.098  0.0559  0.0815  0.2155
12091DPPS   C3B15302   0.931   3.205  18.641  0.2136 -0.3212  0.1139
12091DPPS   C4B15303   0.812   3.097  18.143 -0.1352  0.0454  0.0797
12092DPPS   CNO15304   0.124   2.951  20.486 -0.3150 -0.1899 -0.2541
12092DPPS   PO415305   0.205   3.155  20.186  0.2199 -0.0743 -0.1621
12092DPPS   GL115306   0.425   2.955  19.928  0.2164 -0.0841 -0.0690
12092DPPS   GL215307   0.450   2.632  19.862  0.6273  0.0598  0.2506
12092DPPS   C1A15308   0.470   2.992  19.568 -0.0100  0.1122 -0.0591
12092DPPS   C2A15309   0.511   2.905  19.202 -0.0233 -0.1543 -0.0997
12092DPPS   C3A15310   0.522   2.894  18.722  0.2109  0.0080  0.1770
12092DPPS   C4A15311   0.342   2.766  18.257  0.1822 -0.1859 -0.0841
12092DPPS   C1B15312   0.505   2.546  19.483  0.1749  0.0962 -0.3151
12092DPPS   C2B15313   0.534   2.366  19.118 -0.4769  0.0345  0.1781
12092DPPS   C3B15314   0.471   2.415  18.659 -0.1216 -0.1222  0.5459
12092DPPS   C4B15315   0.418   2.284  18.154 -0.0555  0.0667 -0.0162
12093DPPS   CNO15316  22.798   4.813  20.587 -0.0688 -0.0521 -0.1095
12093DPPS   PO415317  23.074   4.968  20.413  0.0300  0.1892 -0.0124
12093DPPS   GL115318  22.941   4.742  20.119 -0.0199 -0.0098  0.2301
12093DPPS   GL215319  23.234   4.818  19.935  0.2076  0.1315  0.0637
12093DPPS   C1A15320  22.812   4.914  19.823  0.1455 -0.3470  0.0539
12093DPPS   C2A15321  22.727   4.964  19.390 -0.2952  0.1183  0.3521
12093DPPS   C3A15322  22.706   4.942  18.893 -0.0545  0.0029 -0.2513
12093DPPS   C4A15323  22.718   4.961  18.416 -0.3057  0.0414  0.1869
12093DPPS   C1B15324  23.164   4.813  19.548  0.1284 -0.0284 -0.2745
12093DPPS   C2B15325  23.091   4.794  19.118  0.0807  0.1509 -0.3997
12093DPPS   C3B15326  23.111   4.798  18.679 -0.1263 -0.0371  0.2403
12093DPPS   C4B15327  23.120   4.782  18.192 -0.2253 -0.1015 -0.0943
12094DPPS   CNO15328   1.170   1.861  20.698  0.0263  0.0585  0.1098
12094DPPS   PO415329   1.118   1.651  20.396 -0.1697  0.0327  0.0443
12094DPPS   GL115330   1.242   1.547  20.046  0.2075  0.0242  0.1882
12094DPPS   GL215331   1.353   1.888  20.068  0.1130 -0.2674  0.1842
12094DPPS   C1A15332   1.405   1.237  19.875 -0.0333 -0.1095 -0.2358
12094DPPS   C2A15333   1.580   1.044  19.603  0.0770 -0.0969  0.0041
12094DPPS   C3A15334   1.550   0.977  19.156 -0.3280  0.2362 -0.3285
12094DPPS   C4A15335   1.543   1.031  18.681  0.1833 -0.2598  0.0857
12094DPPS   C1B15336   1.484   2.021  19.728  0.4377 -0.0092 -0.1856
12094DPPS   C2B15337   1.468   2.025  19.329 -0.1563 -0.1089  0.1038
12094DPPS   C3B15338   1.451   2.006  18.841 -0.0740 -0.0817 -0.0015
12094DPPS   C4B15339   1.402   1.904  18.326  0.0190 -0.0416  0.1158
12095DPPS   CNO15340  24.084   4.470  20.249 -0.2722  0.2084 -0.2068
12095DPPS   PO415341  24.482   4.476  20.366  0.1701  0.1192 -0.2656
12095DPPS   GL115342  24.626   4.474  19.997 -0.0295 -0.0104  0.3804
12095DPPS   GL215343  24.780   4.272  19.990 -0.1803  0.0247  0.0358
12095DPPS   C1A15344  24.723   4.560  19.671  0.3268 -0.4549 -0.0258
12095DPPS   C2A15345  24.789   4.604  19.248  0.1859 -0.2754  0.0830
12095DPPS   C3A15346  24.854   4.552  18.737  0.0522  0.2079  0.0231
12095DPPS   C4A15347  24.879   4.565  18.286  0.0509  0.0217 -0.0341
12095DPPS   C1B15348  24.703   4.124  19.650 -0.2212 -0.1324 -0.1100
12095DPPS   C2B15349  24.593   3.884  19.274  0.0335  0.0176  0.0309
12095DPPS   C3B15350  24.543   3.789  18.768  0.1295  0.0781  0.0112
12095DPPS   C4B15351  24.551   3.852  18.335  0.2377 -0.1338  0.0863
12096DPPS   CNO15352  23.951   0.802  20.557  0.0105 -0.1723  0.1360
12096DPPS   PO415353  23.667   0.941  20.376  0.3024 -0.2977 -0.1369
12096DPPS   GL115354  23.798   0.797  19.986 -0.0837  0.1148 -0.2767
12096DPPS   GL215355  24.050   0.786  20.102 -0.1784  0.1908 -0.0534
12096DPPS   C1A15356  23.753   0.861  19.628 -0.0925 -0.2094  0.0870
12096DPPS   C2A15357  23.703   0.843  19.228 -0.2489  0.3205  0.0760
12096DPPS   C3A15358  23.641   0.910  18.726 -0.0439  0.1381  0.0110
12096DPPS   C4A15359  23.707   0.917  18.248  0.1334  0.2632  0.2544
12096DPPS   C1B15360  24.178   0.932  19.810  0.1823  0.0713  0.1102
12096DPPS   C2B15361  24.119   1.130  19.458 -0.0092 -0.1513  0.0906
12096DPPS   C3B15362  24.088   1.213  19.012 -0.0321 -0.2349 -0.0828
12096DPPS   C4B15363  24.075   1.106  18.487 -0.0888  0.0914 -0.0664
12097DPPS   CNO15364   1.816   0.364  20.392  0.0946  0.1856 -0.2067
12097DPPS   PO415365   2.054   0.043  20.409 -0.0855 -0.1439  0.0823
12097DPPS   GL115366   2.071  -0.019  20.029  0.1032 -0.0120 -0.1827
12097DPPS   GL215367   2.255   0.084  19.858 -0.0002  0.0486 -0.2622
12097DPPS   C1A15368   1.846   0.223  19.816  0.0709 -0.1079 -0.1182
12097DPPS   C2A15369   1.674   0.503  19.507  0.1076  0.0984  0.1186
12097DPPS   C3A15370   1.579   0.450  18.994  0.0830  0.0947  0.3324
12097DPPS   C4A15371   1.637   0.512  18.494  0.3956 -0.2808  0.1017
12097DPPS   C1B15372   2.470  -0.157  19.689 -0.1279  0.0294  0.3622
12097DPPS   C2B15373   2.595  -0.320  19.329  0.1281  0.0527 -0.0451
12097DPPS   C3B15374   2.592  -0.375  18.847 -0.0902  0.0442  0.1313
12097DPPS   C4B15375   2.542  -0.317  18.368  0.1920  0.2700 -0.2910
12098DPPS   CNO15376   1.069   4.827  20.027 -0.3998 -0.0682 -0.0344
12098DPPS   PO415377   1.378   4.574  20.080  0.3199 -0.2191 -0.2286
12098DPPS   GL115378   1.574   4.567  19.703  0.1996  0.0217  0.1051
12098DPPS   GL215379   1.256   4.642  19.565  0.3397  0.0299  0.0379
12098DPPS   C1A15380   1.605   4.668  19.325  0.1170  0.0919 -0.3549
12098DPPS   C2A15381   1.633   4.724  18.941  0.1544  0.2499 -0.1751
12098DPPS   C3A15382   1.576   4.795  18.494 -0.2232 -0.1374  0.4473
12098DPPS   C4A15383   1.538   4.726  18.011 -0.3064  0.0655 -0.0340
12098DPPS   C1B15384   1.179   4.407  19.261 -0.1705 -0.1747  0.1533
12098DPPS   C2B15385   1.237   4.445  18.836  0.1829 -0.0981 -0.1633
12098DPPS   C3B15386   1.252   4.446  18.360  0.1618 -0.0555 -0.2995
12098DPPS   C4B15387   1.105   4.393  17.850 -0.1859 -0.0185 -0.0564
12099DPPS   CNO15388  23.167   0.317  20.690 -0.3965  0.0769  0.0246
12099DPPS   PO415389  23.418   0.075  20.490 -0.2515  0.0923  0.5145
12099DPPS   GL115390  23.398   0.139  20.071 -0.0037 -0.2011 -0.1396
12099DPPS   GL215391  23.403  -0.161  20.051  0.1373  0.1701  0.1738
12099DPPS   C1A15392  23.554   0.241  19.759  0.2913  0.1630  0.0916
12099DPPS   C2A15393  23.720   0.374  19.375 -0.1618  0.2062  0.3304
12099DPPS   C3A15394  23.725   0.412  18.901 -0.2512  0.0531  0.0788
12099DPPS   C4A15395  23.709   0.320  18.408 -0.0838  0.1262 -0.2170
12099DPPS   C1B15396  23.421  -0.298  19.687  0.2825 -0.2446 -0.1515
12099DPPS   C2B15397  23.363  -0.344  19.292  0.1533  0.0856 -0.1713
12099DPPS   C3B15398  23.403  -0.438  18.826 -0.0793  0.2478 -0.0865
12099DPPS   C4B15399  23.397  -0.458  18.330 -0.2676  0.1337 -0.0788
12100DPPC   NC315400  23.878   5.164  15.533  0.5395 -0.2302  0.1311
12100DPPC   PO415401  24.266   5.132  15.611 -0.1820 -0.3090  0.0729
12100DPPC   GL115402  24.448   5.081  15.994 -0.2536 -0.5043 -0.0707
12100DPPC   GL215403  24.708   5.090  15.873  0.0929 -0.1719 -0.1194
12100DPPC   C1A15404  24.369   5.115  16.344  0.0296  0.3583  0.0565
12100DPPC   C2A15405  24.402   5.158  16.745  0.3304 -0.0993  0.1828
12100DPPC   C3A15406  24.325   5.262  17.253  0.1687 -0.0758 -0.0063
12100DPPC   C4A15407  24.289   5.199  17.702  0.3823  0.2300 -0.4132
12100DPPC   C1B15408  24.873   4.997  16.179 -0.1865  0.1335 -0.1132
12100DPPC   C2B15409  24.909   4.946  16.598  0.0550 -0.1183 -0.2732
12100DPPC   C3B15410  24.925   4.970  17.047  0.0368  0.0228 -0.1696
12100DPPC   C4B15411  24.851   5.051  17.537 -0.1153 -0.2111 -0.1874
12101DPPC   NC315412  24.673   4.085  15.294 -0.2252 -0.1402 -0.2236
12101DPPC   PO415413  24.512   4.348  15.568  0.0458  0.3969 -0.0611
12101DPPC   GL115414  24.708   4.522  15.940  0.0568 -0.3357  0.0437
12101DPPC   GL215415  24.550   4.305  16.120 -0.0266  0.0415  0.1620
12101DPPC   C1A15416  25.033   4.502  16.157 -0.2517  0.0859 -0.0825
12101DPPC   C2A15417  25.221   4.317  16.554  0.1206  0.3279  0.0478
12101DPPC   C3A15418  25.319   4.348  17.019 -0.0297  0.0724 -0.0107
12101DPPC   C4A15419  25.321   4.354  17.550 -0.0778 -0.2876 -0.1146
12101DPPC   C1B15420  24.450   4.205  16.459  0.0603 -0.1684 -0.1108
12101DPPC   C2B15421  24.456   4.170  16.909 -0.3054 -0.2247 -0.0887
12101DPPC   C3B15422  24.444   4.240  17.407  0.1224 -0.0554  0.2956
12101DPPC   C4B15423  24.435   4.265  17.909  0.1604 -0.2155 -0.1691
12102DPPC   NC315424  26.122   6.504  15.677 -0.1812  0.2448 -0.0695
12102DPPC   PO415425  26.094   6.878  15.578  0.0087  0.3068 -0.0800
12102DPPC   GL115426  25.777   7.041  15.916 -0.1134  0.1809 -0.1472
12102DPPC   GL215427  25.900   6.747  15.997 -0.0463  0.0526 -0.1312
12102DPPC   C1A15428  25.716   7.290  16.159 -0.0259 -0.0065 -0.0377
12102DPPC   C2A15429  25.699   7.378  16.533  0.1065  0.0806  0.0851
12102DPPC   C3A15430  25.777   7.458  17.020  0.3232  0.1130  0.4194
12102DPPC   C4A15431  25.757   7.490  17.517 -0.3123  0.0474  0.4069
12102DPPC   C1B15432  25.904   6.928  16.313 -0.0982  0.0538  0.1108
12102DPPC   C2B15433  25.891   6.963  16.741 -0.1204 -0.2564  0.1282
12102DPPC   C3B15434  25.833   6.916  17.165 -0.0229  0.1070 -0.0320
12102DPPC   C4B15435  25.775   6.994  17.655  0.1222  0.0704  0.2089
12103DPPC   NC315436   2.215   2.039  15.693 -0.2797  0.0170  0.0961
12103DPPC   PO415437   1.957   1.781  15.856 -0.1578  0.2389 -0.1217
12103DPPC   GL115438   2.234   1.754  16.205 -0.1579  0.3051  0.0069
12103DPPC   GL215439   1.968   1.661  16.326 -0.0830 -0.1032 -0.1027
12103DPPC   C1A15440   2.337   1.874  16.493  0.0495  0.0273 -0.2990
12103DPPC   C2A15441   2.346   1.901  16.893 -0.0812  0.0416 -0.1550
12103DPPC   C3A15442   2.299   1.958  17.354 -0.2110  0.0957 -0.2478
12103DPPC   C4A15443   2.177   2.031  17.834 -0.0794  0.2329  0.0043
12103DPPC   C1B15444   1.932   1.628  16.702  0.1743  0.1481 -0.1907
12103DPPC   C2B15445   1.852   1.647  17.144  0.1883  0.1286  0.0085
12103DPPC   C3B15446   1.818   1.700  17.643  0.3257  0.1806  0.1990
12103DPPC   C4B15447   1.868   1.764  18.148  0.0141  0.1917 -0.0763
12104DPPC   NC315448   1.979   4.577  15.332 -0.2512 -0.0684 -0.0626
12104DPPC   PO415449   2.094   4.907  15.573 -0.0917 -0.2485  0.1054
12104DPPC   GL115450   2.289   4.835  15.936  0.0812 -0.0623 -0.1270
12104DPPC   GL215451   2.257   5.099  16.057  0.0072  0.1167 -0.3954
12104DPPC   C1A15452   2.258   4.504  16.106  0.0387  0.1025 -0.1520
12104DPPC   C2A15453   2.064   4.465  16.416  0.0622 -0.2501 -0.0379
12104DPPC   C3A15454   1.988   4.482  16.876  0.0478  0.0604 -0.1377
12104DPPC   C4A15455   2.065   4.490  17.360 -0.0653 -0.2998 -0.1380
12104DPPC   C1B15456   2.228   5.277  16.373  0.2311  0.0345 -0.1142
12104DPPC   C2B15457   2.323   5.393  16.762  0.1114  0.0007 -0.3218
12104DPPC   C3B15458   2.373   5.266  17.225  0.2189 -0.2605  0.0706
12104DPPC   C4B15459   2.255   5.351  17.674 -0.1682 -0.0049  0.2551
12105DPPC   NC315460   1.169   5.095  15.341 -0.1290  0.2891 -0.2931
12105DPPC   PO415461   1.469   5.372  15.302 -0.1189  0.2679  0.1268
12105DPPC   GL115462   1.522   5.301  15.689 -0.1081 -0.3090 -0.4690
12105DPPC   GL215463   1.802   5.214  15.784 -0.3162 -0.0630 -0.1544
12105DPPC   C1A15464   1.409   5.108  16.008 -0.1092 -0.0601  0.2809
12105DPPC   C2A15465   1.427   5.079  16.409 -0.1168 -0.0704 -0.0223
12105DPPC   C3A15466   1.547   5.119  16.862 -0.0862 -0.2506 -0.3312
12105DPPC   C4A15467   1.511   5.210  17.332  0.0170 -0.1217 -0.1185
12105DPPC   C1B15468   1.891   5.336  16.144 -0.0169  0.0127 -0.0085
12105DPPC   C2B15469   1.812   5.472  16.541  0.1055 -0.0742 -0.1757
12105DPPC   C3B15470   1.916   5.533  16.945  0.2205  0.0177 -0.0404
12105DPPC   C4B15471   1.848   5.530  17.463 -0.1014  0.2308 -0.5744
12106DPPC   NC315472   1.499   3.792  15.477  0.1881 -0.2771  0.2584
12106DPPC   PO415473   1.742   3.580  15.692  0.0855 -0.1106 -0.0806
12106DPPC   GL115474   1.915   3.686  16.105  0.1562  0.1980  0.0537
12106DPPC   GL215475   1.548   3.887  15.995 -0.1541  0.1957 -0.0374
12106DPPC   C1A15476   1.887   3.638  16.445  0.0664 -0.3055  0.1263
12106DPPC   C2A15477   1.778   3.617  16.854 -0.0157  0.0375 -0.0598
12106DPPC   C3A15478   1.743   3.651  17.343 -0.1711 -0.0701 -0.0136
12106DPPC   C4A15479   1.576   3.797  17.810  0.0024  0.0097 -0.0427
12106DPPC   C1B15480   1.370   3.794  16.300  0.2702 -0.1487  0.1397
12106DPPC   C2B15481   1.203   3.868  16.692  0.0619  0.1478 -0.0477
12106DPPC   C3B15482   1.218   3.865  17.148 -0.0480 -0.1628 -0.0505
12106DPPC   C4B15483   1.121   3.890  17.549 -0.1872  0.1458  0.2419
12107DPPC   NC315484  22.195   0.256  14.990  0.2312  0.0058  0.2140
12107DPPC   PO415485  22.303   0.469  15.321 -0.0510 -0.2003 -0.0934
12107DPPC   GL115486  22.148   0.557  15.730 -0.0177 -0.1638  0.2371
12107DPPC   GL215487  22.035   0.765  15.648 -0.1090 -0.4724  0.1520
12107DPPC   C1A15488  22.218   0.493  16.052  0.0675  0.0772  0.1894
12107DPPC   C2A15489  22.351   0.388  16.385  0.1487 -0.1157 -0.1619
12107DPPC   C3A15490  22.379   0.319  16.892  0.0684 -0.4186 -0.1952
12107DPPC   C4A15491  22.372   0.292  17.378 -0.1588  0.2406 -0.2114
12107DPPC   C1B15492  21.891   0.882  15.987  0.0357 -0.1040 -0.1787
12107DPPC   C2B15493  21.768   0.927  16.353  0.0515 -0.3215 -0.0786
12107DPPC   C3B15494  21.828   0.983  16.894  0.3644  0.0518  0.1365
12107DPPC   C4B15495  21.816   0.964  17.394  0.0835  0.3268  0.0336
12108DPPC   NC315496  24.126   2.442  15.391  0.0370  0.4384  0.0975
12108DPPC   PO415497  23.784   2.543  15.491  0.0315  0.1726  0.2899
12108DPPC   GL115498  23.812   2.500  15.869 -0.1232 -0.0020  0.0793
12108DPPC   GL215499  24.086   2.474  15.846  0.2988 -0.1590 -0.0944
12108DPPC   C1A15500  23.752   2.485  16.243 -0.3532  0.4111  0.0617
12108DPPC   C2A15501  23.741   2.512  16.674 -0.1953  0.1512 -0.3300
12108DPPC   C3A15502  23.703   2.498  17.125  0.0688  0.0591 -0.3166
12108DPPC   C4A15503  23.748   2.547  17.605  0.1208  0.0273 -0.1383
12108DPPC   C1B15504  24.072   2.176  16.121  0.1919 -0.0282  0.0085
12108DPPC   C2B15505  23.884   1.955  16.424  0.1467 -0.2341  0.0993
12108DPPC   C3B15506  23.859   2.043  16.818 -0.1864  0.0508 -0.1619
12108DPPC   C4B15507  23.829   2.107  17.327 -0.0165 -0.0958  0.2672
12109DPPC   NC315508  24.143   6.442  15.962  0.3946 -0.1826  0.2987
12109DPPC   PO415509  24.424   6.165  15.882  0.0235 -0.3649 -0.3046
12109DPPC   GL115510  24.750   6.227  16.129 -0.1697 -0.0435 -0.3184
12109DPPC   GL215511  24.485   6.337  16.234  0.1025  0.0825 -0.2085
12109DPPC   C1A15512  24.944   6.257  16.419  0.0727  0.0613 -0.0211
12109DPPC   C2A15513  25.036   6.288  16.791 -0.0852  0.2136 -0.1113
12109DPPC   C3A15514  25.093   6.301  17.272 -0.2535  0.1221 -0.0045
12109DPPC   C4A15515  25.174   6.369  17.742  0.1574  0.0163 -0.0604
12109DPPC   C1B15516  24.614   6.477  16.550  0.0689  0.1166  0.2781
12109DPPC   C2B15517  24.572   6.484  16.976 -0.0865 -0.0916 -0.1333
12109DPPC   C3B15518  24.627   6.560  17.434 -0.0275  0.3089 -0.0551
12109DPPC   C4B15519  24.701   6.536  17.938 -0.3855 -0.0986  0.2234
12110DPPC   NC315520  23.477   2.089  15.462  0.1035 -0.1110  0.3544
12110DPPC   PO415521  23.386   1.750  15.320  0.0151  0.2613  0.0232
12110DPPC   GL115522  23.112   1.703  15.665  0.2034 -0.1706  0.1018
12110DPPC   GL215523  23.021   2.020  15.595  0.1234 -0.2913 -0.1429
12110DPPC   C1A15524  23.028   1.668  16.012  0.1377 -0.3997  0.0195
12110DPPC   C2A15525  23.078   1.459  16.350  0.0427  0.1025 -0.0746
12110DPPC   C3A15526  23.014   1.404  16.798 -0.0948 -0.2462  0.2491
12110DPPC   C4A15527  23.054   1.491  17.303 -0.0320 -0.2511  0.0564
12110DPPC   C1B15528  23.180   2.089  15.897  0.2314  0.0342 -0.0535
12110DPPC   C2B15529  23.304   2.223  16.247  0.0571  0.0993  0.3167
12110DPPC   C3B15530  23.374   2.225  16.738  0.1902 -0.0736 -0.0337
12110DPPC   C4B15531  23.328   2.168  17.234 -0.1759 -0.0997  0.0145
12111DPPC   NC315532  25.441   2.467  15.594 -0.2447 -0.1410  0.0275
12111DPPC   PO415533  25.111   2.324  15.689  0.1202 -0.0077  0.0152
12111DPPC   GL115534  25.099   2.314  16.154  0.0708  0.0473 -0.1892
12111DPPC   GL215535  24.853   2.201  16.136 -0.0454  0.2243  0.0930
12111DPPC   C1A15536  25.165   2.477  16.446 -0.2572  0.0731 -0.1054
12111DPPC   C2A15537  25.096   2.538  16.835  0.0445  0.2219 -0.0377
12111DPPC   C3A15538  25.162   2.542  17.311  0.3307  0.0360  0.2435
12111DPPC   C4A15539  25.048   2.596  17.788 -0.2061  0.3243  0.1751
12111DPPC   C1B15540  24.723   2.154  16.449  0.0676  0.0619 -0.0261
12111DPPC   C2B15541  24.707   2.169  16.835 -0.2825  0.4613 -0.1469
12111DPPC   C3B15542  24.725   2.263  17.350  0.1024 -0.0363 -0.1553
12111DPPC   C4B15543  24.668   2.231  17.819  0.0535  0.2946  0.1766
12112DPPC   NC315544  25.919   3.979  15.920  0.1253 -0.0084 -0.0622
12112DPPC   PO415545  25.548   3.937  15.736  0.0297  0.1065  0.2382
12112DPPC   GL115546  25.265   4.167  16.013 -0.1512 -0.2781 -0.3731
12112DPPC   GL215547  25.543   4.222  16.093 -0.0650 -0.8041  0.1723
12112DPPC   C1A15548  25.019   4.062  16.232 -0.0967 -0.0433  0.0563
12112DPPC   C2A15549  24.818   3.935  16.546  0.0897  0.0474 -0.0625
12112DPPC   C3A15550  24.885   3.997  17.039 -0.2908  0.1047 -0.0260
12112DPPC   C4A15551  24.944   4.019  17.528 -0.0022  0.3344  0.0136
12112DPPC   C1B15552  25.697   4.116  16.414  0.0428  0.1781  0.3130
12112DPPC   C2B15553  25.696   4.099  16.801  0.0564  0.0163 -0.0672
12112DPPC   C3B15554  25.754   4.225  17.259 -0.1532 -0.0164  0.0841
12112DPPC   C4B15555  25.752   4.225  17.779  0.0672 -0.1169 -0.1537
12113DPPC   NC315556  21.993   5.090  15.619  0.0957 -0.2086 -0.0528
12113DPPC   PO415557  22.167   4.771  15.468 -0.1268 -0.1408 -0.0021
12113DPPC   GL115558  22.273   4.649  15.797 -0.0177  0.1274 -0.3994
12113DPPC   GL215559  22.178   4.398  15.872  0.5076  0.0097 -0.0204
12113DPPC   C1A15560  22.216   4.765  16.178  0.4861  0.0448 -0.0513
12113DPPC   C2A15561  22.317   4.577  16.544 -0.0356  0.2453  0.0688
12113DPPC   C3A15562  22.315   4.571  17.055  0.2329  0.2587 -0.3113
12113DPPC   C4A15563  22.334   4.635  17.513  0.1463 -0.1460 -0.1956
12113DPPC   C1B15564  22.065   4.344  16.234 -0.0991  0.4389 -0.3049
12113DPPC   C2B15565  21.933   4.284  16.608  0.1342  0.2696 -0.1670
12113DPPC   C3B15566  21.916   4.281  17.070  0.0558 -0.0326  0.1175
12113DPPC   C4B15567  21.912   4.253  17.543 -0.1539 -0.0430 -0.2444
12114DPPC   NC315568  23.526   2.886  15.730 -0.0752  0.1368 -0.0377
12114DPPC   PO415569  23.899   2.971  15.826 -0.0611  0.1226  0.0737
12114DPPC   GL115570  23.779   2.939  16.210  0.2375 -0.2504  0.1638
12114DPPC   GL215571  23.492   2.848  16.176 -0.0410 -0.0249 -0.1899
12114DPPC   C1A15572  23.817   3.037  16.607  0.2245  0.2905  0.1639
12114DPPC   C2A15573  23.753   3.035  17.012 -0.0671 -0.1169 -0.2822
12114DPPC   C3A15574  23.797   3.093  17.421 -0.0186  0.1149  0.3659
12114DPPC   C4A15575  23.708   3.120  17.871 -0.0339  0.1567 -0.3132
12114DPPC   C1B15576  23.345   2.776  16.513 -0.2884  0.5374  0.1770
12114DPPC   C2B15577  23.264   2.664  16.866  0.1535  0.2650 -0.0957
12114DPPC   C3B15578  23.231   2.784  17.404  0.1056 -0.1741  0.1059
12114DPPC   C4B15579  23.250   2.798  17.899  0.2007  0.1046  0.1072
12115DPPC   NC315580  23.423   6.018  15.468 -0.1015  0.2799  0.1799
12115DPPC   PO415581  23.198   6.154  15.728  0.0432 -0.0754 -0.1776
12115DPPC   GL115582  23.389   5.961  16.110 -0.1206 -0.1953 -0.0304
12115DPPC   GL215583  23.279   5.757  16.042  0.3657  0.0026 -0.1144
12115DPPC   C1A15584  23.416   5.990  16.475  0.1572  0.1781  0.2470
12115DPPC   C2A15585  23.393   6.093  16.883 -0.1648  0.1368  0.0061
12115DPPC   C3A15586  23.276   6.045  17.393  0.0828  0.0270  0.1457
12115DPPC   C4A15587  23.391   6.117  17.840 -0.0684  0.2576 -0.0212
12115DPPC   C1B15588  23.263   5.543  16.365  0.1933 -0.1777  0.2771
12115DPPC   C2B15589  23.495   5.574  16.678 -0.0383 -0.1450  0.1144
12115DPPC   C3B15590  23.418   5.643  17.145 -0.0094  0.0605  0.1113
12115DPPC   C4B15591  23.407   5.571  17.640 -0.1911 -0.0465 -0.0039
12116DPPC   NC315592   1.389   0.213  15.425  0.0049 -0.1094  0.1037
12116DPPC   PO415593   1.413   0.101  15.805  0.0292  0.0717 -0.0708
12116DPPC   GL115594   1.231  -0.011  16.191  0.0552  0.5561  0.1912
12116DPPC   GL215595   1.053   0.164  16.008 -0.1905  0.3455 -0.0540
12116DPPC   C1A15596   1.296   0.105  16.552 -0.5105 -0.2485  0.0744
12116DPPC   C2A15597   1.310   0.152  16.955  0.1796 -0.0345  0.0085
12116DPPC   C3A15598   1.187   0.075  17.417  0.0072  0.0310  0.2673
12116DPPC   C4A15599   1.200   0.100  17.923 -0.0202 -0.1862  0.2232
12116DPPC   C1B15600   0.792   0.222  16.256  0.1954 -0.1446 -0.2275
12116DPPC   C2B15601   0.849   0.243  16.639 -0.0740  0.2026 -0.0469
12116DPPC   C3B15602   0.842   0.288  17.076 -0.0987  0.3703 -0.1975
12116DPPC   C4B15603   0.719   0.261  17.553  0.2708  0.1935  0.4032
12117DPPC   NC315604  25.456   5.070  15.284 -0.2210  0.2207 -0.1428
12117DPPC   PO415605  25.468   5.290  15.605 -0.1115  0.1382  0.0434
12117DPPC   GL115606  25.120   5.436  15.771 -0.1065 -0.0248 -0.1076
12117DPPC   GL215607  25.393   5.496  15.982  0.3508  0.0068 -0.0720
12117DPPC   C1A15608  24.925   5.466  16.086  0.1754  0.0330  0.2801
12117DPPC   C2A15609  24.764   5.419  16.476 -0.1016  0.2196  0.0499
12117DPPC   C3A15610  24.781   5.513  16.895 -0.0449 -0.1972 -0.3145
12117DPPC   C4A15611  24.773   5.516  17.359 -0.1243 -0.1987 -0.1042
12117DPPC   C1B15612  25.476   5.582  16.329 -0.0362  0.2370 -0.0109
12117DPPC   C2B15613  25.689   5.590  16.644  0.1667 -0.0460 -0.1058
12117DPPC   C3B15614  25.661   5.682  17.173  0.2368 -0.0639  0.0610
12117DPPC   C4B15615  25.640   5.654  17.663 -0.1938  0.1908 -0.1169
12118DPPC   NC315616  23.331   3.646  15.376  0.0446 -0.1376  0.0094
12118DPPC   PO415617  23.402   3.677  15.770  0.1255 -0.1658 -0.0760
12118DPPC   GL115618  23.334   3.773  16.119  0.1326  0.0638 -0.1998
12118DPPC   GL215619  23.514   3.984  16.204  0.1310  0.0643  0.3521
12118DPPC   C1A15620  23.239   3.585  16.413  0.2424 -0.0811 -0.0717
12118DPPC   C2A15621  23.254   3.713  16.812 -0.2176 -0.2361  0.0476
12118DPPC   C3A15622  23.235   3.726  17.303  0.0646 -0.0648 -0.0147
12118DPPC   C4A15623  23.249   3.720  17.834  0.0917 -0.0936  0.0172
12118DPPC   C1B15624  23.571   4.014  16.506 -0.2536  0.0324 -0.1058
12118DPPC   C2B15625  23.655   3.969  16.922 -0.1989 -0.1133  0.0256
12118DPPC   C3B15626  23.668   4.051  17.394  0.0017 -0.1994 -0.1747
12118DPPC   C4B15627  23.645   4.081  17.894 -0.3407  0.3161 -0.0826
12119DPPC   NC315628  25.671   2.873  15.407 -0.2050  0.2657 -0.1345
12119DPPC   PO415629  25.923   2.893  15.737  0.0580  0.3609  0.2327
12119DPPC   GL115630  26.069   2.872  16.112 -0.0951  0.2048 -0.1351
12119DPPC   GL215631  26.195   3.171  15.983 -0.2272 -0.3867 -0.0562
12119DPPC   C1A15632  25.968   2.821  16.454  0.1930 -0.0110  0.3146
12119DPPC   C2A15633  25.947   2.641  16.837 -0.1176 -0.1966  0.0996
12119DPPC   C3A15634  25.947   2.714  17.342 -0.3038 -0.0360  0.0054
12119DPPC   C4A15635  25.983   2.830  17.819 -0.2632  0.2511 -0.2972
12119DPPC   C1B15636  26.343   3.131  16.339  0.1542  0.1543  0.3229
12119DPPC   C2B15637  26.405   2.948  16.714 -0.1855 -0.4804 -0.0506
12119DPPC   C3B15638  26.353   3.059  17.206  0.1754  0.0879 -0.3523
12119DPPC   C4B15639  26.391   3.119  17.692  0.0891  0.0743  0.0503
12120DPPC   NC315640  25.210   1.743  15.380  0.1403  0.0412  0.0140
12120DPPC   PO415641  25.484   2.023  15.420  0.0754  0.0425  0.0479
12120DPPC   GL115642  25.489   2.046  15.891  0.1009 -0.0342 -0.0927
12120DPPC   GL215643  25.291   1.869  15.848 -0.3121  0.0162  0.1678
12120DPPC   C1A15644  25.511   2.170  16.238 -0.2082  0.0360  0.0196
12120DPPC   C2A15645  25.560   2.313  16.595  0.3997 -0.1551 -0.0613
12120DPPC   C3A15646  25.642   2.316  17.119  0.1316 -0.4738  0.0487
12120DPPC   C4A15647  25.589   2.415  17.593 -0.2081  0.0443  0.5908
12120DPPC   C1B15648  25.173   1.888  16.176  0.0335  0.3438  0.3475
12120DPPC   C2B15649  25.102   2.019  16.551 -0.0391  0.1322  0.0116
12120DPPC   C3B15650  25.176   2.093  17.055  0.1259  0.0946 -0.0533
12120DPPC   C4B15651  25.217   2.067  17.572  0.4523  0.0014  0.3834
12121DPPC   NC315652  23.252   4.691  15.608  0.0749  0.1301  0.1299
12121DPPC   PO415653  22.990   4.940  15.733 -0.0030  0.2903 -0.1983
12121DPPC   GL115654  22.921   5.081  16.130 -0.0089  0.1844  0.0127
12121DPPC   GL215655  23.115   4.891  16.231  0.1158 -0.2245 -0.0238
12121DPPC   C1A15656  22.937   5.260  16.462 -0.2393 -0.4993  0.0462
12121DPPC   C2A15657  22.965   5.293  16.868 -0.0654 -0.0055 -0.2143
12121DPPC   C3A15658  23.002   5.242  17.367  0.0388  0.0619  0.0695
12121DPPC   C4A15659  23.061   5.283  17.842  0.0778  0.2949 -0.0000
12121DPPC   C1B15660  23.329   5.087  16.406 -0.0015 -0.1309 -0.0980
12121DPPC   C2B15661  23.523   5.101  16.728 -0.1863 -0.4671 -0.1624
12121DPPC   C3B15662  23.466   5.138  17.177  0.0546  0.0652  0.1683
12121DPPC   C4B15663  23.493   5.044  17.636  0.1894 -0.1103  0.1047
12122DPPC   NC315664   2.954   0.986  15.452  0.0891 -0.0258 -0.1941
12122DPPC   PO415665   2.834   1.296  15.664  0.2109 -0.0926 -0.1836
12122DPPC   GL115666   2.718   1.307  16.037  0.0829  0.3653  0.1068
12122DPPC   GL215667   2.988   1.213  16.193 -0.1206  0.0512  0.2405
12122DPPC   C1A15668   2.560   1.396  16.319  0.1272  0.2486  0.1683
12122DPPC   C2A15669   2.466   1.479  16.693 -0.2459 -0.0896 -0.0894
12122DPPC   C3A15670   2.438   1.523  17.222 -0.0020 -0.2531  0.2416
12122DPPC   C4A15671   2.333   1.568  17.722  0.0372  0.3475  0.2670
12122DPPC   C1B15672   2.929   1.321  16.567  0.0588 -0.0193 -0.0070
12122DPPC   C2B15673   2.839   1.373  16.974  0.0808 -0.0677  0.2419
12122DPPC   C3B15674   2.835   1.349  17.454  0.1837  0.4770 -0.0595
12122DPPC   C4B15675   2.719   1.296  17.897 -0.2842 -0.0417  0.0383
12123DPPC   NC315676  24.796   1.838  15.762  0.0749  0.1085 -0.2293
12123DPPC   PO415677  24.961   1.467  15.768 -0.0727  0.1607  0.0414
12123DPPC   GL115678  25.167   1.373  16.090  0.2118 -0.0967  0.2362
12123DPPC   GL215679  25.026   1.100  16.105  0.1071 -0.1868 -0.1932
12123DPPC   C1A15680  25.249   1.502  16.403 -0.2992  0.3862  0.0312
12123DPPC   C2A15681  25.232   1.584  16.833 -0.1310  0.2704  0.1153
12123DPPC   C3A15682  25.298   1.627  17.281 -0.2845 -0.0392  0.1579
12123DPPC   C4A15683  25.238   1.575  17.780  0.0801  0.0657 -0.2529
12123DPPC   C1B15684  24.942   1.170  16.487  0.2551  0.1465  0.1962
12123DPPC   C2B15685  24.924   1.207  16.915 -0.1535  0.1122 -0.0698
12123DPPC   C3B15686  24.876   1.229  17.423  0.0956 -0.2066 -0.1520
12123DPPC   C4B15687  24.877   1.254  17.887  0.1949  0.2242  0.1624
12124DPPC   NC315688   0.363   1.999  15.763 -0.1546 -0.0380  0.1029
12124DPPC   PO415689   0.583   2.184  15.496  0.0989  0.0309 -0.1052
12124DPPC   GL115690   0.686   2.501  15.771  0.0736  0.1588  0.0739
12124DPPC   GL215691   0.393   2.445  15.906  0.0622  0.3369  0.2711
12124DPPC   C1A15692   0.792   2.613  16.077  0.0463 -0.2209 -0.3514
12124DPPC   C2A15693   0.978   2.590  16.498  0.0335  0.0838  0.1007
12124DPPC   C3A15694   0.855   2.552  17.011  0.0092  0.3542  0.1304
12124DPPC   C4A15695   0.809   2.694  17.439 -0.2937  0.1233 -0.1381
12124DPPC   C1B15696   0.239   2.421  16.247 -0.2736 -0.2305 -0.2905
12124DPPC   C2B15697  -0.081   2.485  16.504 -0.1241  0.1560  0.2166
12124DPPC   C3B15698   0.011   2.482  16.971  0.2204  0.0513  0.1979
12124DPPC   C4B15699   0.030   2.552  17.443  0.1304  0.2385 -0.1740
12125DPPC   NC315700   0.453   3.961  15.243 -0.1533  0.0932  0.0583
12125DPPC   PO415701   0.714   3.695  15.378 -0.0789 -0.1534 -0.1124
12125DPPC   GL115702   0.915   3.895  15.755  0.3063 -0.1031 -0.2044
12125DPPC   GL215703   0.656   3.945  15.757  0.3265  0.1356  0.1517
12125DPPC   C1A15704   0.989   3.856  16.081  0.1619 -0.3106  0.2763
12125DPPC   C2A15705   1.007   3.423  16.203  0.1037  0.1031 -0.0446
12125DPPC   C3A15706   1.162   3.021  16.197 -0.0311 -0.2668 -0.0224
12125DPPC   C4A15707   1.208   2.543  16.086 -0.0443 -0.0190 -0.1931
12125DPPC   C1B15708   0.453   4.016  16.034 -0.1377 -0.1173 -0.0709
12125DPPC   C2B15709   0.312   4.275  16.312  0.1440  0.0522  0.1488
12125DPPC   C3B15710   0.278   4.276  16.771 -0.0245 -0.0280  0.0927
12125DPPC   C4B15711   0.279   4.317  17.306  0.0337  0.0759  0.2592
12126DPPC   NC315712  24.307   3.216  15.653 -0.0265 -0.1899 -0.0699
12126DPPC   PO415713  24.360   2.809  15.665 -0.0359  0.0019  0.3480
12126DPPC   GL115714  24.313   2.810  16.051  0.0629 -0.0465  0.1428
12126DPPC   GL215715  24.501   3.004  16.001 -0.1618  0.3437 -0.2905
12126DPPC   C1A15716  24.321   2.513  16.237 -0.2401  0.0248 -0.2085
12126DPPC   C2A15717  24.256   2.284  16.615 -0.1198 -0.5153  0.0442
12126DPPC   C3A15718  24.223   2.369  17.108 -0.2089 -0.2234  0.0399
12126DPPC   C4A15719  24.233   2.391  17.550  0.1329 -0.0868 -0.1721
12126DPPC   C1B15720  24.573   3.122  16.322  0.1137  0.0124 -0.2172
12126DPPC   C2B15721  24.564   3.106  16.737  0.0845  0.0279  0.0518
12126DPPC   C3B15722  24.643   3.195  17.189  0.1216 -0.1284 -0.0092
12126DPPC   C4B15723  24.615   3.201  17.699  0.2790  0.0174  0.3290
12127DPPC   NC315724   1.802   2.680  15.235  0.0893  0.1152  0.0531
12127DPPC   PO415725   1.751   2.420  15.495 -0.3368  0.3156 -0.1851
12127DPPC   GL115726   1.689   2.327  15.935  0.1094 -0.1239 -0.1056
12127DPPC   GL215727   1.628   2.648  15.872  0.4120  0.1293  0.3363
12127DPPC   C1A15728   1.673   2.321  16.301 -0.0231 -0.0146  0.1369
12127DPPC   C2A15729   1.442   2.345  16.664 -0.1629 -0.2436  0.0701
12127DPPC   C3A15730   1.383   2.368  17.084 -0.0383  0.1907  0.4203
12127DPPC   C4A15731   1.267   2.360  17.573 -0.1174 -0.1640  0.1372
12127DPPC   C1B15732   1.609   2.779  16.207  0.0910 -0.0107 -0.2157
12127DPPC   C2B15733   1.475   2.919  16.584 -0.0965 -0.2490 -0.3309
12127DPPC   C3B15734   1.344   2.837  16.994 -0.0281  0.3017 -0.1277
12127DPPC   C4B15735   1.318   2.829  17.455  0.0902  0.3535  0.2773
12128DPPC   NC315736  26.345   2.628  15.821 -0.1127  0.0326  0.0283
12128DPPC   PO415737  26.368   2.240  15.794  0.1465 -0.1134  0.2270
12128DPPC   GL115738  26.450   1.989  16.148 -0.2320  0.0280  0.0249
12128DPPC   GL215739  26.268   1.803  15.941  0.1523  0.0844  0.1001
12128DPPC   C1A15740  26.424   2.005  16.469  0.0554  0.1465 -0.2459
12128DPPC   C2A15741  26.427   1.974  16.945  0.1183 -0.2769 -0.3107
12128DPPC   C3A15742  26.451   1.923  17.415  0.3032  0.0681 -0.1143
12128DPPC   C4A15743  26.514   2.001  17.875  0.3348  0.0493  0.2368
12128DPPC   C1B15744  26.104   1.760  16.267  0.2535 -0.3190  0.0516
12128DPPC   C2B15745  26.077   1.665  16.688  0.1167 -0.1003  0.0110
12128DPPC   C3B15746  26.057   1.717  17.149  0.0143  0.1368 -0.1075
12128DPPC   C4B15747  26.112   1.708  17.675  0.1042 -0.2596 -0.0147
12129DPPC   NC315748  25.542   0.103  15.659 -0.0206 -0.1332  0.2097
12129DPPC   PO415749  25.223  -0.067  15.542  0.0962 -0.1220  0.0536
12129DPPC   GL115750  25.129  -0.341  15.822 -0.2221  0.4224  0.3024
12129DPPC   GL215751  25.145  -0.603  15.797  0.2803  0.2283 -0.0115
12129DPPC   C1A15752  25.241  -0.241  16.145 -0.0884  0.2540 -0.0628
12129DPPC   C2A15753  25.322  -0.105  16.515  0.0676  0.0583  0.4494
12129DPPC   C3A15754  25.413  -0.023  16.944 -0.0243 -0.0435  0.1445
12129DPPC   C4A15755  25.455   0.050  17.435  0.0555  0.3190 -0.2061
12129DPPC   C1B15756  25.079  -0.733  16.141  0.1028 -0.2524  0.1337
12129DPPC   C2B15757  25.141  -0.797  16.572 -0.1257 -0.1421  0.1249
12129DPPC   C3B15758  25.201  -0.760  16.996  0.1646 -0.1570 -0.1722
12129DPPC   C4B15759  25.223  -0.765  17.495 -0.2418 -0.2782  0.0072
12130DPPC   NC315760   2.153   3.361  15.911  0.1458 -0.1731  0.0842
12130DPPC   PO415761   2.463   3.570  15.899  0.3631  0.1494  0.0170
12130DPPC   GL115762   2.506   3.771  16.350 -0.1157 -0.1039 -0.2016
12130DPPC   GL215763   2.375   3.528  16.340 -0.1786 -0.2052  0.0740
12130DPPC   C1A15764   2.656   3.908  16.681  0.2654 -0.4517  0.3038
12130DPPC   C2A15765   2.578   3.825  17.038  0.0381 -0.0984 -0.0408
12130DPPC   C3A15766   2.515   3.795  17.516 -0.3601 -0.2246 -0.1322
12130DPPC   C4A15767   2.628   3.952  18.004 -0.0326 -0.0131 -0.2020
12130DPPC   C1B15768   2.232   3.405  16.639  0.0492 -0.2251  0.1619
12130DPPC   C2B15769   2.209   3.439  17.092  0.0972 -0.0008  0.2488
12130DPPC   C3B15770   2.166   3.480  17.568  0.1780  0.0991  0.0952
12130DPPC   C4B15771   2.232   3.661  18.027 -0.1420  0.2361  0.1266
12131DPPC   NC315772  24.877   0.052  15.890  0.0799  0.3006 -0.1800
12131DPPC   PO415773  24.501   0.158  15.741  0.0235 -0.1379 -0.5081
12131DPPC   GL115774  24.187   0.294  15.946  0.0464 -0.2187 -0.0000
12131DPPC   GL215775  24.290   0.550  15.944  0.0775  0.0573 -0.0273
12131DPPC   C1A15776  24.156   0.141  16.266 -0.0652  0.1449 -0.1736
12131DPPC   C2A15777  24.120   0.045  16.652  0.1593 -0.0225  0.2942
12131DPPC   C3A15778  24.163   0.106  17.095  0.0144  0.1490 -0.1868
12131DPPC   C4A15779  24.151   0.156  17.589  0.1196 -0.0192 -0.0013
12131DPPC   C1B15780  24.478   0.747  16.284  0.1974  0.2381  0.1616
12131DPPC   C2B15781  24.485   0.883  16.642 -0.0792 -0.1708 -0.0662
12131DPPC   C3B15782  24.479   0.927  17.132 -0.4291  0.2045  0.0149
12131DPPC   C4B15783  24.514   0.963  17.679  0.0668  0.1148  0.2081
12132DPPC   NC315784  24.949   3.600  15.240 -0.2691 -0.5196  0.2543
12132DPPC   PO415785  25.051   3.793  15.589 -0.2297 -0.2471 -0.0071
12132DPPC   GL115786  25.159   3.716  15.974 -0.3957 -0.0788  0.1153
12132DPPC   GL215787  25.384   3.605  16.075 -0.2247  0.1861  0.1470
12132DPPC   C1A15788  24.977   3.520  16.230  0.0879  0.1628 -0.2437
12132DPPC   C2A15789  24.963   3.382  16.608 -0.0668 -0.1402  0.3059
12132DPPC   C3A15790  25.059   3.482  17.082  0.3460  0.2289 -0.2096
12132DPPC   C4A15791  24.990   3.536  17.519  0.1791  0.2242  0.1946
12132DPPC   C1B15792  25.442   3.758  16.386  0.4390 -0.0974  0.3060
12132DPPC   C2B15793  25.311   3.823  16.805  0.2598  0.0438 -0.3363
12132DPPC   C3B15794  25.335   3.862  17.283 -0.0420 -0.0928 -0.0767
12132DPPC   C4B15795  25.342   3.916  17.757 -0.0996 -0.0228  0.0498
12133DPPC   NC315796  26.243   5.264  15.181 -0.2101 -0.0877  0.0431
12133DPPC   PO415797  25.948   5.173  15.443 -0.1421  0.0508  0.2133
12133DPPC   GL115798  25.871   5.308  15.837  0.3195  0.0425  0.0766
12133DPPC   GL215799  25.796   5.565  15.810  0.1548  0.0732  0.1399
12133DPPC   C1A15800  25.692   5.209  16.132 -0.0227  0.0289  0.0674
12133DPPC   C2A15801  25.721   5.066  16.526 -0.1913  0.0296 -0.1878
12133DPPC   C3A15802  25.668   5.064  16.986  0.2373 -0.0532 -0.1364
12133DPPC   C4A15803  25.649   5.113  17.495  0.0709  0.2619  0.0762
12133DPPC   C1B15804  25.835   5.691  16.115 -0.3340  0.2575 -0.1179
12133DPPC   C2B15805  25.998   5.926  16.417 -0.1887 -0.1776 -0.2706
12133DPPC   C3B15806  25.990   5.983  16.890 -0.2411 -0.0173  0.0743
12133DPPC   C4B15807  26.024   5.948  17.369  0.0499 -0.1852  0.0043
12134DPPC   NC315808   0.284   4.206  15.646  0.2574 -0.1952 -0.0042
12134DPPC   PO415809   0.378   4.590  15.724 -0.1539  0.0745 -0.2640
12134DPPC   GL115810   0.470   4.759  16.065  0.2014 -0.1674 -0.1399
12134DPPC   GL215811   0.533   4.603  16.278  0.1551 -0.2227 -0.0223
12134DPPC   C1A15812   0.641   5.009  16.251  0.1054  0.0428 -0.0490
12134DPPC   C2A15813   0.573   5.007  16.669 -0.0202 -0.0365  0.1972
12134DPPC   C3A15814   0.575   5.018  17.150 -0.0532  0.2109  0.0881
12134DPPC   C4A15815   0.734   5.056  17.657  0.1293  0.3729 -0.1533
12134DPPC   C1B15816   0.658   4.540  16.614 -0.3601 -0.0265 -0.1386
12134DPPC   C2B15817   0.717   4.544  16.993  0.1811  0.4368 -0.0144
12134DPPC   C3B15818   0.682   4.622  17.442 -0.0291 -0.1085  0.1078
12134DPPC   C4B15819   0.711   4.633  17.957  0.2168 -0.1227  0.2430
12135DPPC   NC315820  22.928   3.565  15.721  0.0124 -0.1447  0.0387
12135DPPC   PO415821  22.744   3.204  15.746  0.1074 -0.0121 -0.1096
12135DPPC   GL115822  22.700   3.356  16.078 -0.1737 -0.1098  0.1825
12135DPPC   GL215823  22.514   3.540  15.977  0.0311 -0.1851 -0.0764
12135DPPC   C1A15824  22.804   3.379  16.414 -0.1306  0.1635  0.0557
12135DPPC   C2A15825  22.843   3.372  16.837  0.1112 -0.2691  0.0710
12135DPPC   C3A15826  22.844   3.367  17.360 -0.0392  0.1216 -0.0140
12135DPPC   C4A15827  22.783   3.467  17.804 -0.1954  0.1901  0.4988
12135DPPC   C1B15828  22.376   3.631  16.283  0.0503 -0.0502  0.0779
12135DPPC   C2B15829  22.382   3.611  16.677  0.3300  0.2199  0.3498
12135DPPC   C3B15830  22.409   3.499  17.109 -0.1831 -0.1633  0.0406
12135DPPC   C4B15831  22.394   3.567  17.547 -0.1584  0.1028 -0.0468
12136DPPC   NC315832  26.079   4.216  15.151 -0.0443 -0.0766 -0.0172
12136DPPC   PO415833  26.260   4.189  15.515  0.0572  0.1358  0.1827
12136DPPC   GL115834  26.355   4.400  15.862  0.0977 -0.1561  0.0598
12136DPPC   GL215835  26.405   4.100  16.006  0.0247 -0.1806 -0.0898
12136DPPC   C1A15836  26.439   4.578  16.176 -0.1363  0.3174 -0.1122
12136DPPC   C2A15837  26.578   4.722  16.577 -0.2136 -0.1041  0.0238
12136DPPC   C3A15838  26.597   4.709  17.030 -0.0572  0.0691 -0.3223
12136DPPC   C4A15839  26.572   4.782  17.521 -0.2360 -0.1398  0.1072
12136DPPC   C1B15840  26.235   4.015  16.338  0.1681  0.2668 -0.4606
12136DPPC   C2B15841  26.194   3.935  16.713  0.0927  0.4198  0.1167
12136DPPC   C3B15842  26.296   3.976  17.116 -0.0660  0.0822  0.1655
12136DPPC   C4B15843  26.279   4.038  17.591  0.0675  0.2126  0.0670
12137DPPC   NC315844   2.160   3.815  15.577  0.1845 -0.2367  0.0183
12137DPPC   PO415845   1.901   4.110  15.554  0.4725 -0.1909 -0.1684
12137DPPC   GL115846   1.959   4.374  15.822 -0.1440 -0.0585  0.1266
12137DPPC   GL215847   1.903   4.631  15.863  0.0775  0.1645 -0.0955
12137DPPC   C1A15848   1.759   4.280  16.118  0.1809 -0.0082  0.1027
12137DPPC   C2A15849   1.702   4.139  16.532 -0.2522 -0.0063 -0.0509
12137DPPC   C3A15850   1.723   4.100  16.994 -0.0810  0.0729 -0.0716
12137DPPC   C4A15851   1.567   4.197  17.477  0.0305  0.1001 -0.1720
12137DPPC   C1B15852   1.927   4.839  16.188 -0.0252 -0.1302 -0.2066
12137DPPC   C2B15853   1.983   4.973  16.626 -0.0737  0.1146  0.1900
12137DPPC   C3B15854   1.940   4.992  17.125  0.3135 -0.2493  0.1194
12137DPPC   C4B15855   1.893   4.906  17.634  0.0357  0.2023 -0.1113
12138DPPC   NC315856  22.476   2.745  15.634 -0.0088 -0.5902 -0.1994
12138DPPC   PO415857  22.305   2.399  15.593  0.0199  0.3277  0.0525
12138DPPC   GL115858  22.205   2.350  15.915  0.1128 -0.3589  0.2179
12138DPPC   GL215859  22.295   2.077  15.920 -0.2351  0.2571 -0.4059
12138DPPC   C1A15860  22.452   2.513  16.143  0.2641  0.0447 -0.1421
12138DPPC   C2A15861  22.407   2.652  16.515 -0.1037 -0.1598 -0.0165
12138DPPC   C3A15862  22.428   2.531  16.924  0.1788 -0.2157  0.0327
12138DPPC   C4A15863  22.400   2.593  17.397  0.1518  0.4406  0.1281
12138DPPC   C1B15864  22.415   2.053  16.281 -0.2632 -0.0141  0.0166
12138DPPC   C2B15865  22.516   2.130  16.710 -0.1117  0.0604 -0.2418
12138DPPC   C3B15866  22.507   2.109  17.189  0.3438 -0.0093 -0.1247
12138DPPC   C4B15867  22.484   2.133  17.626  0.1517  0.1078  0.1982
12139DPPC   NC315868   2.248   3.319  15.391  0.1054 -0.0344  0.1450
12139DPPC   PO415869   2.502   3.145  15.608 -0.0843  0.1867  0.1356
12139DPPC   GL115870   2.424   2.893  15.957 -0.0770 -0.0354  0.0661
12139DPPC   GL215871   2.527   3.108  16.150  0.1566 -0.1541  0.1967
12139DPPC   C1A15872   2.395   2.686  16.265  0.3723  0.3736 -0.1318
12139DPPC   C2A15873   2.367   2.523  16.609  0.0709  0.2458 -0.0775
12139DPPC   C3A15874   2.296   2.471  17.078 -0.2600 -0.3695 -0.0788
12139DPPC   C4A15875   2.184   2.419  17.478  0.1150 -0.1865 -0.1102
12139DPPC   C1B15876   2.387   3.066  16.461 -0.2290 -0.0144  0.0149
12139DPPC   C2B15877   2.282   2.993  16.850  0.0223  0.1892 -0.0810
12139DPPC   C3B15878   2.167   2.957  17.262  0.1423 -0.1550  0.0321
12139DPPC   C4B15879   2.132   2.938  17.719 -0.0671 -0.0773 -0.1008
12140DPPC   NC315880  22.515   4.311  15.513 -0.1165 -0.1213  0.0563
12140DPPC   PO415881  22.858   4.443  15.646  0.1122 -0.0105  0.0809
12140DPPC   GL115882  22.699   4.664  16.003  0.3405 -0.1064 -0.4005
12140DPPC   GL215883  22.558   4.379  16.161  0.1029 -0.0957  0.0124
12140DPPC   C1A15884  22.624   4.908  16.337  0.0654  0.3923  0.0378
12140DPPC   C2A15885  22.639   4.969  16.774 -0.0974 -0.2107 -0.0797
12140DPPC   C3A15886  22.676   4.888  17.276  0.0660 -0.4248 -0.0795
12140DPPC   C4A15887  22.626   4.974  17.788  0.3484 -0.0325 -0.3099
12140DPPC   C1B15888  22.680   4.350  16.506  0.0031 -0.4302  0.0925
12140DPPC   C2B15889  22.760   4.374  16.890  0.2376  0.2382  0.0353
12140DPPC   C3B15890  22.728   4.389  17.346 -0.0663  0.2140  0.0810
12140DPPC   C4B15891  22.756   4.358  17.838  0.0793 -0.0459  0.2217
12141DPPC   NC315892  23.574   1.222  15.299 -0.0332 -0.1033  0.3832
12141DPPC   PO415893  23.249   1.306  15.451 -0.2901 -0.1205 -0.1982
12141DPPC   GL115894  23.131   1.269  15.918  0.0538 -0.0536 -0.0247
12141DPPC   GL215895  23.388   1.322  15.962  0.1078  0.2923  0.1484
12141DPPC   C1A15896  22.885   1.075  16.149 -0.0478 -0.0229 -0.0210
12141DPPC   C2A15897  22.650   1.111  16.456 -0.0361  0.1214  0.0810
12141DPPC   C3A15898  22.622   1.129  16.941 -0.0681 -0.1047 -0.0069
12141DPPC   C4A15899  22.660   1.163  17.397  0.1674  0.4600  0.1098
12141DPPC   C1B15900  23.559   1.493  16.244  0.3322 -0.2203 -0.1021
12141DPPC   C2B15901  23.479   1.684  16.595  0.0092  0.2129  0.0062
12141DPPC   C3B15902  23.546   1.708  17.019 -0.1001 -0.0542 -0.0392
12141DPPC   C4B15903  23.463   1.833  17.531 -0.1870 -0.0511  0.1317
12142DPPC   NC315904  24.737   4.787  15.565 -0.1003  0.1631 -0.2336
12142DPPC   PO415905  25.125   4.861  15.664  0.0719  0.0497 -0.0305
12142DPPC   GL115906  25.258   5.071  16.005 -0.0225  0.1399  0.0539
12142DPPC   GL215907  25.398   4.809  16.018 -0.0870  0.0721  0.2307
12142DPPC   C1A15908  25.256   5.147  16.345  0.0758 -0.1099 -0.1486
12142DPPC   C2A15909  25.270   5.295  16.726 -0.0444  0.1416  0.1383
12142DPPC   C3A15910  25.281   5.354  17.175  0.2041  0.1720 -0.0310
12142DPPC   C4A15911  25.206   5.368  17.641 -0.2370  0.0723 -0.3580
12142DPPC   C1B15912  25.360   4.695  16.386  0.2293  0.0723  0.0895
12142DPPC   C2B15913  25.329   4.735  16.792  0.0650 -0.3080  0.2056
12142DPPC   C3B15914  25.362   4.787  17.301  0.0151 -0.1920  0.1694
12142DPPC   C4B15915  25.326   4.872  17.799  0.2352  0.0779 -0.0574
12143DPPC   NC315916  24.820   6.081  15.131  0.4235  0.1917  0.0706
12143DPPC   PO415917  24.821   5.861  15.472  0.0848 -0.2904 -0.0401
12143DPPC   GL115918  24.466   5.666  15.759 -0.2434 -0.3356 -0.1028
12143DPPC   GL215919  24.734   5.765  15.854  0.0337  0.5342  0.1917
12143DPPC   C1A15920  24.404   5.510  16.078 -0.0800 -0.0454  0.1357
12143DPPC   C2A15921  24.270   5.554  16.463 -0.1326  0.0919 -0.2427
12143DPPC   C3A15922  24.311   5.652  16.940  0.1223  0.3903 -0.0521
12143DPPC   C4A15923  24.293   5.700  17.463 -0.0901  0.0116 -0.2673
12143DPPC   C1B15924  24.672   5.781  16.246 -0.0117 -0.4429  0.0249
12143DPPC   C2B15925  24.654   5.964  16.618 -0.0456  0.0116 -0.2571
12143DPPC   C3B15926  24.705   6.014  17.077  0.0904 -0.0326 -0.0389
12143DPPC   C4B15927  24.805   6.079  17.595  0.1328  0.1550  0.1243
12144DPPC   NC315928   0.622   3.168  15.243  0.0930 -0.2328  0.2408
12144DPPC   PO415929   0.327   3.319  15.416  0.2739  0.0492  0.2524
12144DPPC   GL115930   0.195   3.359  15.729 -0.4294 -0.1712  0.0618
12144DPPC   GL215931   0.396   3.643  15.776 -0.0451 -0.6296 -0.0789
12144DPPC   C1A15932   0.320   3.315  16.063  0.1559 -0.1482  0.1431
12144DPPC   C2A15933   0.318   3.339  16.477  0.2901 -0.4201 -0.0581
12144DPPC   C3A15934   0.359   3.293  16.950  0.0932  0.0474  0.1367
12144DPPC   C4A15935   0.401   3.249  17.437 -0.2686  0.1358  0.2460
12144DPPC   C1B15936   0.588   3.647  16.065 -0.2051 -0.1134 -0.0425
12144DPPC   C2B15937   0.675   3.672  16.425 -0.4686 -0.2509 -0.0026
12144DPPC   C3B15938   0.759   3.600  16.879  0.1489 -0.2559 -0.1018
12144DPPC   C4B15939   0.820   3.560  17.322 -0.0855 -0.0486 -0.3256
12145DPPC   NC315940   1.071   4.050  15.337  0.0704 -0.3305 -0.3388
12145DPPC   PO415941   0.746   4.302  15.473 -0.0719 -0.1564  0.0387
12145DPPC   GL115942   0.771   4.401  15.921  0.6862  0.2910  0.0402
12145DPPC   GL215943   0.885   4.697  15.890  0.0296 -0.0411 -0.0342
12145DPPC   C1A15944   0.761   4.234  16.248 -0.2054  0.1379 -0.5175
12145DPPC   C2A15945   0.772   4.129  16.634  0.1307  0.0839 -0.0506
12145DPPC   C3A15946   0.738   4.054  17.132  0.0583  0.0079  0.1634
12145DPPC   C4A15947   0.682   4.151  17.603 -0.1375 -0.4815 -0.1011
12145DPPC   C1B15948   1.002   4.829  16.215 -0.1309  0.1124 -0.0640
12145DPPC   C2B15949   1.085   4.815  16.637  0.0014 -0.2285 -0.1190
12145DPPC   C3B15950   1.129   4.864  17.090 -0.1266  0.1642  0.0906
12145DPPC   C4B15951   1.341   4.792  17.559 -0.0828 -0.0374 -0.1351
12146DPPC   NC315952  26.178   3.404  15.533  0.1513  0.3674 -0.2152
12146DPPC   PO415953  26.289   3.749  15.715 -0.1623 -0.0274  0.3593
12146DPPC   GL115954  26.475   3.712  16.079  0.2195  0.2799  0.0612
12146DPPC   GL215955  26.246   3.590  16.174 -0.0137  0.0309 -0.0841
12146DPPC   C1A15956  26.620   3.806  16.381 -0.1104 -0.2832 -0.0783
12146DPPC   C2A15957  26.687   3.729  16.768 -0.1527 -0.4046 -0.2969
12146DPPC   C3A15958  26.722   3.744  17.188  0.1736 -0.2041  0.1489
12146DPPC   C4A15959  26.702   3.765  17.658 -0.1745  0.0933 -0.1579
12146DPPC   C1B15960  26.283   3.529  16.512  0.0015 -0.3671 -0.0232
12146DPPC   C2B15961  26.263   3.468  16.936  0.1254  0.0935  0.1732
12146DPPC   C3B15962  26.259   3.531  17.403 -0.0017  0.0774  0.1867
12146DPPC   C4B15963  26.259   3.547  17.924  0.1964  0.0842  0.2900
12147DPPC   NC315964  25.439   3.377  15.733 -0.4109 -0.0738 -0.0287
12147DPPC   PO415965  25.850   3.508  15.911 -0.0056  0.0131 -0.1519
12147DPPC   GL115966  25.856   3.639  16.356  0.3295 -0.0907  0.0161
12147DPPC   GL215967  25.910   3.353  16.334 -0.0905  0.0665 -0.1677
12147DPPC   C1A15968  25.858   3.665  16.679 -0.4390 -0.0375  0.2618
12147DPPC   C2A15969  25.820   3.641  17.128 -0.2157 -0.0195 -0.0442
12147DPPC   C3A15970  25.838   3.705  17.613 -0.0815 -0.1116 -0.0472
12147DPPC   C4A15971  25.753   3.777  18.046 -0.0372 -0.1005 -0.3080
12147DPPC   C1B15972  25.972   3.144  16.692 -0.2276 -0.0174  0.1704
12147DPPC   C2B15973  25.869   3.171  17.105 -0.0020 -0.3136 -0.3598
12147DPPC   C3B15974  25.920   3.228  17.569  0.0294 -0.4732  0.2012
12147DPPC   C4B15975  25.932   3.263  18.079 -0.0448  0.1410 -0.3783
12148DPPC   NC315976  23.830   3.794  16.041 -0.0221  0.3381  0.2044
12148DPPC   PO415977  23.979   3.515  15.837  0.0512 -0.1222  0.0641
12148DPPC   GL115978  24.142   3.277  16.132 -0.0190  0.0724 -0.0347
12148DPPC   GL215979  24.100   3.544  16.345  0.2862 -0.0389 -0.0468
12148DPPC   C1A15980  24.170   3.005  16.419 -0.1393 -0.0462 -0.0711
12148DPPC   C2A15981  24.190   2.772  16.776 -0.3580  0.0834  0.2851
12148DPPC   C3A15982  24.174   2.828  17.252 -0.1429 -0.1286 -0.1052
12148DPPC   C4A15983  24.188   2.873  17.766  0.0586 -0.0368  0.0810
12148DPPC   C1B15984  24.133   3.420  16.633 -0.1272 -0.0993 -0.0793
12148DPPC   C2B15985  24.184   3.291  16.985  0.1823 -0.0835 -0.2338
12148DPPC   C3B15986  24.199   3.323  17.442  0.0397  0.3022  0.1431
12148DPPC   C4B15987  24.113   3.425  17.898 -0.1504  0.2044 -0.2338
12149DPPC   NC315988   1.489   1.996  15.692 -0.2484  0.2515  0.1566
12149DPPC   PO415989   1.114   1.786  15.760  0.3016  0.2443  0.0568
12149DPPC   GL115990   1.147   2.011  16.135  0.1219  0.0449  0.1566
12149DPPC   GL215991   0.925   2.200  16.021  0.0619  0.2821  0.4123
12149DPPC   C1A15992   1.075   2.025  16.510  0.4117  0.1778  0.0488
12149DPPC   C2A15993   0.894   2.052  16.895 -0.3612  0.0254  0.0581
12149DPPC   C3A15994   0.904   2.108  17.379 -0.0707  0.0458 -0.1144
12149DPPC   C4A15995   0.912   2.060  17.864 -0.0589  0.1705 -0.1321
12149DPPC   C1B15996   0.687   2.227  16.327 -0.3148  0.0020  0.1924
12149DPPC   C2B15997   0.408   2.261  16.659  0.3000  0.2042  0.2791
12149DPPC   C3B15998   0.417   2.254  17.144 -0.0836 -0.0738 -0.4046
12149DPPC   C4B15999   0.527   2.363  17.613 -0.0987  0.0510 -0.0485
12150DPPC   NC316000   0.153   2.509  15.337 -0.0593 -0.1587 -0.3428
12150DPPC   PO416001   0.369   2.814  15.578  0.1581  0.1336  0.0375
12150DPPC   GL116002   0.451   2.917  15.955  0.0772  0.1607  0.0506
12150DPPC   GL216003   0.193   2.917  16.088 -0.2314 -0.2110  0.1084
12150DPPC   C1A16004   0.664   3.018  16.227  0.3819 -0.1856 -0.0239
12150DPPC   C2A16005   0.807   3.173  16.589  0.0318 -0.0478  0.0843
12150DPPC   C3A16006   0.885   3.060  17.092 -0.1047 -0.1209 -0.0671
12150DPPC   C4A16007   0.912   3.131  17.600 -0.1208 -0.2774  0.0719
12150DPPC   C1B16008   0.322   2.863  16.398  0.0450 -0.5228  0.0620
12150DPPC   C2B16009   0.431   2.789  16.747  0.1584  0.2542 -0.1452
12150DPPC   C3B16010   0.438   2.844  17.206 -0.0359 -0.1382  0.0738
12150DPPC   C4B16011   0.443   2.862  17.766 -0.2807  0.0556 -0.1237
12151DPPC   NC316012   1.558   6.281  15.650  0.2400 -0.1783 -0.0147
12151DPPC   PO416013   1.887   6.489  15.565  0.0556 -0.2418 -0.2978
12151DPPC   GL116014   1.912   6.623  15.984  0.1112 -0.0612 -0.0346
12151DPPC   GL216015   1.778   6.435  16.086 -0.2158  0.3514  0.1230
12151DPPC   C1A16016   2.016   6.769  16.286 -0.0318 -0.2425 -0.0030
12151DPPC   C2A16017   2.144   6.862  16.674 -0.0438  0.1989 -0.1457
12151DPPC   C3A16018   2.101   6.856  17.137 -0.0287 -0.0969 -0.2330
12151DPPC   C4A16019   2.110   6.916  17.677  0.1025  0.1018 -0.1254
12151DPPC   C1B16020   1.750   6.497  16.442 -0.0380  0.1469 -0.1024
12151DPPC   C2B16021   1.703   6.510  16.818 -0.3063  0.2690 -0.1128
12151DPPC   C3B16022   1.683   6.475  17.259  0.0036 -0.0835  0.1500
12151DPPC   C4B16023   1.615   6.568  17.719  0.3150 -0.1228  0.1535
12152DPPC   NC316024  24.864   2.727  15.763 -0.1243  0.0213  0.0925
12152DPPC   PO416025  25.173   2.968  15.678  0.2104 -0.0507 -0.2528
12152DPPC   GL116026  25.250   3.209  16.096  0.1389  0.0531  0.1547
12152DPPC   GL216027  25.033   3.013  16.202  0.1460 -0.3978  0.2777
12152DPPC   C1A16028  25.398   3.288  16.427  0.0817  0.3972  0.4094
12152DPPC   C2A16029  25.517   3.328  16.819 -0.5334  0.3237  0.1407
12152DPPC   C3A16030  25.495   3.335  17.317  0.1139  0.1195 -0.0816
12152DPPC   C4A16031  25.505   3.396  17.826  0.0026  0.2680  0.0588
12152DPPC   C1B16032  25.071   2.874  16.508  0.3287 -0.1613 -0.0059
12152DPPC   C2B16033  25.052   3.001  16.889  0.1656  0.1126  0.2347
12152DPPC   C3B16034  25.070   3.033  17.352  0.3008 -0.2036 -0.1644
12152DPPC   C4B16035  25.119   3.110  17.858  0.0153  0.2067  0.0830
12153DPPC   NC316036  25.853   1.767  15.733  0.0986  0.0492 -0.2256
12153DPPC   PO416037  25.589   1.459  15.752 -0.0394 -0.1592  0.2641
12153DPPC   GL116038  25.578   1.267  16.192 -0.1231 -0.2273  0.2100
12153DPPC   GL216039  25.682   1.555  16.214  0.2213 -0.2086  0.2474
12153DPPC   C1A16040  25.647   1.250  16.589 -0.3341 -0.2843  0.1824
12153DPPC   C2A16041  25.712   1.355  16.953 -0.2010 -0.1290  0.1259
12153DPPC   C3A16042  25.765   1.415  17.458 -0.2658 -0.1899 -0.2299
12153DPPC   C4A16043  25.694   1.411  17.981  0.0074 -0.0468  0.0141
12153DPPC   C1B16044  25.634   1.829  16.457  0.1629 -0.2660  0.0450
12153DPPC   C2B16045  25.647   1.894  16.910 -0.1750 -0.4496 -0.0157
12153DPPC   C3B16046  25.711   1.937  17.401 -0.1042  0.2667  0.0394
12153DPPC   C4B16047  25.636   1.968  17.877 -0.0574 -0.1438 -0.0688
12154DPPC   NC316048  22.950   5.893  15.372  0.2199  0.0006 -0.1170
12154DPPC   PO416049  23.087   5.644  15.653 -0.1764 -0.0728  0.0982
12154DPPC   GL116050  22.878   5.656  16.019  0.3300  0.0238 -0.1904
12154DPPC   GL216051  22.776   5.438  16.026 -0.4264  0.1237 -0.0482
12154DPPC   C1A16052  22.880   5.773  16.376 -0.1798 -0.1297 -0.1147
12154DPPC   C2A16053  22.954   5.757  16.794  0.3585 -0.3143 -0.3568
12154DPPC   C3A16054  22.915   5.735  17.296 -0.0592 -0.0705 -0.0486
12154DPPC   C4A16055  22.994   5.766  17.780 -0.2695  0.0459  0.1805
12154DPPC   C1B16056  22.572   5.425  16.309  0.1008  0.1304 -0.0177
12154DPPC   C2B16057  22.535   5.442  16.683 -0.0738  0.0382 -0.1104
12154DPPC   C3B16058  22.534   5.431  17.132 -0.2166 -0.0533 -0.0046
12154DPPC   C4B16059  22.622   5.456  17.661 -0.0571  0.0324  0.2925
12155DPPC   NC316060   2.649   2.694  15.603  0.1057 -0.0830 -0.2242
12155DPPC   PO416061   2.268   2.518  15.524  0.1804 -0.1639  0.1981
12155DPPC   GL116062   2.083   2.472  15.880  0.1706  0.3197  0.3707
12155DPPC   GL216063   2.033   2.643  16.050 -0.1418  0.1997 -0.0738
12155DPPC   C1A16064   2.109   2.243  16.201  0.0074  0.0559 -0.2091
12155DPPC   C2A16065   1.951   2.102  16.599 -0.1050 -0.0083 -0.1768
12155DPPC   C3A16066   1.885   2.157  17.103  0.2495 -0.0200  0.0542
12155DPPC   C4A16067   1.724   2.196  17.548 -0.3593  0.3697 -0.1174
12155DPPC   C1B16068   1.956   2.619  16.392  0.1340 -0.2592  0.1220
12155DPPC   C2B16069   1.820   2.616  16.747 -0.2272 -0.3203 -0.3642
12155DPPC   C3B16070   1.787   2.669  17.249  0.3446 -0.1105 -0.0098
12155DPPC   C4B16071   1.719   2.701  17.736  0.3299  0.2959  0.2395
12156DPPC   NC316072  23.274   5.327  15.977  0.0986 -0.1797  0.2800
12156DPPC   PO416073  23.521   5.015  15.916  0.1959 -0.0531 -0.4145
12156DPPC   GL116074  23.624   4.835  16.196 -0.2914  0.5338 -0.0798
12156DPPC   GL216075  23.819   4.602  16.058 -0.0177  0.0582  0.2719
12156DPPC   C1A16076  23.843   4.857  16.545 -0.2437 -0.1438  0.0285
12156DPPC   C2A16077  23.938   4.848  16.914  0.0190 -0.2163 -0.1345
12156DPPC   C3A16078  23.988   4.886  17.400  0.3031 -0.0887  0.1095
12156DPPC   C4A16079  23.963   4.881  17.861 -0.0399  0.1201  0.0506
12156DPPC   C1B16080  23.937   4.352  16.306  0.0134 -0.1578  0.0282
12156DPPC   C2B16081  24.025   4.348  16.688  0.0976 -0.1625 -0.0612
12156DPPC   C3B16082  23.979   4.361  17.167 -0.0378 -0.0266  0.2300
12156DPPC   C4B16083  23.987   4.447  17.636  0.2055  0.3450 -0.1410
12157DPPC   NC316084   1.061   1.307  15.678  0.0778  0.0889 -0.1370
12157DPPC   PO416085   0.716   1.201  15.791 -0.1055  0.2301 -0.2089
12157DPPC   GL116086   0.736   1.120  16.109 -0.2041  0.2098 -0.0345
12157DPPC   GL216087   1.016   1.157  16.163  0.2176  0.1307  0.2436
12157DPPC   C1A16088   0.401   1.091  16.305  0.1543 -0.3657  0.1726
12157DPPC   C2A16089   0.183   0.978  16.628 -0.1152 -0.1231  0.1097
12157DPPC   C3A16090   0.188   0.985  17.114 -0.0349 -0.1492  0.1990
12157DPPC   C4A16091   0.190   0.921  17.549  0.1001  0.1099  0.2478
12157DPPC   C1B16092   1.080   1.078  16.515 -0.1442 -0.0626 -0.1286
12157DPPC   C2B16093   1.043   1.135  16.935 -0.1171 -0.1338  0.3384
12157DPPC   C3B16094   1.087   1.075  17.429  0.0268 -0.0138  0.1787
12157DPPC   C4B16095   0.993   1.190  17.931  0.1458 -0.0848  0.0302
12158DPPC   NC316096  22.644   1.769  15.717  0.0295  0.2071  0.0525
12158DPPC   PO416097  22.623   1.365  15.715  0.2150 -0.0534 -0.0228
12158DPPC   GL116098  22.387   1.193  16.030 -0.1207 -0.1285  0.2783
12158DPPC   GL216099  22.433   0.918  16.002  0.1533 -0.1341 -0.2669
12158DPPC   C1A16100  22.209   1.314  16.294  0.1872  0.0728 -0.2267
12158DPPC   C2A16101  22.194   1.276  16.710  0.0751 -0.0829  0.1094
12158DPPC   C3A16102  22.194   1.293  17.191 -0.0671 -0.2886  0.0795
12158DPPC   C4A16103  22.241   1.261  17.717 -0.1031 -0.4043 -0.2076
12158DPPC   C1B16104  22.215   0.886  16.287 -0.1119 -0.0790  0.0296
12158DPPC   C2B16105  22.307   0.779  16.694  0.1573 -0.1360 -0.3210
12158DPPC   C3B16106  22.307   0.785  17.161  0.1290 -0.0520  0.0548
12158DPPC   C4B16107  22.232   0.685  17.614 -0.0650 -0.0360  0.0101
12159DPPC   NC316108  25.553   5.837  15.527 -0.0829 -0.3380  0.0985
12159DPPC   PO416109  25.718   6.218  15.544  0.2601 -0.2522 -0.2025
12159DPPC   GL116110  25.615   6.332  15.939 -0.2140  0.0447  0.0324
12159DPPC   GL216111  25.563   6.054  15.990  0.4231  0.1814 -0.1776
12159DPPC   C1A16112  25.540   6.648  16.166 -0.1107  0.0292  0.3457
12159DPPC   C2A16113  25.495   6.941  16.387 -0.1586 -0.0057 -0.1172
12159DPPC   C3A16114  25.355   7.116  16.840  0.0090 -0.0367  0.0096
12159DPPC   C4A16115  25.442   7.216  17.296 -0.0869  0.1439  0.2193
12159DPPC   C1B16116  25.512   6.076  16.358  0.1666 -0.1241 -0.1085
12159DPPC   C2B16117  25.537   6.137  16.766 -0.2103 -0.2620 -0.5064
12159DPPC   C3B16118  25.589   6.168  17.236 -0.1839  0.1917  0.1811
12159DPPC   C4B16119  25.642   6.127  17.730  0.1743 -0.4876 -0.0661
12160DPPC   NC316120  25.336   1.046  15.833  0.0873  0.2547 -0.3547
12160DPPC   PO416121  25.006   0.821  15.678 -0.0918  0.0503 -0.0800
12160DPPC   GL116122  24.838   0.512  16.004 -0.1838 -0.1416  0.0748
12160DPPC   GL216123  24.926   0.685  16.170 -0.0575 -0.5583  0.0759
12160DPPC   C1A16124  24.670   0.369  16.295 -0.5899  0.3151  0.0587
12160DPPC   C2A16125  24.548   0.333  16.710  0.2320  0.1827 -0.3067
12160DPPC   C3A16126  24.506   0.444  17.188 -0.2872  0.0093  0.0955
12160DPPC   C4A16127  24.587   0.443  17.702 -0.2248  0.2092  0.1850
12160DPPC   C1B16128  24.892   0.715  16.487 -0.2434 -0.0576 -0.3293
12160DPPC   C2B16129  24.881   0.653  16.921 -0.1248 -0.1815  0.2522
12160DPPC   C3B16130  24.911   0.709  17.368 -0.1971 -0.0520 -0.1906
12160DPPC   C4B16131  24.950   0.746  17.841  0.4397 -0.0102 -0.0130
12161DPPC   NC316132  24.088   4.285  15.849 -0.2396  0.0552  0.3973
12161DPPC   PO416133  24.223   4.674  15.844  0.1732 -0.0917 -0.2093
12161DPPC   GL116134  24.474   4.681  16.206  0.1331 -0.2450 -0.0506
12161DPPC   GL216135  24.214   4.689  16.392 -0.0201 -0.0635  0.1693
12161DPPC   C1A16136  24.720   4.531  16.432  0.3939  0.1588 -0.2011
12161DPPC   C2A16137  24.854   4.489  16.831 -0.0474 -0.2281 -0.0763
12161DPPC   C3A16138  24.904   4.506  17.329  0.0478  0.0233 -0.1706
12161DPPC   C4A16139  24.866   4.527  17.804  0.1388  0.3786  0.0146
12161DPPC   C1B16140  24.362   4.661  16.712  0.2785  0.0706  0.3400
12161DPPC   C2B16141  24.394   4.705  17.154 -0.0998  0.0854 -0.1046
12161DPPC   C3B16142  24.451   4.743  17.631  0.1487 -0.1398  0.0647
12161DPPC   C4B16143  24.443   4.800  18.107  0.2606  0.2058 -0.1140
12162DPPC   NC316144  21.996   0.122  15.422 -0.1156 -0.0696 -0.2148
12162DPPC   PO416145  22.346   0.065  15.639 -0.0983 -0.0573 -0.2019
12162DPPC   GL116146  22.550   0.154  16.043  0.6953 -0.0889 -0.1010
12162DPPC   GL216147  22.521  -0.178  16.085 -0.0827 -0.3046  0.3067
12162DPPC   C1A16148  22.796   0.473  16.077  0.0787  0.0354 -0.3447
12162DPPC   C2A16149  22.789   0.628  16.460 -0.0276 -0.0225  0.2363
12162DPPC   C3A16150  22.774   0.693  16.887 -0.0118  0.2519  0.2211
12162DPPC   C4A16151  22.743   0.695  17.370 -0.1317  0.2103  0.3303
12162DPPC   C1B16152  22.388  -0.222  16.388  0.2473 -0.1800 -0.1905
12162DPPC   C2B16153  22.422  -0.246  16.800  0.0668 -0.0952 -0.0621
12162DPPC   C3B16154  22.424  -0.226  17.301  0.0279 -0.2187  0.0833
12162DPPC   C4B16155  22.466  -0.209  17.826  0.0318 -0.1970  0.1397
12163DPPC   NC316156   0.540   5.633  15.581  0.3794 -0.1682  0.2278
12163DPPC   PO416157   0.648   5.338  15.370  0.2067 -0.0604 -0.2295
12163DPPC   GL116158   0.799   5.109  15.727  0.4165  0.3610 -0.0046
12163DPPC   GL216159   0.471   5.074  15.717 -0.3010  0.3390  0.0406
12163DPPC   C1A16160   0.902   5.299  16.022 -0.1812 -0.0609  0.0849
12163DPPC   C2A16161   0.990   5.428  16.415 -0.1661  0.0654  0.4725
12163DPPC   C3A16162   0.988   5.299  16.848  0.0881  0.0504 -0.1654
12163DPPC   C4A16163   1.011   5.310  17.346  0.0418 -0.0349  0.1718
12163DPPC   C1B16164   0.346   5.218  16.052 -0.1283  0.0780 -0.0578
12163DPPC   C2B16165   0.186   5.185  16.419 -0.0763  0.3440 -0.0422
12163DPPC   C3B16166   0.086   5.233  16.878 -0.0795  0.1280 -0.0605
12163DPPC   C4B16167   0.111   5.276  17.386  0.0481  0.1157  0.0646
12164DPPC   NC316168   2.624   0.876  15.823 -0.0212 -0.2234 -0.2112
12164DPPC   PO416169   2.259   1.006  15.908 -0.1300 -0.0891  0.1408
12164DPPC   GL116170   2.190   1.089  16.224 -0.2029  0.1642  0.1752
12164DPPC   GL216171   1.877   0.853  16.222 -0.1164 -0.3136 -0.0706
12164DPPC   C1A16172   2.062   1.207  16.540  0.0123  0.1412 -0.1535
12164DPPC   C2A16173   1.920   1.186  16.936  0.0472  0.1377  0.1803
12164DPPC   C3A16174   1.851   1.204  17.418  0.1135 -0.3143  0.1227
12164DPPC   C4A16175   1.892   1.268  17.955  0.1087 -0.1212 -0.1510
12164DPPC   C1B16176   1.751   0.717  16.534 -0.1604  0.1943 -0.0630
12164DPPC   C2B16177   1.703   0.473  16.880  0.0722 -0.0237 -0.2254
12164DPPC   C3B16178   1.570   0.423  17.452 -0.0658  0.1611  0.1208
12164DPPC   C4B16179   1.570   0.454  17.958  0.3554  0.2319  0.0718
12165DPPC   NC316180   0.587   0.238  15.619  0.1934  0.1153  0.1478
12165DPPC   PO416181   0.936  -0.028  15.622 -0.3463 -0.0283  0.2264
12165DPPC   GL116182   0.908  -0.276  15.948 -0.1548 -0.2339  0.1112
12165DPPC   GL216183   1.164  -0.395  15.881 -0.3436  0.0096 -0.2914
12165DPPC   C1A16184   0.869  -0.271  16.288 -0.0880 -0.1347  0.1719
12165DPPC   C2A16185   0.848  -0.299  16.741  0.2526  0.4297 -0.1501
12165DPPC   C3A16186   0.873  -0.237  17.229  0.1151 -0.0243 -0.2631
12165DPPC   C4A16187   0.839  -0.168  17.683 -0.2234  0.0225  0.1781
12165DPPC   C1B16188   1.294  -0.465  16.196 -0.0600  0.3839  0.1240
12165DPPC   C2B16189   1.352  -0.410  16.606 -0.1013  0.0712  0.0843
12165DPPC   C3B16190   1.279  -0.446  17.036  0.0001  0.1673 -0.1880
12165DPPC   C4B16191   1.266  -0.405  17.540 -0.2545 -0.2294 -0.1056
12166DPPC   NC316192  24.046   5.539  15.820 -0.0081  0.2560  0.3144
12166DPPC   PO416193  23.655   5.642  15.776  0.1214 -0.0586  0.0888
12166DPPC   GL116194  23.680   5.655  16.142  0.1230  0.2831  0.1022
12166DPPC   GL216195  23.659   5.388  16.225 -0.3799  0.1552 -0.0039
12166DPPC   C1A16196  23.795   5.824  16.436 -0.4007  0.0074  0.1000
12166DPPC   C2A16197  23.907   5.859  16.832  0.1440  0.2706  0.0670
12166DPPC   C3A16198  23.836   5.904  17.299  0.0422 -0.3931 -0.1216
12166DPPC   C4A16199  23.876   5.961  17.762 -0.0829  0.1261 -0.1822
12166DPPC   C1B16200  23.838   5.270  16.538 -0.1617  0.1958  0.0031
12166DPPC   C2B16201  23.870   5.376  16.939 -0.1222 -0.0417 -0.1672
12166DPPC   C3B16202  23.883   5.439  17.451 -0.1744 -0.0072  0.0035
12166DPPC   C4B16203  23.879   5.415  17.939  0.2112  0.1052  0.2006
12167DPPC   NC316204  22.810   6.485  15.674 -0.0595  0.0617 -0.1391
12167DPPC   PO416205  22.644   6.246  15.476 -0.1319  0.1062 -0.0882
12167DPPC   GL116206  22.785   6.079  15.893  0.1474  0.2261  0.0511
12167DPPC   GL216207  22.531   6.069  15.886 -0.1177 -0.5220 -0.0885
12167DPPC   C1A16208  22.981   6.175  16.196  0.0407  0.0815 -0.0779
12167DPPC   C2A16209  22.972   6.211  16.601 -0.2217 -0.1056 -0.0942
12167DPPC   C3A16210  22.891   6.224  17.072  0.1900  0.0366 -0.2283
12167DPPC   C4A16211  22.912   6.247  17.595  0.2611 -0.2584 -0.1622
12167DPPC   C1B16212  22.489   5.940  16.198 -0.5744  0.2577 -0.2270
12167DPPC   C2B16213  22.491   5.920  16.636 -0.1700 -0.3445 -0.0997
12167DPPC   C3B16214  22.467   5.951  17.114 -0.0014  0.2658  0.1968
12167DPPC   C4B16215  22.526   5.955  17.556  0.1669 -0.2765 -0.1113
12168DPPC   NC316216  25.474   4.472  15.696  0.1562 -0.0916 -0.0795
12168DPPC   PO416217  25.847   4.389  15.687  0.4136  0.0260  0.1100
12168DPPC   GL116218  25.949   4.399  16.111  0.0571  0.1169 -0.2315
12168DPPC   GL216219  25.761   4.631  16.208 -0.0900 -0.0778  0.0638
12168DPPC   C1A16220  26.101   4.485  16.405 -0.0820 -0.0998 -0.2019
12168DPPC   C2A16221  26.211   4.433  16.795  0.2758  0.1670  0.0942
12168DPPC   C3A16222  26.219   4.458  17.283  0.1158  0.2490 -0.0712
12168DPPC   C4A16223  26.258   4.539  17.758 -0.0028 -0.0755 -0.2214
12168DPPC   C1B16224  25.743   4.544  16.605  0.0668  0.3537 -0.3240
12168DPPC   C2B16225  25.759   4.597  16.995  0.3717  0.0707 -0.0734
12168DPPC   C3B16226  25.829   4.664  17.521 -0.2794 -0.0096 -0.4802
12168DPPC   C4B16227  26.077   4.999  17.781 -0.0623  0.4417 -0.1637
12169DPPC   NC316228  21.949   3.517  15.801  0.3540  0.0377  0.0903
12169DPPC   PO416229  22.235   3.244  15.704  0.1771  0.0772  0.1993
12169DPPC   GL116230  22.296   3.197  16.092  0.3982 -0.4302  0.1266
12169DPPC   GL216231  22.329   2.953  16.053  0.2272 -0.1978  0.0451
12169DPPC   C1A16232  22.347   3.153  16.438  0.0491 -0.3258  0.3140
12169DPPC   C2A16233  22.374   3.069  16.828 -0.2756  0.4621 -0.0481
12169DPPC   C3A16234  22.385   3.095  17.327 -0.1862  0.4442 -0.1396
12169DPPC   C4A16235  22.397   3.083  17.801 -0.0614 -0.0654 -0.2984
12169DPPC   C1B16236  22.656   2.903  16.172  0.0016  0.1353  0.0063
12169DPPC   C2B16237  22.814   2.979  16.564 -0.0941  0.0461  0.1173
12169DPPC   C3B16238  22.861   2.907  17.047  0.2207 -0.0418 -0.0855
12169DPPC   C4B16239  22.831   2.943  17.589  0.1214  0.0427 -0.0241
12170DPPC   NC316240  22.961   2.980  15.374  0.2059 -0.3097 -0.2152
12170DPPC   PO416241  23.226   3.185  15.560  0.0599 -0.1180 -0.0091
12170DPPC   GL116242  23.221   3.272  15.973 -0.1519 -0.0117  0.1211
12170DPPC   GL216243  23.547   3.264  15.979  0.0221  0.0611  0.0604
12170DPPC   C1A16244  23.198   3.087  16.297  0.0824  0.2448 -0.0536
12170DPPC   C2A16245  23.291   3.169  16.683 -0.2075  0.1094 -0.1195
12170DPPC   C3A16246  23.270   3.240  17.078  0.1778 -0.0855  0.0449
12170DPPC   C4A16247  23.312   3.259  17.561 -0.0790 -0.0315  0.0875
12170DPPC   C1B16248  23.649   3.342  16.294  0.3388  0.0762 -0.1459
12170DPPC   C2B16249  23.678   3.476  16.660 -0.1497 -0.3901 -0.2684
12170DPPC   C3B16250  23.695   3.502  17.135 -0.0648 -0.0610 -0.0615
12170DPPC   C4B16251  23.718   3.586  17.629 -0.3937  0.3127 -0.1896
12171DPPC   NC316252  24.226   1.040  15.686 -0.0315 -0.1112  0.2985
12171DPPC   PO416253  23.930   0.793  15.863  0.1199 -0.1432 -0.0950
12171DPPC   GL116254  24.049   0.689  16.281 -0.1462  0.1440  0.0259
12171DPPC   GL216255  24.105   0.960  16.267  0.2388  0.1511 -0.3563
12171DPPC   C1A16256  24.100   0.568  16.597  0.2156 -0.1328 -0.1131
12171DPPC   C2A16257  24.079   0.566  17.034 -0.3067 -0.4053  0.0072
12171DPPC   C3A16258  24.099   0.615  17.483  0.0716  0.3168  0.0641
12171DPPC   C4A16259  24.191   0.644  17.916 -0.0338 -0.0495 -0.0826
12171DPPC   C1B16260  23.996   1.019  16.590  0.0110 -0.1590  0.0670
12171DPPC   C2B16261  24.022   1.060  17.008  0.0588  0.0225  0.1356
12171DPPC   C3B16262  24.023   1.133  17.489  0.3755  0.2102  0.3407
12171DPPC   C4B16263  24.068   1.119  17.995 -0.0077 -0.2176 -0.1524
12172DPPC   NC316264   1.971   5.385  15.421  0.0772 -0.2778 -0.1124
12172DPPC   PO416265   1.815   5.712  15.601 -0.2248  0.0805 -0.0133
12172DPPC   GL116266   1.790   5.708  15.965  0.1321  0.2139  0.1041
12172DPPC   GL216267   2.164   5.616  15.958  0.0175  0.0616 -0.0922
12172DPPC   C1A16268   1.523   5.700  16.208 -0.0966  0.3039 -0.1147
12172DPPC   C2A16269   1.356   5.691  16.588  0.1308 -0.1564 -0.0523
12172DPPC   C3A16270   1.375   5.636  17.052  0.0651  0.0191 -0.2847
12172DPPC   C4A16271   1.362   5.666  17.577  0.2155  0.0722  0.0605
12172DPPC   C1B16272   2.201   5.745  16.331  0.0614 -0.0095  0.0804
12172DPPC   C2B16273   2.272   5.879  16.710 -0.2954 -0.0097  0.0931
12172DPPC   C3B16274   2.288   5.821  17.162  0.1503 -0.0103 -0.0165
12172DPPC   C4B16275   2.252   5.872  17.633 -0.2977  0.1744  0.0360
12173DPPC   NC316276   1.820   1.284  15.951  0.0245 -0.1265  0.2719
12173DPPC   PO416277   1.476   1.052  16.007  0.0031  0.2052  0.0135
12173DPPC   GL116278   1.511   1.065  16.405 -0.1090  0.2601  0.3350
12173DPPC   GL216279   1.661   1.351  16.427  0.0865  0.0803  0.1922
12173DPPC   C1A16280   1.442   0.966  16.702 -0.1167  0.0642 -0.1465
12173DPPC   C2A16281   1.527   0.938  17.119  0.0032 -0.1377 -0.2845
12173DPPC   C3A16282   1.497   0.907  17.622 -0.0118 -0.3259 -0.0551
12173DPPC   C4A16283   1.463   0.899  18.120  0.1344 -0.3703 -0.3791
12173DPPC   C1B16284   1.520   1.414  16.728  0.1195  0.1110  0.1035
12173DPPC   C2B16285   1.401   1.384  17.143 -0.4090 -0.1285 -0.0951
12173DPPC   C3B16286   1.392   1.386  17.654  0.0668 -0.2808 -0.4931
12173DPPC   C4B16287   1.451   1.431  18.117  0.1201 -0.1718 -0.0992
12174DPPC   NC316288   0.049   6.039  15.555 -0.1450  0.0313 -0.2696
12174DPPC   PO416289   0.406   6.054  15.374 -0.1345  0.0433  0.0823
12174DPPC   GL116290   0.542   6.340  15.678  0.2302  0.1565  0.2698
12174DPPC   GL216291   0.405   6.085  15.846  0.0508 -0.0338  0.2212
12174DPPC   C1A16292   0.464   6.545  15.981  0.1084 -0.1357 -0.0241
12174DPPC   C2A16293   0.450   6.543  16.413  0.1627 -0.0493 -0.1285
12174DPPC   C3A16294   0.436   6.589  16.873 -0.0752 -0.0547  0.0418
12174DPPC   C4A16295   0.427   6.546  17.345 -0.1770 -0.0287 -0.1024
12174DPPC   C1B16296   0.529   6.118  16.146 -0.1839 -0.2130 -0.4896
12174DPPC   C2B16297   0.460   6.001  16.529 -0.1485  0.3057  0.0674
12174DPPC   C3B16298   0.450   6.052  16.977 -0.1376  0.1641 -0.0628
12174DPPC   C4B16299   0.520   6.079  17.518  0.0376 -0.0096 -0.1899
12175DPPS   CNO16300   0.846   1.550  15.290 -0.1528 -0.1482 -0.0432
12175DPPS   PO416301   0.638   1.649  15.605  0.2465 -0.1818 -0.0648
12175DPPS   GL116302   0.739   1.820  16.031  0.0087  0.1429 -0.0940
12175DPPS   GL216303   0.826   1.576  16.119 -0.0693 -0.0560  0.1284
12175DPPS   C1A16304   0.505   1.870  16.332  0.4001  0.1173  0.0515
12175DPPS   C2A16305   0.453   1.810  16.716  0.1249  0.1457  0.0757
12175DPPS   C3A16306   0.504   1.762  17.168 -0.2274  0.0200  0.0786
12175DPPS   C4A16307   0.483   1.802  17.675  0.0752  0.0166 -0.0334
12175DPPS   C1B16308   0.772   1.426  16.419  0.2029  0.1040 -0.1195
12175DPPS   C2B16309   0.609   1.298  16.802 -0.0395  0.0655  0.0399
12175DPPS   C3B16310   0.569   1.299  17.309  0.1975 -0.0117 -0.1246
12175DPPS   C4B16311   0.526   1.287  17.745  0.0865 -0.2286  0.0057
12176DPPS   CNO16312  26.325   0.651  15.187  0.0661  0.2343 -0.0199
12176DPPS   PO416313  26.642   0.420  15.292  0.0663  0.0765  0.0510
12176DPPS   GL116314  26.579   0.343  15.737  0.0413 -0.3579  0.3051
12176DPPS   GL216315  26.417   0.578  15.699  0.4184 -0.2095 -0.2062
12176DPPS   C1A16316  26.763   0.410  16.029 -0.0855 -0.1163  0.1402
12176DPPS   C2A16317  26.754   0.498  16.449 -0.0502  0.0158  0.1694
12176DPPS   C3A16318  26.815   0.503  16.892 -0.2720 -0.0919  0.0930
12176DPPS   C4A16319  26.760   0.524  17.308  0.0243  0.0931  0.1917
12176DPPS   C1B16320  26.394   0.696  16.041  0.2080 -0.0306 -0.0294
12176DPPS   C2B16321  26.237   0.631  16.407 -0.1117 -0.0101  0.0193
12176DPPS   C3B16322  26.265   0.686  16.886  0.1217 -0.0837  0.1248
12176DPPS   C4B16323  26.271   0.665  17.348 -0.1753 -0.0248  0.0510
12177DPPS   CNO16324  25.741   0.551  15.280 -0.1361 -0.1506 -0.0307
12177DPPS   PO416325  25.531   0.633  15.589  0.2352 -0.3293 -0.0554
12177DPPS   GL116326  25.287   0.383  15.933  0.3180 -0.5026  0.0456
12177DPPS   GL216327  25.337   0.620  16.009  0.3480  0.1904 -0.3425
12177DPPS   C1A16328  25.072   0.257  16.259  0.2324 -0.1070  0.0759
12177DPPS   C2A16329  25.007   0.259  16.609  0.0878  0.0452 -0.1113
12177DPPS   C3A16330  24.987   0.132  17.112  0.2093  0.2915  0.2985
12177DPPS   C4A16331  25.083   0.243  17.638  0.3641 -0.0491 -0.0942
12177DPPS   C1B16332  25.290   0.811  16.305  0.0675  0.2636 -0.1437
12177DPPS   C2B16333  25.270   0.966  16.694 -0.0453  0.1612 -0.2347
12177DPPS   C3B16334  25.314   1.093  17.190 -0.3641  0.0879  0.0116
12177DPPS   C4B16335  25.328   1.086  17.656  0.0304  0.0320  0.0480
12178DPPS   CNO16336   0.562   5.654  14.972 -0.0561  0.2228 -0.2247
12178DPPS   PO416337   0.251   5.545  15.122 -0.1554  0.0051  0.0370
12178DPPS   GL116338   0.089   5.606  15.518  0.3175 -0.0410 -0.2527
12178DPPS   GL216339   0.019   5.326  15.605 -0.1230 -0.1320  0.1347
12178DPPS   C1A16340   0.200   5.689  15.858 -0.1358  0.1226  0.1750
12178DPPS   C2A16341   0.110   5.814  16.261 -0.0074 -0.2127  0.2027
12178DPPS   C3A16342  -0.011   5.740  16.699 -0.3385 -0.1626  0.0928
12178DPPS   C4A16343   0.049   5.761  17.255 -0.4890 -0.3247  0.1155
12178DPPS   C1B16344  -0.119   5.143  15.893 -0.0424 -0.1373  0.0261
12178DPPS   C2B16345  -0.216   4.957  16.250  0.1588 -0.1219 -0.1618
12178DPPS   C3B16346  -0.224   4.924  16.762  0.2460 -0.0870 -0.0192
12178DPPS   C4B16347  -0.255   4.944  17.237  0.0679 -0.0689  0.1692
12179DPPS   CNO16348  24.622   2.639  15.275 -0.0337 -0.3020 -0.0023
12179DPPS   PO416349  24.693   2.329  15.460 -0.0930  0.1338  0.1231
12179DPPS   GL116350  24.477   2.201  15.818 -0.0615  0.2433 -0.1963
12179DPPS   GL216351  24.589   2.449  15.947  0.3737 -0.2909 -0.1729
12179DPPS   C1A16352  24.421   1.967  16.154 -0.0336  0.0895 -0.2569
12179DPPS   C2A16353  24.367   1.836  16.558  0.0045 -0.6290  0.0681
12179DPPS   C3A16354  24.328   1.868  17.042 -0.3655 -0.1327 -0.0390
12179DPPS   C4A16355  24.327   1.915  17.528  0.1372  0.1158 -0.2299
12179DPPS   C1B16356  24.723   2.679  16.228 -0.2605  0.4389  0.1817
12179DPPS   C2B16357  24.624   2.647  16.611 -0.0064 -0.0010  0.0480
12179DPPS   C3B16358  24.708   2.686  17.098 -0.1358  0.0509  0.2035
12179DPPS   C4B16359  24.631   2.751  17.537  0.1222  0.1414  0.3100
12180DPPS   CNO16360  24.413   1.906  15.454  0.1451  0.0887 -0.3104
12180DPPS   PO416361  24.346   1.553  15.628  0.0020  0.1817  0.2835
12180DPPS   GL116362  24.495   1.484  15.979 -0.3337  0.0468  0.2387
12180DPPS   GL216363  24.338   1.332  16.082 -0.0164 -0.2182 -0.2345
12180DPPS   C1A16364  24.712   1.592  16.266 -0.1014  0.0534  0.1773
12180DPPS   C2A16365  24.796   1.642  16.615 -0.3151 -0.0427 -0.0353
12180DPPS   C3A16366  24.822   1.685  17.141  0.2341 -0.0781 -0.0765
12180DPPS   C4A16367  24.782   1.701  17.654 -0.0634  0.2229  0.2038
12180DPPS   C1B16368  24.415   1.342  16.441  0.0874  0.0511 -0.1430
12180DPPS   C2B16369  24.486   1.358  16.877 -0.1527  0.2476  0.1625
12180DPPS   C3B16370  24.431   1.446  17.341 -0.1258 -0.2750  0.1053
12180DPPS   C4B16371  24.412   1.436  17.847 -0.1635 -0.0049  0.1555
12181DPPS   CNO16372  26.198   5.798  15.131  0.1789 -0.1700  0.2776
12181DPPS   PO416373  26.020   5.727  15.486 -0.2093  0.1234 -0.0774
12181DPPS   GL116374  26.056   6.046  15.887  0.0369  0.3098  0.1925
12181DPPS   GL216375  26.163   5.707  15.900 -0.2664  0.0531 -0.0516
12181DPPS   C1A16376  26.089   6.331  16.087  0.0633  0.3567  0.1013
12181DPPS   C2A16377  25.898   6.462  16.472  0.0908  0.1231  0.1906
12181DPPS   C3A16378  25.954   6.488  16.974  0.1972  0.1908  0.0247
12181DPPS   C4A16379  25.927   6.465  17.465  0.2508  0.0798 -0.0562
12181DPPS   C1B16380  26.263   5.472  16.155  0.0573 -0.0878  0.0320
12181DPPS   C2B16381  26.163   5.371  16.512 -0.1948 -0.1561  0.4450
12181DPPS   C3B16382  26.106   5.445  17.004 -0.0061  0.3137  0.1200
12181DPPS   C4B16383  26.074   5.422  17.471  0.0427  0.1429 -0.0113
12182DPPS   CNO16384   0.878   5.844  15.289  0.0867  0.1846 -0.0679
12182DPPS   PO416385   0.902   5.973  15.609 -0.2718 -0.4343  0.0568
12182DPPS   GL116386   0.749   5.685  15.949 -0.0205 -0.1933  0.1969
12182DPPS   GL216387   0.969   5.834  16.068  0.3292 -0.2843  0.0644
12182DPPS   C1A16388   0.571   5.574  16.271 -0.1000 -0.0395 -0.0922
12182DPPS   C2A16389   0.461   5.530  16.663  0.1293 -0.0899  0.0684
12182DPPS   C3A16390   0.546   5.462  17.130  0.1270 -0.4756  0.1819
12182DPPS   C4A16391   0.599   5.556  17.652 -0.2224  0.4017  0.3296
12182DPPS   C1B16392   0.941   5.849  16.445 -0.4019 -0.2235 -0.2085
12182DPPS   C2B16393   0.878   5.796  16.837 -0.0226 -0.2494  0.3639
12182DPPS   C3B16394   0.911   5.844  17.290 -0.2167 -0.1485  0.3474
12182DPPS   C4B16395   0.945   5.895  17.796  0.1762 -0.1085  0.2312
12183DPPS   CNO16396   1.366   0.626  15.733 -0.2389 -0.4473 -0.4970
12183DPPS   PO416397   1.035   0.505  15.655  0.1996  0.0181  0.0659
12183DPPS   GL116398   0.958   0.764  15.977  0.1772 -0.0812  0.0028
12183DPPS   GL216399   1.185   0.600  16.165 -0.0120 -0.1169 -0.1445
12183DPPS   C1A16400   0.686   0.749  16.283 -0.2501  0.1532 -0.1045
12183DPPS   C2A16401   0.731   0.831  16.650 -0.0861  0.0387 -0.3316
12183DPPS   C3A16402   0.710   0.848  17.135 -0.0324 -0.3115  0.0713
12183DPPS   C4A16403   0.648   0.793  17.632  0.2657 -0.2235  0.0210
12183DPPS   C1B16404   1.241   0.593  16.535 -0.1618 -0.3488 -0.1858
12183DPPS   C2B16405   1.151   0.590  16.922  0.3579  0.0746  0.0189
12183DPPS   C3B16406   1.066   0.565  17.397  0.0338  0.0942 -0.0211
12183DPPS   C4B16407   1.066   0.622  17.848 -0.0593  0.0237  0.2681
12184DPPS   CNO16408  24.358   6.036  15.434 -0.1938 -0.2041  0.0065
12184DPPS   PO416409  24.026   5.997  15.600  0.1739 -0.2550  0.0508
12184DPPS   GL116410  23.922   5.994  16.008 -0.0177  0.0005  0.0523
12184DPPS   GL216411  24.089   5.883  16.106  0.4948  0.1606 -0.2476
12184DPPS   C1A16412  23.787   6.310  16.210 -0.1401 -0.0589  0.0853
12184DPPS   C2A16413  23.810   6.308  16.554  0.2544 -0.3024 -0.2500
12184DPPS   C3A16414  23.795   6.351  16.984  0.0463 -0.2431 -0.3031
12184DPPS   C4A16415  23.673   6.413  17.472 -0.2923 -0.0574 -0.0137
12184DPPS   C1B16416  24.172   6.052  16.411 -0.0225 -0.4140  0.1149
12184DPPS   C2B16417  24.240   6.187  16.785 -0.1007  0.0697 -0.1949
12184DPPS   C3B16418  24.227   6.220  17.315  0.0618 -0.0496  0.0527
12184DPPS   C4B16419  24.253   6.321  17.841  0.3617  0.0901  0.0683
12185DPPS   CNO16420  23.838   1.615  15.389 -0.0257  0.1660 -0.0778
12185DPPS   PO416421  23.817   1.402  15.665  0.2903 -0.0516 -0.3174
12185DPPS   GL116422  23.913   1.255  16.050 -0.0050 -0.2788 -0.5211
12185DPPS   GL216423  23.676   1.070  16.167 -0.0515 -0.1650  0.0904
12185DPPS   C1A16424  23.994   1.480  16.377 -0.0729  0.2694 -0.3354
12185DPPS   C2A16425  23.934   1.541  16.796  0.0136  0.0842 -0.0501
12185DPPS   C3A16426  23.924   1.570  17.261  0.2711  0.0889 -0.0529
12185DPPS   C4A16427  23.948   1.660  17.713  0.1463  0.3045 -0.0985
12185DPPS   C1B16428  23.594   1.172  16.550 -0.5525 -0.1828  0.1620
12185DPPS   C2B16429  23.538   1.198  16.961  0.1179  0.0152 -0.2269
12185DPPS   C3B16430  23.526   1.284  17.441  0.1375  0.0378  0.1699
12185DPPS   C4B16431  23.516   1.366  17.864  0.0801 -0.1235 -0.2519
12186DPPS   CNO16432  26.040   2.552  15.385 -0.1980  0.2269 -0.1243
12186DPPS   PO416433  25.864   2.271  15.581  0.1079 -0.0453 -0.0773
12186DPPS   GL116434  25.830   2.454  15.981  0.3605 -0.0884 -0.1095
12186DPPS   GL216435  25.946   2.127  16.034  0.0331 -0.0873  0.2363
12186DPPS   C1A16436  25.656   2.636  16.282  0.0842  0.3317 -0.0093
12186DPPS   C2A16437  25.502   2.833  16.598  0.0304  0.0036 -0.3406
12186DPPS   C3A16438  25.464   2.852  17.124  0.0238  0.2739 -0.0781
12186DPPS   C4A16439  25.505   2.867  17.625 -0.0516 -0.0627  0.2868
12186DPPS   C1B16440  25.963   2.142  16.370  0.4701  0.3423  0.0911
12186DPPS   C2B16441  26.030   2.167  16.797  0.0165  0.2525 -0.0212
12186DPPS   C3B16442  26.114   2.211  17.252  0.1336 -0.1097  0.2240
12186DPPS   C4B16443  26.065   2.241  17.724  0.1173 -0.1802  0.0273
12187DPPS   CNO16444   2.507   6.480  15.189 -0.0774  0.1730  0.1660
12187DPPS   PO416445   2.320   6.231  15.366  0.1070  0.0508 -0.0030
12187DPPS   GL116446   2.189   6.115  15.748 -0.2819  0.2674 -0.1114
12187DPPS   GL216447   2.363   6.243  15.863  0.1263 -0.0377 -0.1767
12187DPPS   C1A16448   1.998   6.030  16.042  0.0671  0.0993 -0.0256
12187DPPS   C2A16449   1.820   5.988  16.362 -0.0568  0.1850  0.0263
12187DPPS   C3A16450   1.716   6.005  16.867 -0.0952 -0.0456 -0.1977
12187DPPS   C4A16451   1.679   6.011  17.374 -0.0767 -0.3319 -0.1179
12187DPPS   C1B16452   2.250   6.388  16.176 -0.2146  0.0447  0.2555
12187DPPS   C2B16453   2.146   6.378  16.560 -0.0350 -0.0520  0.0065
12187DPPS   C3B16454   2.117   6.263  16.990 -0.1037  0.0429  0.2072
12187DPPS   C4B16455   2.146   6.318  17.466 -0.1048  0.0505 -0.1066
12188DPPS   CNO16456  22.794   4.017  14.966 -0.0521  0.0142 -0.2623
12188DPPS   PO416457  22.899   3.898  15.326  0.1447 -0.0071 -0.0791
12188DPPS   GL116458  22.737   3.989  15.758 -0.0915 -0.0633  0.1463
12188DPPS   GL216459  23.036   4.023  15.825 -0.1011 -0.1724  0.2216
12188DPPS   C1A16460  22.738   3.954  16.144 -0.3707 -0.4008 -0.0879
12188DPPS   C2A16461  22.779   3.893  16.559 -0.1497 -0.1323  0.2791
12188DPPS   C3A16462  22.806   3.819  17.086 -0.0189  0.0157 -0.2485
12188DPPS   C4A16463  22.814   3.909  17.542  0.0729 -0.1014 -0.0828
12188DPPS   C1B16464  23.125   4.119  16.225  0.0913  0.0905  0.0562
12188DPPS   C2B16465  23.177   4.190  16.633  0.0684 -0.0936  0.0252
12188DPPS   C3B16466  23.211   4.195  17.130 -0.2804 -0.3153  0.1200
12188DPPS   C4B16467  23.227   4.224  17.633 -0.0174  0.0066  0.1172
12189DPPS   CNO16468   0.412   6.569  15.190  0.1410 -0.2384  0.4077
12189DPPS   PO416469   0.141   6.534  15.476 -0.0029  0.2263 -0.1486
12189DPPS   GL116470   0.106   6.386  15.889  0.0079 -0.2245 -0.0484
12189DPPS   GL216471  -0.031   6.681  16.015  0.4142  0.1195 -0.1285
12189DPPS   C1A16472   0.094   6.285  16.236  0.1348 -0.0549  0.1739
12189DPPS   C2A16473  -0.036   6.269  16.610 -0.2252 -0.1293 -0.0598
12189DPPS   C3A16474  -0.056   6.251  17.103 -0.0074 -0.1748 -0.0446
12189DPPS   C4A16475  -0.041   6.212  17.627  0.0452 -0.0417  0.1384
12189DPPS   C1B16476   0.018   6.782  16.354 -0.1992  0.1133 -0.2888
12189DPPS   C2B16477  -0.040   6.718  16.712 -0.1125 -0.0203  0.0263
12189DPPS   C3B16478  -0.015   6.779  17.166  0.2933 -0.0374 -0.0345
12189DPPS   C4B16479  -0.032   6.837  17.640  0.1221  0.3646  0.0484
12190DPPS   CNO16480  26.356   1.133  15.305  0.0828  0.2015  0.1916
12190DPPS   PO416481  26.044   1.306  15.506 -0.2037  0.2443 -0.3067
12190DPPS   GL116482  26.060   1.307  15.911  0.1249 -0.2189 -0.4456
12190DPPS   GL216483  25.830   1.105  15.928  0.2352  0.1408 -0.3772
12190DPPS   C1A16484  26.260   1.367  16.176  0.0245 -0.3408  0.0761
12190DPPS   C2A16485  26.543   1.498  16.499  0.0999  0.1655  0.2991
12190DPPS   C3A16486  26.547   1.501  17.001 -0.1382 -0.1810  0.1261
12190DPPS   C4A16487  26.476   1.431  17.482 -0.0386  0.0953  0.0440
12190DPPS   C1B16488  25.973   1.039  16.277 -0.0982  0.3365 -0.4991
12190DPPS   C2B16489  26.120   1.128  16.686  0.0107 -0.0111 -0.1250
12190DPPS   C3B16490  26.113   1.186  17.229 -0.1595 -0.2006  0.2140
12190DPPS   C4B16491  26.158   1.155  17.739 -0.1674  0.1119 -0.2840
12191DPPS   CNO16492  24.126   0.436  15.533 -0.0597  0.0890 -0.2305
12191DPPS   PO416493  23.855   0.180  15.679  0.0983  0.1535 -0.2245
12191DPPS   GL116494  23.564   0.246  15.953 -0.1062 -0.5569 -0.0313
12191DPPS   GL216495  23.776   0.199  16.150 -0.1068  0.0939 -0.3462
12191DPPS   C1A16496  23.297   0.285  16.217 -0.1056 -0.1016  0.0799
12191DPPS   C2A16497  23.211   0.427  16.629  0.0011  0.1017 -0.0490
12191DPPS   C3A16498  23.209   0.465  17.107 -0.0426 -0.1120  0.3619
12191DPPS   C4A16499  23.256   0.580  17.597 -0.1484 -0.1705 -0.1923
12191DPPS   C1B16500  23.713   0.269  16.538  0.0852 -0.0909  0.0277
12191DPPS   C2B16501  23.661   0.228  16.917 -0.2695 -0.0753 -0.1619
12191DPPS   C3B16502  23.638   0.326  17.388  0.1725  0.0330 -0.1713
12191DPPS   C4B16503  23.736   0.369  17.851 -0.2448 -0.1716 -0.1210
12192DPPS   CNO16504  24.542   3.619  15.568  0.2087 -0.1368 -0.1571
12192DPPS   PO416505  24.246   3.892  15.550  0.0615  0.1473 -0.1570
12192DPPS   GL116506  24.272   3.838  15.961 -0.4279 -0.2394  0.0031
12192DPPS   GL216507  24.483   3.579  16.021 -0.0569  0.0712  0.2178
12192DPPS   C1A16508  24.136   4.005  16.257 -0.0070  0.1577 -0.4305
12192DPPS   C2A16509  24.168   3.902  16.666 -0.1543  0.0657  0.2200
12192DPPS   C3A16510  24.190   3.857  17.184  0.2899  0.0300 -0.0361
12192DPPS   C4A16511  24.157   3.879  17.649  0.2950  0.1089  0.1304
12192DPPS   C1B16512  24.500   3.558  16.402  0.0082 -0.0790  0.1522
12192DPPS   C2B16513  24.544   3.606  16.839 -0.2366  0.0482 -0.0123
12192DPPS   C3B16514  24.595   3.665  17.338 -0.3057 -0.1516 -0.0059
12192DPPS   C4B16515  24.582   3.693  17.838  0.1307 -0.1106 -0.0340
12193DPPS   CNO16516   1.868   4.058  15.001  0.0823  0.2362 -0.0201
12193DPPS   PO416517   1.568   4.206  15.154 -0.2751 -0.1623  0.2933
12193DPPS   GL116518   1.564   4.402  15.534  0.1318  0.0826 -0.2035
12193DPPS   GL216519   1.400   4.221  15.674  0.1075  0.0765  0.0847
12193DPPS   C1A16520   1.432   4.606  15.804  0.4772  0.0532  0.1964
12193DPPS   C2A16521   1.515   4.642  16.195  0.1669  0.2615 -0.0451
12193DPPS   C3A16522   1.581   4.617  16.656 -0.0523  0.0878 -0.2123
12193DPPS   C4A16523   1.569   4.628  17.128  0.0755  0.1863 -0.2590
12193DPPS   C1B16524   1.223   4.268  15.982 -0.1949 -0.0700 -0.2196
12193DPPS   C2B16525   1.152   4.373  16.388 -0.0866  0.3169 -0.2533
12193DPPS   C3B16526   1.170   4.329  16.869 -0.0316 -0.1037  0.2852
12193DPPS   C4B16527   1.108   4.353  17.371 -0.1151 -0.0635  0.0729
12194DPPS   CNO16528  23.374   4.120  15.505 -0.2348 -0.2216  0.1280
12194DPPS   PO416529  23.567   4.198  15.828  0.2078  0.1600  0.0506
12194DPPS   GL116530  23.421   4.403  16.175  0.0469 -0.4747 -0.0224
12194DPPS   GL216531  23.187   4.478  15.996 -0.0366  0.1740 -0.1011
12194DPPS   C1A16532  23.550   4.513  16.490  0.4331 -0.0312 -0.2763
12194DPPS   C2A16533  23.545   4.557  16.934  0.1585 -0.0568 -0.1349
12194DPPS   C3A16534  23.572   4.557  17.432 -0.1003 -0.0606  0.0419
12194DPPS   C4A16535  23.518   4.599  17.887  0.0546 -0.0249 -0.1298
12194DPPS   C1B16536  22.982   4.553  16.303  0.0942  0.2622  0.1429
12194DPPS   C2B16537  23.171   4.701  16.644  0.2045  0.1351 -0.2136
12194DPPS   C3B16538  23.118   4.730  17.125 -0.1141 -0.1854 -0.1064
12194DPPS   C4B16539  23.068   4.679  17.614 -0.1910  0.0177 -0.1104
12195DPPS   CNO16540   1.746   3.145  15.445  0.0372  0.0305 -0.0124
12195DPPS   PO416541   1.975   2.928  15.696  0.0611 -0.3187  0.1090
12195DPPS   GL116542   1.777   3.246  16.151  0.1205  0.0654 -0.2656
12195DPPS   GL216543   1.995   3.077  16.222 -0.1455  0.0570  0.1366
12195DPPS   C1A16544   1.519   3.337  16.417 -0.0730 -0.1127  0.1310
12195DPPS   C2A16545   1.317   3.358  16.764  0.1421 -0.0922 -0.0859
12195DPPS   C3A16546   1.293   3.335  17.222  0.0220  0.1087 -0.1959
12195DPPS   C4A16547   1.309   3.387  17.691  0.2982  0.0839  0.1500
12195DPPS   C1B16548   1.908   3.133  16.587  0.1505 -0.0734 -0.1009
12195DPPS   C2B16549   1.809   3.145  16.975 -0.1263 -0.2147  0.1248
12195DPPS   C3B16550   1.743   3.163  17.466 -0.0656 -0.1597 -0.0388
12195DPPS   C4B16551   1.775   3.289  17.941 -0.2310 -0.0102  0.0738
12196DPPS   CNO16552  23.237   2.546  15.526  0.0644 -0.0937  0.1146
12196DPPS   PO416553  22.833   2.433  15.463  0.0307 -0.1082  0.0122
12196DPPS   GL116554  22.850   2.482  15.857 -0.1014  0.1229 -0.1071
12196DPPS   GL216555  22.734   2.206  15.881  0.1353 -0.0618 -0.2948
12196DPPS   C1A16556  22.946   2.510  16.240  0.0835  0.0085 -0.0395
12196DPPS   C2A16557  22.876   2.465  16.604 -0.2591 -0.1053  0.1826
12196DPPS   C3A16558  22.866   2.400  17.058  0.1224  0.0396  0.1716
12196DPPS   C4A16559  22.835   2.467  17.530 -0.1389  0.0262  0.0996
12196DPPS   C1B16560  22.883   2.071  16.191  0.2227 -0.1270 -0.4300
12196DPPS   C2B16561  23.030   1.915  16.483  0.0518 -0.1906 -0.0982
12196DPPS   C3B16562  22.954   1.903  16.934  0.1739  0.1433  0.1905
12196DPPS   C4B16563  22.897   1.964  17.400 -0.0601  0.1147  0.1626
12197DPPS   CNO16564   1.341   1.435  15.274 -0.0058  0.1543 -0.0611
12197DPPS   PO416565   1.541   1.500  15.572  0.0649 -0.1665  0.2205
12197DPPS   GL116566   1.432   1.552  16.006 -0.2246 -0.2314  0.2458
12197DPPS   GL216567   1.593   1.697  16.123  0.0754  0.1910 -0.1940
12197DPPS   C1A16568   1.275   1.481  16.317 -0.1182 -0.5770 -0.3022
12197DPPS   C2A16569   1.140   1.586  16.709 -0.0879  0.0125  0.1623
12197DPPS   C3A16570   0.931   1.554  17.181 -0.1908  0.0580 -0.0626
12197DPPS   C4A16571   0.980   1.645  17.645 -0.0898  0.0404 -0.0334
12197DPPS   C1B16572   1.537   1.814  16.483  0.2082  0.1907 -0.1178
12197DPPS   C2B16573   1.505   1.887  16.877  0.0513  0.0242  0.1368
12197DPPS   C3B16574   1.432   1.864  17.381  0.0444 -0.0087  0.2061
12197DPPS   C4B16575   1.408   1.934  17.863  0.1140 -0.4484  0.0623
12198DPPS   CNO16576  23.306   0.754  15.384 -0.3452 -0.0897 -0.4324
12198DPPS   PO416577  23.415   0.929  15.740  0.0070 -0.0148  0.1723
12198DPPS   GL116578  23.294   0.781  16.018  0.0879  0.2731 -0.3147
12198DPPS   GL216579  23.535   0.626  16.114  0.0487  0.3610  0.2976
12198DPPS   C1A16580  23.234   0.992  16.350  0.4206  0.0658  0.5378
12198DPPS   C2A16581  23.135   0.954  16.710 -0.1901 -0.1856 -0.1047
12198DPPS   C3A16582  23.100   1.023  17.178  0.1447  0.0534 -0.1714
12198DPPS   C4A16583  23.114   1.052  17.674 -0.0809 -0.3916  0.2075
12198DPPS   C1B16584  23.498   0.698  16.468 -0.2498 -0.1671 -0.1221
12198DPPS   C2B16585  23.621   0.715  16.838 -0.3086 -0.1349 -0.2965
12198DPPS   C3B16586  23.630   0.834  17.282 -0.0949  0.1013 -0.0139
12198DPPS   C4B16587  23.672   0.852  17.735  0.2015  0.0412  0.0847
12199DPPS   CNO16588  23.148   0.268  15.293  0.2839 -0.1320  0.1809
12199DPPS   PO416589  23.293   0.021  15.553 -0.0319  0.1745  0.1524
12199DPPS   GL116590  23.181  -0.026  15.955  0.1333 -0.0431 -0.1475
12199DPPS   GL216591  23.396  -0.162  16.102  0.1083  0.0565 -0.2096
12199DPPS   C1A16592  22.953   0.065  16.244 -0.2228 -0.0650 -0.0230
12199DPPS   C2A16593  22.727   0.102  16.617  0.0257 -0.1485  0.0206
12199DPPS   C3A16594  22.798   0.165  17.094 -0.0039  0.2470  0.1398
12199DPPS   C4A16595  22.845   0.131  17.626  0.1119  0.0504  0.1240
12199DPPS   C1B16596  23.363  -0.037  16.438  0.0687  0.1497 -0.1186
12199DPPS   C2B16597  23.240  -0.041  16.834  0.1059  0.1799 -0.4201
12199DPPS   C3B16598  23.244  -0.047  17.313 -0.2565  0.0425  0.1202
12199DPPS   C4B16599  23.312   0.018  17.808 -0.1705 -0.1819 -0.0595
12200W        W16600  16.173   5.725   7.239 -0.1870  0.3115 -0.0524
12201W        W16601  10.468   3.358   0.239 -0.0924 -0.1048  0.0994
12202W        W16602   6.780   3.821  22.697  0.0166  0.1311  0.0915
12203W        W16603   2.415   0.469  24.147 -0.3115 -0.0397 -0.1669
12204W        W16604  16.669   1.026  12.003 -0.1582 -0.2087  0.1625
12205W        W16605  16.567   4.986  35.796  0.0277  0.0723 -0.1265
12206W        W16606  19.184   3.169  11.827  0.0810 -0.1073  0.3518
12207W        W16607   3.604   4.496  14.415 -0.0792  0.1634 -0.0177
12208W        W16608   0.921   5.835  29.602 -0.1266 -0.0506 -0.1239
12209W        W16609  25.775   5.715  20.850  0.4923  0.0021  0.0815
12210W        W16610   8.509   6.081  23.825  0.1101 -0.1045 -0.0376
12211W        W16611  20.791   2.829   8.137  0.0145  0.0295 -0.2647
12212W        W16612  22.859   5.808  14.679  0.0143  0.0575  0.2396
12213W        W16613   9.794   0.846   7.013 -0.1662 -0.0182 -0.0024
12214W        W16614  17.539   5.729  24.819  0.3736 -0.2189 -0.0813
12215W        W16615  25.149   0.224   9.083 -0.1621 -0.1001 -0.0560
12216W        W16616   2.100   2.068  29.089 -0.1145  0.1255  0.1663
12217W        W16617   4.191   4.879   3.345 -0.1868 -0.2332 -0.0428
12218W        W16618  19.786   2.122  21.158 -0.1564 -0.1339  0.0514
12219W        W16619  20.660   0.449  34.175 -0.0841  0.0659  0.1024
12220W        W16620  21.266   3.395  28.575 -0.4009 -0.1424 -0.1722
12221W        W16621  19.049   2.481   7.830  0.0790  0.0948 -0.1828
12222W        W16622  10.909   3.278  33.328 -0.1362  0.0396  0.2010
12223W        W16623   6.794   3.038  14.012  0.3130 -0.1397 -0.1946
12224W        W16624  11.507   4.086  12.474 -0.0873 -0.0813  0.0110
12225W        W16625  20.936   2.679   3.085 -0.3101 -0.2387  0.1803
12226W        W16626  15.855   3.526  27.999  0.2263 -0.1059  0.1689
12227W        W16627  12.366   5.065  33.003  0.1087  0.1573 -0.1561
12228W        W16628   7.448   1.625   4.980 -0.4257 -0.0909 -0.0521
12229W        W16629  11.843   0.162  14.449 -0.1691  0.1264 -0.0667
12230W        W16630   8.514   1.599  32.972 -0.0499 -0.0848 -0.1496
12231W        W16631  16.917   3.755   9.061  0.1017 -0.2155  0.0235
12232W        W16632   3.370   0.238  22.702  0.1095 -0.0135 -0.1413
12233W        W16633   7.080   1.582  14.062  0.0167  0.1295  0.0505
12234W        W16634   5.780   3.691   8.080  0.2729  0.1071 -0.1613
12235W        W16635  19.922   0.477  11.589 -0.2785  0.3171 -0.1309
12236W        W16636   4.550   2.827   2.481  0.0708  0.1245 -0.0903
12237W        W16637   8.915   3.515  14.921  0.2652  0.4069  0.0991
12238W        W16638  26.288   1.930  21.479  0.1164  0.1525  0.2708
12239W        W16639   7.998   4.753  34.776  0.3459 -0.2219  0.2419
12240W        W16640  15.084   5.152  21.906 -0.1073 -0.1932 -0.1169
12241W        W16641  24.457   3.168  11.027  0.0870  0.0531 -0.0374
12242W        W16642   0.728   6.120  24.150  0.2867  0.2942  0.2557
12243W        W16643  19.222   2.156  27.654  0.1421  0.0333 -0.0804
12244W        W16644  24.611   5.806   9.131 -0.2201  0.3305  0.2242
12245W        W16645  25.999   5.582   5.363 -0.1523 -0.1304  0.0895
12246W        W16646   3.291   0.317  10.408  0.2473  0.0951  0.0772
12247W        W16647  21.569   0.462  11.144 -0.0533 -0.0269  0.0915
12248W        W16648   3.370   5.117  28.402  0.1479  0.2679  0.0365
12249W        W16649  20.857   2.296  22.536  0.0542  0.0566  0.1542
12250W        W16650   0.661   3.166  27.288 -0.1809 -0.2024  0.3301
12251W        W16651  23.553   6.182  22.749  0.0060  0.0172 -0.1419
12252W        W16652  22.329   2.423   3.663 -0.0516  0.1841  0.1649
12253W        W16653  14.464   4.075  26.429  0.1707  0.0622 -0.1001
12254W        W16654  17.778   6.127  31.976 -0.0182 -0.0009  0.2442
12255W        W16655  19.614   4.890  25.936 -0.2418  0.2211 -0.1960
12256W        W16656  12.267   5.077  22.233 -0.0874 -0.1374  0.2432
12257W        W16657   5.617   6.149   6.163 -0.1503 -0.0033 -0.0295
12258W        W16658   4.913   6.417   3.594 -0.1252 -0.0011 -0.0354
12259W        W16659   4.348   0.119  15.221  0.1507 -0.0989  0.0451
12260W        W16660  22.334   6.294  32.917 -0.0379  0.0440 -0.0382
12261W        W16661  25.872   5.890  26.217 -0.0971 -0.0006  0.1565
12262W        W16662   2.480   1.547  23.905 -0.2342 -0.1627 -0.2781
12263W        W16663  23.101   0.968   9.084 -0.1775 -0.0276  0.1469
12264W        W16664  26.238   1.968  30.402  0.0460 -0.0768 -0.0309
12265W        W16665  20.534   6.236  21.967  0.3124  0.0294 -0.0407
12266W        W16666  14.336   5.570   9.771  0.2222  0.1456  0.0838
12267W        W16667  19.665   0.236  29.918  0.3155  0.0665  0.2214
12268W        W16668   7.999   2.304  20.636 -0.0040  0.1014 -0.3700
12269W        W16669  24.096   6.371  10.867  0.3330  0.4503  0.3716
12270W        W16670  23.927   0.573  10.283  0.0152 -0.2349 -0.2416
12271W        W16671  23.527   1.167   7.269 -0.1342  0.1164  0.0815
12272W        W16672  11.538   0.180  12.403 -0.0054  0.1589  0.0217
12273W        W16673   4.592   3.924   2.924 -0.0389  0.2655  0.2204
12274W        W16674   4.809   1.300  28.091 -0.3042  0.1020  0.0351
12275W        W16675  21.112   3.127   5.428  0.0410 -0.1349  0.0866
12276W        W16676  15.805   2.450  25.239 -0.0502 -0.0619 -0.0580
12277W        W16677   2.527   3.793  12.500  0.0220 -0.2159  0.0197
12278W        W16678  20.285   0.699  32.102  0.2641 -0.0571  0.0744
12279W        W16679   8.342   4.681  24.968  0.2020  0.0057  0.1461
12280W        W16680  10.652   6.041  28.071  0.0406 -0.0840 -0.0286
12281W        W16681  22.830   5.480  23.944  0.0456 -0.0507 -0.0883
12282W        W16682  15.327   5.914  13.325 -0.2130  0.0700  0.0973
12283W        W16683  26.246   5.536   9.954  0.3010  0.0494 -0.0365
12284W        W16684  26.317   4.759  15.028 -0.0112 -0.0273 -0.0848
12285W        W16685  20.517   1.259  20.461  0.1615 -0.1861 -0.0728
12286W        W16686  19.978   5.569  30.959 -0.3368 -0.0514 -0.2122
12287W        W16687  14.261   1.498  32.299  0.2727  0.1985 -0.1722
12288W        W16688   6.110   5.230  27.797 -0.2558 -0.1857  0.1929
12289W        W16689   7.404   3.851  35.604  0.0864 -0.1085 -0.0180
12290W        W16690  18.358   0.316  22.505  0.2728  0.0268 -0.1095
12291W        W16691  14.335   3.376   0.449 -0.0622  0.2335 -0.3391
12292W        W16692  25.170   3.085  27.886  0.2126  0.1042  0.3980
12293W        W16693  24.177   1.047   0.354 -0.0112  0.0641 -0.0583
12294W        W16694   5.895   3.873   0.705 -0.2385  0.1741  0.1376
12295W        W16695  15.034   1.880  26.060 -0.1221  0.1486  0.3656
12296W        W16696  10.723   4.425   2.626  0.1693  0.1386 -0.1219
12297W        W16697   9.285   3.714  26.633  0.2431 -0.2385 -0.1463
12298W        W16698  13.507   6.580  34.465 -0.1506  0.1631  0.0784
12299W        W16699  14.877   5.707   1.807  0.0044 -0.3752 -0.3126
12300W        W16700   0.917   0.261   6.114 -0.1954 -0.3597  0.0217
12301W        W16701  26.185   3.881  31.439  0.1136 -0.0430  0.2080
12302W        W16702  12.898   0.020   8.268  0.1790 -0.4805  0.1122
12303W        W16703   0.939   2.591   9.916 -0.1016 -0.0813 -0.1282
12304W        W16704  14.481   0.285  27.099 -0.0837  0.1493  0.1538
12305W        W16705   6.169   0.954  11.820 -0.2385 -0.4104  0.0852
12306W        W16706   4.712   1.663  15.788  0.1210  0.0951  0.1900
12307W        W16707  14.488   2.163  32.845 -0.0736  0.1248 -0.0084
12308W        W16708  13.065   2.851  29.541  0.2106  0.0470  0.0372
12309W        W16709  12.686   1.635  13.531  0.2072 -0.3596  0.1371
12310W        W16710  10.354   3.151   6.915 -0.0935 -0.2913 -0.3398
12311W        W16711  16.292   0.549  22.855 -0.1081  0.2366  0.0630
12312W        W16712  24.743   5.062   4.822  0.1002 -0.0739 -0.0377
12313W        W16713  26.022   4.179  12.767 -0.0385  0.0160 -0.1627
12314W        W16714  13.484   5.379   7.592  0.1488  0.2553  0.2752
12315W        W16715   9.352   0.310   9.270 -0.0303  0.0057  0.3860
12316W        W16716   4.630   3.003  35.705  0.0104 -0.0691  0.0728
12317W        W16717  11.539   6.585  21.018  0.1108 -0.0174  0.1207
12318W        W16718  18.317   5.654   9.344 -0.0315  0.0535  0.3021
12319W        W16719  25.578   1.810  33.810  0.0413 -0.2066  0.1782
12320W        W16720  17.538   1.132  35.653 -0.0145 -0.2239  0.2992
12321W        W16721  10.160   1.691   5.966 -0.1444  0.0700  0.1126
12322W        W16722   5.473   1.576  13.408 -0.0592 -0.1616 -0.0089
12323W        W16723  18.383   4.183  26.397 -0.0948 -0.0922 -0.2310
12324W        W16724   6.155   6.020  31.796  0.2848  0.0354  0.0829
12325W        W16725   8.505   2.352  32.156  0.0548  0.3192  0.1431
12326W        W16726  21.826   2.000  26.979  0.1128 -0.0792 -0.2819
12327W        W16727  14.216   4.991  13.910 -0.3018  0.0906 -0.2894
12328W        W16728  21.561   1.257  21.289  0.0598 -0.1759 -0.1097
12329W        W16729   4.158   4.182  31.780  0.1271  0.0816 -0.1476
12330W        W16730  21.139   5.545   2.381  0.1173  0.0570  0.1101
12331W        W16731  14.563   0.794  11.645  0.0691  0.0832 -0.1945
12332W        W16732   0.181   4.148  30.774 -0.0555 -0.0378  0.3766
12333W        W16733  19.765   2.077  32.310  0.0600  0.3749  0.1205
12334W        W16734  25.206   5.474  21.931 -0.1695 -0.3849  0.1831
12335W        W16735  23.575   0.412   0.819 -0.0311  0.1015  0.0925
12336W        W16736   9.060   3.991  10.921  0.1055 -0.4155 -0.4626
12337W        W16737   9.029   0.419   5.157 -0.0978 -0.0616 -0.1146
12338W        W16738   2.484   5.434   7.672 -0.0362  0.3058 -0.3270
12339W        W16739  11.458   1.029  12.111  0.2529 -0.1170  0.1394
12340W        W16740   1.228   0.025  14.257 -0.4338 -0.0844  0.0361
12341W        W16741  21.576   3.983  20.816 -0.2869  0.1951  0.0162
12342W        W16742  22.036   6.503  11.003  0.1361 -0.2077 -0.1885
12343W        W16743  24.480   5.801  25.272 -0.3498 -0.1253  0.1452
12344W        W16744  10.051   2.409  25.858  0.1359  0.0799 -0.0490
12345W        W16745  11.686   6.435  25.241  0.0131  0.2836 -0.2881
12346W        W16746   4.036   0.674   8.395  0.0545 -0.1041  0.2115
12347W        W16747  16.428   6.347  24.380  0.1408 -0.0273  0.1508
12348W        W16748   2.459   5.828  32.713 -0.1249 -0.1011 -0.0326
12349W        W16749   9.998   4.227  33.776  0.1776  0.0069  0.2248
12350W        W16750  14.509   0.305   3.407  0.1490  0.0765 -0.0628
12351W        W16751   6.097   6.106  13.581  0.0203  0.1440 -0.0623
12352W        W16752  21.203   0.605  27.469 -0.0456 -0.0826 -0.1495
12353W        W16753   5.226   1.107  15.632  0.0791 -0.1796 -0.2240
12354W        W16754  17.504   3.561   5.992 -0.1855 -0.0789  0.0150
12355W        W16755   0.315   0.525  35.651 -0.1587 -0.0611  0.2438
12356W        W16756  18.365   1.826  22.717 -0.0756  0.0447 -0.2245
12357W        W16757   1.326   0.465   8.400 -0.1547  0.1700  0.0337
12358W        W16758   9.006   3.572  24.016 -0.1770  0.1934  0.1971
12359W        W16759   3.819   2.736  31.694 -0.1419  0.1946  0.0052
12360W        W16760  18.590   1.363   4.883  0.1343 -0.1058 -0.2129
12361W        W16761  21.765   4.532  21.073  0.2098  0.2834 -0.0880
12362W        W16762  17.072   6.013  27.907 -0.0754 -0.0783 -0.0325
12363W        W16763   8.376   1.959  24.684 -0.2319 -0.0377  0.2537
12364W        W16764   1.858   3.520  29.177  0.0113 -0.0799  0.1315
12365W        W16765  21.895   2.064   3.921 -0.0128  0.1433  0.3705
12366W        W16766  13.511   3.984   2.851 -0.0444  0.1668 -0.1345
12367W        W16767   8.658   0.145   0.007 -0.0678 -0.2400  0.2305
12368W        W16768  23.943   4.803  13.123 -0.5828 -0.0895  0.0428
12369W        W16769  18.240   4.535  13.438 -0.1170 -0.2469  0.1901
12370W        W16770   4.826   2.034  30.643  0.1551  0.1005  0.0711
12371W        W16771   8.301   3.692  29.448  0.1974  0.3010 -0.2624
12372W        W16772  18.591   0.396  26.662  0.5123 -0.2541 -0.1277
12373W        W16773  26.399   3.482  28.834  0.2826  0.0388 -0.0669
12374W        W16774  13.563   4.963  22.136 -0.0473  0.1125 -0.0291
12375W        W16775   4.252   3.894   7.262 -0.1900 -0.1623 -0.3278
12376W        W16776   6.281   3.594  25.092 -0.1397 -0.1801  0.2112
12377W        W16777   6.306   1.604  10.304 -0.0603 -0.1342 -0.0311
12378W        W16778  18.382   2.626  22.122  0.0050 -0.2456 -0.0574
12379W        W16779  19.354   1.383   5.142  0.1470  0.1181 -0.1617
12380W        W16780   2.093   3.388  34.515 -0.1884 -0.0615  0.0712
12381W        W16781   2.902   2.405  30.896 -0.1153 -0.2871  0.1093
12382W        W16782   7.815   4.497  26.294  0.0383  0.2018 -0.2600
12383W        W16783   2.934   1.117  30.707 -0.1262  0.1108 -0.1289
12384W        W16784  19.871   4.922  29.523 -0.3540  0.0278  0.1364
12385W        W16785  16.340   3.633  29.149  0.1765  0.3231 -0.1565
12386W        W16786   6.315   2.152   0.711  0.0602  0.5597  0.1503
12387W        W16787   9.667   3.664   5.929 -0.2074  0.2640 -0.0979
12388W        W16788  22.369   6.000   1.888  0.5308  0.3036  0.2115
12389W        W16789  24.115   1.803   0.715  0.0586  0.0695 -0.0643
12390W        W16790  24.948   3.892   5.176 -0.0224  0.2046 -0.1031
12391W        W16791   7.819   0.962  26.343 -0.0409 -0.1455 -0.1683
12392W        W16792  23.399   3.576  13.014 -0.1218  0.0419  0.2542
12393W        W16793  19.095   1.557  35.267 -0.4446 -0.2694  0.1278
12394W        W16794   2.941   5.560   8.075  0.3485  0.0937  0.0729
12395W        W16795  15.087   3.549   2.925 -0.0503  0.0535 -0.2340
12396W        W16796  15.159   3.038   0.893  0.0536  0.0042 -0.1987
12397W        W16797  16.698   2.839   5.494 -0.1190  0.2007  0.1590
12398W        W16798  13.640   1.577  32.267 -0.0677 -0.0432 -0.0143
12399W        W16799  21.452   3.452   6.490 -0.1015  0.1856  0.0951
12400W        W16800  24.059   0.801   6.168  0.4580 -0.1746  0.3086
12401W        W16801  11.135   0.360  34.889 -0.1615  0.1236  0.0553
12402W        W16802   9.670   3.633  12.594 -0.1335  0.0593 -0.0120
12403W        W16803  23.583   5.662  14.579 -0.0934 -0.0711 -0.0782
12404W        W16804   5.381   3.068  13.755  0.1142  0.2607  0.2351
12405W        W16805   3.074   2.034  30.412 -0.0693  0.1715 -0.1378
12406W        W16806  13.128   1.716   0.167 -0.2254 -0.0515  0.1516
12407W        W16807   9.453   2.184  10.284  0.1820  0.0937  0.0791
12408W        W16808  13.427   1.433  21.243  0.1058 -0.3185 -0.0927
12409W        W16809  13.034   5.833  25.483  0.2779  0.3901 -0.4439
12410W        W16810  19.919   5.827  31.604  0.1503  0.2581  0.0161
12411W        W16811  15.215   4.542   1.482 -0.1469  0.0608 -0.1034
12412W        W16812  22.761   0.768  14.222 -0.0809 -0.1689 -0.0071
12413W        W16813  15.570   1.775  26.133  0.0657 -0.0377  0.4413
12414W        W16814  21.242   5.902   2.069  0.0432  0.1323 -0.2979
12415W        W16815   8.541   2.655  23.541 -0.0505  0.0128 -0.1546
12416W        W16816  17.365   1.976  14.518 -0.0842  0.2058  0.1342
12417W        W16817  18.608   4.998  22.983 -0.2985  0.0953 -0.2006
12418W        W16818  11.138   1.889  11.708 -0.1971 -0.0940 -0.0374
12419W        W16819  13.360   0.865  26.992 -0.0707 -0.1068  0.0054
12420W        W16820  12.780   2.086  24.298 -0.1749 -0.1933  0.1743
12421W        W16821  15.776   4.312   0.725  0.0102 -0.1027 -0.0495
12422W        W16822  22.907   4.324  14.615 -0.0407 -0.1805  0.0301
12423W        W16823  17.780   4.294  33.354 -0.0351 -0.3095  0.1616
12424W        W16824  20.829   2.399  33.910 -0.1476  0.2225 -0.0871
12425W        W16825   0.847   4.544   1.227  0.0540 -0.0553  0.1558
12426W        W16826  10.810   1.551   9.084 -0.1867  0.3610 -0.4075
12427W        W16827  23.317   2.329   8.287  0.0853 -0.0437  0.0701
12428W        W16828   5.461   2.505   5.655  0.0625 -0.1571 -0.0548
12429W        W16829   0.874   4.523  31.468 -0.0226 -0.0391  0.2742
12430W        W16830   0.132   6.180   5.992  0.0155  0.0781  0.0452
12431W        W16831  25.731   1.905   8.736 -0.0291 -0.0043 -0.0798
12432W        W16832  22.411   4.520  28.412  0.0291 -0.0801  0.4364
12433W        W16833   8.897   5.895   3.990 -0.1122  0.4702 -0.0231
12434W        W16834  23.914   0.799  29.610 -0.1624 -0.1734 -0.0588
12435W        W16835  17.365   5.968   0.850  0.0708  0.0119 -0.1995
12436W        W16836  11.517   1.552  27.386 -0.2680  0.1178  0.0321
12437W        W16837  14.163   4.139  31.131  0.1977 -0.1051 -0.0435
12438W        W16838  21.089   3.260  26.869 -0.1290  0.3944 -0.2106
12439W        W16839  10.784   4.866   0.036  0.0426  0.0213  0.2259
12440W        W16840   9.087   5.253   7.532  0.2231 -0.1825  0.0553
12441W        W16841  20.144   5.178  11.910 -0.2141 -0.3327  0.0728
12442W        W16842  11.014   3.674  11.434 -0.1415  0.1657  0.0125
12443W        W16843  24.395   3.152  12.963 -0.1645 -0.0411 -0.0566
12444W        W16844  18.558   2.821   1.035 -0.1466  0.3320  0.0637
12445W        W16845  19.723   1.500   7.530 -0.1524 -0.2006 -0.1437
12446W        W16846   3.824   6.539  27.257  0.0195  0.2568  0.0999
12447W        W16847  24.905   3.744   9.879 -0.0182 -0.0381 -0.1684
12448W        W16848  11.646   2.635   3.928 -0.3539  0.2366 -0.1582
12449W        W16849  15.708   1.778  15.017 -0.1649 -0.2972 -0.1400
12450W        W16850  23.902   1.777  21.952  0.0402  0.1382 -0.2536
12451W        W16851  18.073   2.451  11.673 -0.2094  0.5094  0.2569
12452W        W16852  23.892   1.436  12.795  0.0728  0.0401 -0.1320
12453W        W16853  25.225   6.372  33.647 -0.0855  0.0246 -0.1672
12454W        W16854  17.571   0.039  31.443 -0.5206  0.0140 -0.3394
12455W        W16855  24.365   5.914  29.808 -0.2324  0.0511 -0.2470
12456W        W16856  25.909   3.843   4.124 -0.3662  0.2921  0.2665
12457W        W16857  16.409   4.253  21.445  0.2144 -0.0680 -0.0006
12458W        W16858  24.642   6.564  35.785  0.1944 -0.0253  0.0087
12459W        W16859  10.047   0.334  31.400 -0.1069  0.2029  0.1377
12460W        W16860   3.873   3.295  10.441 -0.1478  0.1849 -0.0176
12461W        W16861  17.222   5.314  22.209  0.0016 -0.0328  0.1161
12462W        W16862   6.022   2.155  11.851  0.2211  0.0753 -0.0575
12463W        W16863  13.002   0.347   8.636 -0.0079 -0.2656 -0.0334
12464W        W16864  15.995   3.859  20.878 -0.1318 -0.0315 -0.2116
12465W        W16865  10.148   4.773  13.343 -0.0502 -0.3019  0.1743
12466W        W16866   9.632   2.180   4.029  0.1689 -0.0948 -0.0683
12467W        W16867  20.515   2.545  11.456  0.0376  0.0484  0.1847
12468W        W16868   5.693   1.286  15.520 -0.1218  0.4367  0.1094
12469W        W16869  12.063   6.292   0.650 -0.0873  0.3557  0.2240
12470W        W16870  13.240   4.760   4.612 -0.2116 -0.0178 -0.0327
12471W        W16871  13.065   0.273  31.814  0.2896  0.0142 -0.1515
12472W        W16872   0.518   0.013  33.495  0.2457  0.0355  0.1808
12473W        W16873  15.755   4.532  29.429  0.0933  0.0637 -0.0166
12474W        W16874  24.699   3.308   0.510  0.1032 -0.0774  0.2180
12475W        W16875  20.288   6.359  22.456  0.3143 -0.0853 -0.2041
12476W        W16876  19.652   4.504  27.478 -0.2500 -0.0505  0.0818
12477W        W16877  11.900   3.974   6.584  0.0456 -0.2843  0.0315
12478W        W16878   3.241   1.784  35.181 -0.0140  0.2463  0.2449
12479W        W16879  16.254   1.389  29.757 -0.4914  0.0043 -0.1559
12480W        W16880  22.811   3.504  27.503 -0.2502 -0.2053  0.1427
12481W        W16881   9.843   3.982   3.264 -0.0375 -0.0797 -0.0385
12482W        W16882  14.250   2.221   3.996 -0.0611  0.4452  0.0912
12483W        W16883   9.616   6.191  30.667 -0.0687  0.1017  0.0745
12484W        W16884  17.315   6.456   6.446  0.0155  0.0054 -0.1652
12485W        W16885  10.288   2.930   5.154 -0.5232 -0.1154 -0.1181
12486W        W16886  24.884   4.161   6.667 -0.1945 -0.1630  0.0848
12487W        W16887  15.757   1.490  11.448 -0.1543 -0.1266  0.0048
12488W        W16888   7.059   5.604   6.599 -0.0921 -0.0776  0.1725
12489W        W16889  14.600   1.706  31.546  0.1843 -0.1961  0.2832
12490W        W16890  22.086   2.680  30.772  0.1155  0.4388 -0.3555
12491W        W16891   3.113   3.020   9.286  0.2253  0.2089 -0.0613
12492W        W16892   8.413   3.614  23.222 -0.1511 -0.2791  0.2300
12493W        W16893  20.639   0.278  21.098 -0.0069 -0.1512  0.3796
12494W        W16894  15.089   4.821   7.500  0.1652 -0.1296 -0.0858
12495W        W16895  11.533   2.819  29.436 -0.1243  0.2353  0.0775
12496W        W16896  14.059   4.307  26.534  0.3301  0.2701 -0.0028
12497W        W16897   7.158   5.574   0.311 -0.0290 -0.0386 -0.2134
12498W        W16898  21.642   5.158  24.666 -0.1190  0.2096  0.0828
12499W        W16899  23.005   4.394  25.875  0.3784  0.0318  0.0647
12500W        W16900  15.753   1.697  10.076 -0.2447 -0.0179 -0.0362
12501W        W16901  18.035   0.615  33.711 -0.1949  0.1878 -0.3677
12502W        W16902  22.643   5.199  10.010  0.1692 -0.1207 -0.0734
12503W        W16903  13.402   4.646   9.851  0.1153  0.0476  0.3136
12504W        W16904  11.756   2.012  14.758 -0.0405 -0.0657  0.0438
12505W        W16905  21.390   2.567   6.027 -0.2840  0.0121  0.3761
12506W        W16906  22.718   4.107   1.921 -0.1384  0.0519  0.1783
12507W        W16907  26.290   0.656  27.703  0.2362 -0.0411 -0.3144
12508W        W16908  19.215   3.968  30.918 -0.0903 -0.0296  0.2623
12509W        W16909  15.146   5.399   1.261 -0.2863  0.0596 -0.0806
12510W        W16910   7.869   3.381  32.644  0.4996  0.1162  0.1516
12511W        W16911   7.153   1.218   9.804  0.3816 -0.0254  0.0362
12512W        W16912  13.774   5.550  32.177 -0.0228 -0.0500  0.0357
12513W        W16913  19.171   0.024  20.794 -0.0046  0.1506  0.0802
12514W        W16914   8.754   1.746  33.423 -0.1784  0.3441 -0.0223
12515W        W16915  12.716   5.556   2.783 -0.0917 -0.1495 -0.1712
12516W        W16916  14.246   6.481   1.563 -0.1040 -0.3167  0.2688
12517W        W16917   7.540   0.639   1.465 -0.0321 -0.2872 -0.2593
12518W        W16918  24.055   3.220  32.392 -0.1062  0.3070  0.1806
12519W        W16919  16.597   0.264   5.103  0.1371 -0.3131  0.2139
12520W        W16920  18.857   0.157   0.699  0.0026  0.0340 -0.2443
12521W        W16921   6.424   1.865  11.492 -0.2867 -0.1157 -0.0106
12522W        W16922  10.180   5.631   5.982  0.0544  0.2659 -0.0224
12523W        W16923   5.116   4.067  21.248 -0.0097  0.1465  0.0114
12524W        W16924   5.314   6.304  31.249 -0.1696 -0.1465 -0.1153
12525W        W16925  10.691   3.437   4.946 -0.1506  0.2401 -0.3407
12526W        W16926   3.361   1.913   1.101  0.1352  0.1234 -0.0837
12527W        W16927   7.192   6.304  31.885 -0.1768  0.0852  0.0052
12528W        W16928  24.604   2.945  31.445 -0.2540 -0.1085  0.1576
12529W        W16929  18.475   6.391  31.276 -0.1088 -0.0817  0.4050
12530W        W16930  25.166   1.817  31.278 -0.3576  0.1479 -0.0164
12531W        W16931  23.739   3.942  26.938 -0.0064  0.0322  0.0425
12532W        W16932   5.091   5.480   6.590 -0.0199 -0.1890  0.1708
12533W        W16933   0.003   2.628  30.201  0.1551  0.2530 -0.1704
12534W        W16934  12.527   5.931   6.956 -0.0462  0.1613  0.0217
12535W        W16935  11.920   2.633  30.609 -0.1196 -0.0347  0.3870
12536W        W16936   9.559   5.129  22.643 -0.0446 -0.1668 -0.0105
12537W        W16937   2.993   3.564  25.998 -0.0734  0.2575 -0.1365
12538W        W16938  15.916   6.156   9.482  0.0357  0.0666 -0.0827
12539W        W16939  24.109   2.989  13.353  0.1037 -0.1539  0.0816
12540W        W16940  21.826   1.774  33.682  0.0271  0.4030 -0.0236
12541W        W16941   2.496   3.169   9.620  0.0272 -0.0716  0.1037
12542W        W16942  11.775   0.742   4.761 -0.0143  0.1516 -0.4050
12543W        W16943   1.939   3.356   2.096  0.1158  0.1941  0.0492
12544W        W16944   9.882   5.666  20.974  0.0428  0.1317 -0.2744
12545W        W16945   6.721   5.321   6.856  0.0720  0.0958  0.0589
12546W        W16946   6.188   1.971  32.850 -0.1320  0.2544  0.2319
12547W        W16947   8.536   3.609  31.882 -0.0471  0.1021 -0.3049
12548W        W16948   2.772   6.314  26.308 -0.0053  0.2345  0.0017
12549W        W16949  15.901   6.221  34.446  0.0577 -0.2166  0.1571
12550W        W16950  13.403   2.864   4.228 -0.2137  0.0481  0.4321
12551W        W16951  14.805   2.491  15.570 -0.2223  0.0326 -0.1275
12552W        W16952  13.690   4.136   4.683 -0.3448 -0.1252 -0.0626
12553W        W16953   5.806   2.434   6.211 -0.0025 -0.0175 -0.2580
12554W        W16954  19.151   4.048   7.280 -0.0175  0.0545  0.0987
12555W        W16955  25.754   1.351   6.530  0.3112  0.1491  0.0731
12556W        W16956  20.291   1.944   3.107  0.4607  0.0669  0.2489
12557W        W16957  24.865   5.624  20.780 -0.3215 -0.0045  0.0412
12558W        W16958  26.349   0.151  29.793  0.0601 -0.0081 -0.0917
12559W        W16959   9.241   1.831  32.216 -0.1693  0.1221  0.0182
12560W        W16960  20.718   5.456   3.768  0.2880  0.1280 -0.1375
12561W        W16961   3.361   2.489  23.473  0.0515  0.1402 -0.0352
12562W        W16962  18.919   1.147   7.011 -0.0746 -0.2877  0.2288
12563W        W16963   8.500   4.215  13.485 -0.1951  0.2161 -0.1971
12564W        W16964  15.248   6.347   1.896 -0.2106  0.3379 -0.0628
12565W        W16965   5.139   3.367  30.042  0.0965  0.0397 -0.0842
12566W        W16966   6.298   6.360   8.068  0.1379 -0.0308 -0.2204
12567W        W16967  19.937   5.178  13.479 -0.5260  0.1319 -0.3295
12568W        W16968   6.422   5.345  22.972  0.0900  0.1534  0.0808
12569W        W16969  15.549   4.999  21.072 -0.0790  0.1956 -0.0623
12570W        W16970  12.153   1.353  21.636  0.0420 -0.1445 -0.0209
12571W        W16971  24.783   5.069   6.579  0.1115 -0.1156  0.0423
12572W        W16972  18.735   4.329  30.240 -0.0242 -0.0459  0.0700
12573W        W16973  19.253   4.643  30.336  0.3226 -0.1602 -0.1555
12574W        W16974  18.675   4.111  33.996  0.0014 -0.1752  0.1640
12575W        W16975   3.360   0.326  33.211 -0.0062  0.0045 -0.3489
12576W        W16976  23.583   2.694  34.790 -0.0404 -0.2467 -0.0857
12577W        W16977  13.439   2.304  30.009  0.2564 -0.1337 -0.0953
12578W        W16978   3.138   5.453  28.911  0.0489 -0.1360 -0.0878
12579W        W16979   1.895   2.968  28.304  0.0590  0.0430  0.1807
12580W        W16980  12.718   4.862   8.616  0.0025  0.1645 -0.2648
12581W        W16981  16.025   6.601  35.352  0.0445 -0.0176  0.1800
12582W        W16982  25.083   2.597   8.682  0.0866 -0.2116  0.2385
12583W        W16983  20.308   5.535  25.079  0.2296 -0.0292 -0.0240
12584W        W16984  15.692   4.952   0.072  0.1084 -0.0814  0.1899
12585W        W16985   4.446   2.718   7.092 -0.0233  0.0464  0.0306
12586W        W16986  21.153   5.049  34.531 -0.1216 -0.1079 -0.0281
12587W        W16987  11.298   0.958  26.059  0.1215 -0.2279 -0.1701
12588W        W16988  23.571   3.189   6.270 -0.0999  0.0566  0.1814
12589W        W16989  10.673   2.585   9.999  0.3020  0.1126  0.2065
12590W        W16990  12.472   2.907  29.248 -0.4153  0.2530 -0.4142
12591W        W16991   0.181   3.227  31.637 -0.0498  0.1711  0.1204
12592W        W16992   3.218   2.904  22.039 -0.0344 -0.1029  0.1413
12593W        W16993   7.377   5.500   2.084 -0.0517  0.2699  0.1086
12594W        W16994  13.454   3.491  24.656  0.1132  0.0245 -0.0246
12595W        W16995  17.115   6.312  34.910  0.1964  0.0013 -0.0902
12596W        W16996  12.551   3.737   0.674 -0.3120 -0.2690  0.0721
12597W        W16997  11.913   3.123  23.447 -0.2549  0.1897 -0.1343
12598W        W16998  10.642   0.837   8.837  0.2041 -0.2007 -0.2351
12599W        W16999  22.682   0.414   1.202 -0.0807  0.2282 -0.0346
12600W        W17000  15.384   3.342  22.114 -0.1308  0.1312 -0.0277
12601W        W17001  16.838   0.544  26.459 -0.0471  0.1271  0.2003
12602W        W17002  10.950   1.363  24.334 -0.1005  0.3752 -0.1489
12603W        W17003  25.160   1.746  34.306 -0.1405 -0.0879 -0.0735
12604W        W17004  17.441   3.021  28.954  0.0313 -0.2570  0.0526
12605W        W17005   4.665   3.190   3.290  0.0514  0.2620  0.1403
12606W        W17006  24.100   2.351   2.920 -0.1893  0.1164  0.0479
12607W        W17007  17.012   5.828  22.014 -0.1405  0.1480  0.1270
12608W        W17008  13.338   3.187  20.978  0.1171 -0.0790 -0.1498
12609W        W17009  18.367   5.304   4.194  0.0097  0.1490  0.0679
12610W        W17010  19.363   6.468  34.089  0.3454  0.1040 -0.0295
12611W        W17011  19.310   4.473  32.067 -0.1408 -0.1414 -0.0416
12612W        W17012  17.603   0.457   7.951 -0.0412 -0.1590 -0.1253
12613W        W17013   0.521   2.751  21.948  0.1235  0.0829  0.1098
12614W        W17014  12.399   0.361  34.777 -0.0433 -0.3145  0.1135
12615W        W17015  19.142   5.448   0.589  0.0866 -0.0961  0.1609
12616W        W17016  10.344   6.464  25.397  0.3504  0.2285 -0.2168
12617W        W17017   8.741   2.591  13.660 -0.0792 -0.0697  0.0981
12618W        W17018   9.883   3.617   1.773  0.1637  0.2162 -0.0645
12619W        W17019   6.334   6.441  22.799 -0.0167 -0.0387  0.3546
12620W        W17020  10.160   1.853   3.717 -0.1516  0.1026  0.0777
12621W        W17021  17.072   0.086   7.635  0.0895 -0.0753 -0.0073
12622W        W17022  25.626   6.573  30.827 -0.3954  0.0308  0.1105
12623W        W17023  13.678   1.812  24.952 -0.0967  0.1550 -0.0649
12624W        W17024  20.714   2.090  12.853 -0.0085 -0.0109  0.2271
12625W        W17025   8.928   0.161  29.970  0.3219  0.1813  0.1340
12626W        W17026  24.905   4.636   6.909  0.1579  0.0150  0.1762
12627W        W17027  17.019   4.480   9.624 -0.0909  0.1068  0.1899
12628W        W17028  19.093   4.901  13.419 -0.1740  0.0021 -0.0232
12629W        W17029   3.473   6.196  14.982 -0.2204 -0.1914  0.0039
12630W        W17030   6.099   1.560  32.394 -0.1012  0.2015  0.1889
12631W        W17031   5.404   4.078  31.728  0.0553  0.1869  0.0148
12632W        W17032  17.101   1.614  31.325  0.0785 -0.3578  0.0330
12633W        W17033  25.732   2.369   5.602 -0.1071  0.1384 -0.0499
12634W        W17034  21.533   2.927  12.456 -0.0356  0.3982 -0.1204
12635W        W17035  25.717   1.411  20.963  0.3369 -0.0528 -0.0833
12636W        W17036   3.769   2.030  31.450 -0.0276  0.1459 -0.0413
12637W        W17037  23.057   5.640  27.311  0.0097  0.2315  0.1385
12638W        W17038   2.936   2.935   2.049  0.2584 -0.1948  0.0866
12639W        W17039   4.780   5.268   1.631  0.0357 -0.0560 -0.2931
12640W        W17040   6.941   3.353  29.231 -0.0398  0.0796 -0.0860
12641W        W17041  19.938   1.203   9.607  0.0573 -0.2005 -0.2567
12642W        W17042  25.738   0.945   3.760  0.0454 -0.0040  0.0572
12643W        W17043   8.562   1.194   3.343 -0.0897  0.1491  0.1908
12644W        W17044  15.336   6.554  26.482  0.0338 -0.0239 -0.1613
12645W        W17045   2.569   2.735   5.188 -0.1750 -0.0702 -0.3438
12646W        W17046   5.118   3.726  34.272 -0.0950  0.0396 -0.0464
12647W        W17047  18.844   5.093  25.514  0.1534  0.0121  0.1052
12648W        W17048  16.826   0.030   6.482  0.1770 -0.1687  0.3007
12649W        W17049   8.206   0.826  13.733  0.3409 -0.0910  0.0116
12650W        W17050  24.774   6.322  14.680  0.1861 -0.3799  0.3022
12651W        W17051   0.323   5.298  23.849 -0.0721 -0.2299 -0.0053
12652W        W17052   7.554   6.318  20.769 -0.0807  0.0475 -0.1774
12653W        W17053   1.292   6.260  13.157  0.1489  0.0614  0.0981
12654W        W17054   2.766   2.780  30.494 -0.0063 -0.0659  0.0314
12655W        W17055  10.260   3.758   3.420 -0.2394 -0.0621  0.0739
12656W        W17056   4.826   4.887  20.378 -0.1282  0.1443 -0.1385
12657W        W17057   4.441   3.920  27.280 -0.2604  0.0184 -0.2804
12658W        W17058  14.835   2.492  32.689 -0.1642 -0.0738  0.1901
12659W        W17059  14.512   3.355  32.303  0.0412  0.1888  0.0137
12660W        W17060   4.488   3.418  14.206 -0.1659  0.3190  0.2445
12661W        W17061  16.769   4.316  29.377 -0.2035 -0.0197  0.1284
12662W        W17062  20.797   1.119  27.929  0.1590 -0.1336 -0.0997
12663W        W17063  12.004   4.756   9.026  0.0924 -0.1694  0.3989
12664W        W17064  10.445   3.271   3.730  0.0551 -0.0228 -0.0284
12665W        W17065   4.599   4.935  21.158  0.1004  0.1585 -0.1286
12666W        W17066   3.978   5.847  32.198  0.1753 -0.1223  0.1008
12667W        W17067  11.441   5.929  27.625 -0.0937  0.1507  0.0142
12668W        W17068   7.998   4.466  23.105 -0.0323  0.0296 -0.0430
12669W        W17069  10.178   4.574  12.760 -0.1578  0.4000 -0.0794
12670W        W17070  23.952   6.532  12.159 -0.0669 -0.2314 -0.0497
12671W        W17071   2.277   1.721  25.818  0.1738  0.2136  0.3247
12672W        W17072  22.589   6.251   4.059  0.0618 -0.0280 -0.1417
12673W        W17073  17.493   6.148   9.375 -0.0716  0.0444  0.1577
12674W        W17074  18.674   2.109  32.070 -0.1540 -0.0979 -0.1260
12675W        W17075  23.417   4.786   4.210 -0.2796  0.3471  0.0753
12676W        W17076   8.877   4.689   9.493  0.1525  0.0603  0.0972
12677W        W17077   4.810   2.852   8.736 -0.1262 -0.0977 -0.1139
12678W        W17078  10.069   4.988   7.422 -0.0808 -0.0713 -0.3363
12679W        W17079  19.692   2.471   6.120 -0.2907 -0.0638 -0.2749
12680W        W17080   1.968   5.961   2.691  0.1233 -0.3117 -0.1304
12681W        W17081  12.457   5.441   0.717 -0.1219 -0.0390 -0.1280
12682W        W17082   2.783   0.909   7.166 -0.0004  0.1433  0.0857
12683W        W17083  17.312   0.089  15.074  0.1326 -0.1657  0.0041
12684W        W17084  11.962   1.269   5.749 -0.0527  0.1527 -0.0597
12685W        W17085   2.348   4.439  32.282  0.2267 -0.1150 -0.0590
12686W        W17086   1.008   6.337  26.719  0.1739  0.0116 -0.4821
12687W        W17087  19.665   2.243   0.652 -0.0592 -0.0085 -0.3459
12688W        W17088   2.149   4.354   9.386  0.2630 -0.1370 -0.2572
12689W        W17089  14.710   3.445  21.035  0.3907  0.1595 -0.0341
12690W        W17090  12.434   1.010   8.610 -0.0376 -0.1818 -0.0756
12691W        W17091  13.080   0.209  22.869 -0.0211 -0.3620  0.4256
12692W        W17092  15.850   2.368  22.010 -0.0292  0.1371 -0.3401
12693W        W17093  17.888   5.650  11.862  0.0376  0.2546 -0.1722
12694W        W17094  25.077   6.191   6.794  0.0745  0.1360  0.1353
12695W        W17095   3.395   5.051  33.801  0.1111 -0.1494 -0.2541
12696W        W17096  11.120   0.141  11.915 -0.0804 -0.1266  0.2285
12697W        W17097  12.304   0.620   0.594  0.0415 -0.1449  0.1112
12698W        W17098  13.703   6.146  26.499 -0.2701  0.0517  0.3130
12699W        W17099  14.882   0.359  35.994  0.0148  0.0316  0.3389
12700W        W17100   4.448   4.443  25.074 -0.1143  0.1048 -0.1955
12701W        W17101  13.017   0.817  11.638  0.0395  0.2267 -0.0463
12702W        W17102   6.735   1.525  25.158  0.0561 -0.0360 -0.5802
12703W        W17103   7.855   4.479  33.543  0.0682 -0.2085 -0.0651
12704W        W17104  11.003   4.226  24.594 -0.1299 -0.1803  0.3275
12705W        W17105   8.003   5.932  34.237 -0.1948 -0.0776  0.0684
12706W        W17106  20.629   3.850  31.244  0.2998 -0.1106 -0.1236
12707W        W17107   2.529   5.298  26.154  0.1194  0.1520 -0.1199
12708W        W17108  25.562   2.904   1.961 -0.3711 -0.1984  0.1197
12709W        W17109   9.404   1.810  26.168 -0.0539  0.0289  0.1250
12710W        W17110   4.966   5.723  12.457  0.2692 -0.0762 -0.0174
12711W        W17111  11.262   6.272   1.057  0.0598  0.1066 -0.3848
12712W        W17112  20.545   5.416  13.508 -0.1444 -0.3444  0.2629
12713W        W17113  25.734   3.590  35.322 -0.0955 -0.2110  0.0005
12714W        W17114   5.601   4.804  10.618  0.0590  0.2158  0.0420
12715W        W17115  25.422   5.075  27.328 -0.2916  0.0402  0.2371
12716W        W17116  25.280   0.738   9.264  0.3516 -0.0554 -0.1314
12717W        W17117  15.454   6.257  28.343 -0.0739 -0.0167  0.2389
12718W        W17118   6.253   1.607   4.966 -0.0128 -0.3618  0.3010
12719W        W17119   7.451   4.432  11.363 -0.0236  0.2756 -0.1303
12720W        W17120  21.402   4.877   3.680  0.0550  0.2393 -0.0047
12721W        W17121  23.041   5.300  25.994  0.2392 -0.1684 -0.3051
12722W        W17122  25.747   0.620   3.336  0.1018 -0.3286  0.0739
12723W        W17123  14.306   2.479  29.701 -0.3122  0.0390  0.1643
12724W        W17124   8.277   5.428  14.846  0.2104  0.0345  0.0578
12725W        W17125  16.008   4.843   7.535 -0.2126 -0.1102  0.1306
12726W        W17126   0.288   1.504  35.766  0.4060 -0.0093  0.4413
12727W        W17127  17.535   2.037  31.397  0.1110  0.1004  0.1848
12728W        W17128  18.870   6.192  31.497  0.0350 -0.2861 -0.1279
12729W        W17129  17.960   0.235  32.416 -0.1164 -0.0123 -0.1498
12730W        W17130  10.687   4.055  20.945 -0.0891  0.6307  0.0740
12731W        W17131  23.960   3.480   9.434  0.3306  0.0738  0.3681
12732W        W17132   7.000   5.685   2.956 -0.0685  0.3553  0.0397
12733W        W17133  15.821   2.171  33.167 -0.0928 -0.0278  0.1954
12734W        W17134  16.947   4.550   5.510  0.0911  0.1313 -0.0693
12735W        W17135  25.015   4.501   8.842  0.2765 -0.2059 -0.0682
12736W        W17136   3.480   3.231   5.263 -0.0257 -0.1987  0.0664
12737W        W17137  10.128   3.501  31.970 -0.0133 -0.2139 -0.0710
12738W        W17138   6.722   5.762   3.721 -0.1540 -0.1304 -0.2962
12739W        W17139  17.508   3.753  34.198  0.3014  0.3103 -0.1464
12740W        W17140  22.101   3.521  30.415  0.2499 -0.2544 -0.1599
12741W        W17141  11.932   5.194   7.858  0.2807 -0.0862 -0.2573
12742W        W17142  13.611   2.639  27.063  0.0344  0.0326  0.1871
12743W        W17143   0.517   1.980   2.527 -0.1560 -0.0967  0.0221
12744W        W17144  16.147   0.036  13.686  0.2551  0.0571 -0.1908
12745W        W17145  16.891   1.015  15.149 -0.1118  0.0762 -0.0703
12746W        W17146  12.799   3.607  14.343 -0.0722 -0.1532  0.2379
12747W        W17147  11.848   4.185  24.604 -0.0774  0.1015 -0.1656
12748W        W17148   2.914   4.211   1.968 -0.0152 -0.0545 -0.1341
12749W        W17149  10.603   2.057  26.586 -0.2476  0.0175  0.0853
12750W        W17150   7.506   3.360  13.673 -0.0585  0.0312 -0.4316
12751W        W17151  10.262   1.258  34.064  0.1997  0.0159  0.0661
12752W        W17152   4.058   3.586  24.282  0.0534  0.1615  0.1698
12753W        W17153  15.055   6.182  34.098 -0.1554  0.0380 -0.0260
12754W        W17154  23.939   4.748  12.221 -0.2773 -0.0418  0.0550
12755W        W17155   4.457   0.626  28.688 -0.0222  0.0592  0.0314
12756W        W17156  12.137   1.043  24.268  0.1902  0.1083 -0.1379
12757W        W17157  18.023   4.738  29.846  0.0042  0.1888  0.1008
12758W        W17158   7.044   3.291  24.704  0.1552  0.2294 -0.3169
12759W        W17159  15.756   4.991  34.611 -0.0518 -0.2077  0.1421
12760W        W17160   0.694   4.166  29.708  0.1040 -0.0718 -0.0137
12761W        W17161   6.929   5.254   7.572 -0.0517 -0.0640 -0.0839
12762W        W17162  19.685   5.456   4.940 -0.0084 -0.0651 -0.1781
12763W        W17163  18.562   1.055  32.893  0.1078  0.2092  0.0390
12764W        W17164  10.237   2.904  32.667  0.2316  0.2287 -0.1760
12765W        W17165  10.226   2.309   2.783  0.1759 -0.2530 -0.1913
12766W        W17166   7.779   2.687   1.591  0.0363 -0.0645 -0.1280
12767W        W17167  25.123   4.990  11.580 -0.0844 -0.0335  0.1027
12768W        W17168   7.486   1.293  21.968 -0.0377 -0.0319  0.1040
12769W        W17169  12.420   1.488  12.364  0.1425  0.0236  0.3515
12770W        W17170   5.886   6.327  30.031 -0.1910 -0.0567 -0.0162
12771W        W17171  11.832   5.753  36.031  0.1242  0.0037  0.1877
12772W        W17172  20.735   3.287  30.692  0.3246 -0.4706  0.1542
12773W        W17173   2.521   1.044  22.219  0.2680  0.1103 -0.0288
12774W        W17174  18.503   4.693  24.155  0.0938 -0.1163 -0.1469
12775W        W17175  23.342   5.358   5.840  0.5429  0.0927  0.3700
12776W        W17176  15.600   4.590  21.528 -0.1225 -0.1554 -0.3500
12777W        W17177  13.574   0.519  21.429  0.1134  0.0127  0.2900
12778W        W17178  13.716   1.564  35.208 -0.0512 -0.2082  0.1348
12779W        W17179  14.332   2.973  21.091 -0.0358 -0.1071  0.1879
12780W        W17180  20.634   3.392   6.365 -0.1875 -0.1088 -0.2721
12781W        W17181  14.779   6.306  26.300  0.1612  0.2510  0.0465
12782W        W17182   8.017   3.066   1.823 -0.0831  0.2902 -0.0124
12783W        W17183  13.790   3.317  35.617 -0.0212  0.1497 -0.1371
12784W        W17184  19.334   2.766   1.669 -0.2002  0.1292 -0.0379
12785W        W17185   1.857   0.450   1.690 -0.0084 -0.0446 -0.0896
12786W        W17186  23.603   0.521  31.032 -0.1491  0.0257 -0.0912
12787W        W17187  12.584   5.281  30.511  0.3047  0.4526  0.0470
12788W        W17188  25.338   3.432  27.559  0.0734 -0.1514 -0.2953
12789W        W17189  22.390   1.275   8.579  0.1171 -0.2161 -0.2411
12790W        W17190  15.366   3.970   5.211  0.0526 -0.3122 -0.0474
12791W        W17191  24.593   2.923   1.897 -0.2182 -0.0768 -0.0333
12792W        W17192  19.653   0.909   7.343  0.1735  0.1415  0.0071
12793W        W17193  24.378   2.804  25.178  0.0384  0.0666 -0.1436
12794W        W17194  25.371   6.017   1.504 -0.0319 -0.0442 -0.2952
12795W        W17195   2.093   0.894   1.554  0.5513  0.2391  0.2763
12796W        W17196   2.834   1.396   7.358 -0.0599  0.1951 -0.1267
12797W        W17197  24.512   4.329  23.449 -0.2081 -0.0491  0.0526
12798W        W17198   3.803   0.980  29.378 -0.0597 -0.0406 -0.1179
12799W        W17199  21.029   0.433   1.784  0.3735 -0.1925 -0.0626
12800W        W17200   5.597   0.252   9.151 -0.1010  0.0040 -0.2436
12801W        W17201  14.305   0.252  14.410  0.0687  0.0033 -0.0363
12802W        W17202  14.931   5.960  22.854 -0.0394 -0.5005  0.3209
12803W        W17203  21.851   5.283  31.718  0.1849  0.1414  0.0562
12804W        W17204   0.935   1.891  22.117 -0.1526  0.1177  0.1084
12805W        W17205  13.546   5.177  24.071  0.0889  0.2693  0.0737
12806W        W17206   5.565   3.390  15.234  0.3737  0.0782 -0.0972
12807W        W17207  17.833   0.767  24.321  0.3404 -0.1374 -0.2145
12808W        W17208  19.769   4.938  31.652 -0.1237 -0.5227 -0.2671
12809W        W17209  12.611   3.319   6.127  0.0784 -0.1437  0.1108
12810W        W17210   3.554   3.913  14.342  0.1242 -0.0297  0.1398
12811W        W17211   2.548   3.414  21.115  0.0685  0.0917 -0.0604
12812W        W17212   6.225   0.842  23.986 -0.0926 -0.0469 -0.1332
12813W        W17213  16.245   6.436  25.720 -0.2120  0.2661 -0.0978
12814W        W17214   6.758   4.429  14.826  0.2132 -0.0935  0.0993
12815W        W17215   6.708   0.144  10.828 -0.1300  0.0667  0.3475
12816W        W17216  22.616   6.595   6.540 -0.2499  0.1108  0.0565
12817W        W17217  13.199   1.582  14.821 -0.0613  0.2218 -0.0069
12818W        W17218   0.828   5.832  26.420 -0.1287 -0.0345 -0.1378
12819W        W17219   8.223   4.194  21.957  0.3194  0.0746 -0.0938
12820W        W17220  20.389   0.780   6.924 -0.0518 -0.1731 -0.0096
12821W        W17221  10.040   5.079   2.217  0.1778 -0.0332  0.1101
12822W        W17222  24.836   1.628  27.593 -0.1104 -0.2651 -0.0518
12823W        W17223  14.706   2.787   0.752 -0.0589  0.0360 -0.2792
12824W        W17224   3.627   3.228   5.773  0.1600 -0.2169 -0.0660
12825W        W17225   9.936   1.335   5.692 -0.3653 -0.1780  0.2354
12826W        W17226  13.288   4.658  28.598 -0.0156  0.0866 -0.2470
12827W        W17227  13.304   5.007   7.849  0.1491  0.0914 -0.1686
12828W        W17228  14.457   6.265   7.209 -0.1032  0.1575  0.1330
12829W        W17229  25.084   3.826  12.999  0.1468  0.2461  0.3504
12830W        W17230   2.559   0.328  24.705 -0.2033 -0.1667  0.0991
12831W        W17231   9.300   4.748   0.155 -0.4525  0.0154  0.1432
12832W        W17232  13.205   2.939  26.395 -0.0210 -0.2445 -0.4420
12833W        W17233   2.813   2.793   5.993  0.3608 -0.0645 -0.0643
12834W        W17234   4.307   2.160  22.332  0.3147 -0.0336  0.0861
12835W        W17235   9.692   3.870   0.627  0.0303 -0.0903  0.1904
12836W        W17236  17.598   4.547  28.415  0.2098 -0.0316  0.0954
12837W        W17237  19.414   0.883  29.254 -0.0018  0.2598  0.0135
12838W        W17238   0.418   3.228  13.514  0.1580 -0.1486 -0.0706
12839W        W17239  22.203   5.390  21.036  0.0675 -0.3846 -0.1919
12840W        W17240  11.811   1.923   3.400  0.2410  0.4975 -0.1195
12841W        W17241   8.784   3.847  29.538 -0.1313  0.2194  0.2225
12842W        W17242  16.014   5.314   6.231 -0.0644 -0.0543 -0.0410
12843W        W17243   5.123   4.593  34.896 -0.3230  0.1284  0.0161
12844W        W17244  15.483   6.041   0.969  0.0144  0.0544 -0.1267
12845W        W17245   3.212   6.231  27.096  0.2656 -0.1591  0.1234
12846W        W17246   6.401   1.188  28.324  0.0846  0.0082  0.0858
12847W        W17247   8.352   6.219   8.723 -0.2675 -0.1852 -0.0686
12848W        W17248  14.887   1.804  12.405 -0.0860  0.2056 -0.0025
12849W        W17249   8.177   5.299  28.612  0.0738 -0.1321  0.4485
12850W        W17250   1.282   6.238  11.212 -0.5056  0.0053  0.0232
12851W        W17251  13.749   3.710   5.245 -0.1664 -0.3112  0.3376
12852W        W17252  18.371   1.627  21.568  0.0694 -0.0730 -0.3235
12853W        W17253   1.308   1.790   6.857  0.3148 -0.1063  0.1728
12854W        W17254  10.902   3.940  34.628 -0.1210  0.1301 -0.0046
12855W        W17255   1.404   5.627   9.501 -0.0167 -0.1599 -0.0485
12856W        W17256  22.141   3.149   7.225  0.2171 -0.0304 -0.1759
12857W        W17257   4.567   4.562   1.064  0.0405 -0.1268 -0.1568
12858W        W17258  19.424   4.436  13.284 -0.0603  0.1457  0.0074
12859W        W17259   9.509   4.930  31.801 -0.2096 -0.0837 -0.0004
12860W        W17260   0.913   3.137   1.948 -0.0889 -0.1444  0.1865
12861W        W17261  11.242   5.273  24.220 -0.0886  0.2520 -0.0557
12862W        W17262   8.599   3.683   1.519  0.0333 -0.1960 -0.2741
12863W        W17263  11.831   2.474  35.436 -0.4626  0.1541 -0.0270
12864W        W17264  14.915   1.339  25.705  0.2214 -0.1410  0.0180
12865W        W17265  10.961   6.078   9.104 -0.1384 -0.2774 -0.2428
12866W        W17266  20.825   0.013  30.269  0.0542  0.4096  0.0314
12867W        W17267  20.054   1.734   4.676 -0.2585 -0.0851 -0.0059
12868W        W17268  12.096   4.188   7.143  0.1568  0.2483 -0.1377
12869W        W17269   4.746   2.488  27.261  0.3330 -0.1406 -0.1267
12870W        W17270  25.427   4.936  32.261 -0.1702  0.2599  0.0871
12871W        W17271   8.233   6.242  30.956  0.0271 -0.1158  0.0369
12872W        W17272  16.495   3.713   0.996  0.1096 -0.0125  0.1221
12873W        W17273  24.695   1.359  24.323 -0.4923 -0.2995 -0.3759
12874W        W17274  12.096   0.218   0.081 -0.0393  0.0682  0.0458
12875W        W17275   2.828   4.260  22.166  0.1052  0.0308 -0.2844
12876W        W17276   1.169   6.068  32.275  0.1409 -0.1804  0.0644
12877W        W17277  24.813   5.004  27.949 -0.1311  0.0955  0.1682
12878W        W17278  13.135   1.847  34.239  0.0676 -0.0755  0.2363
12879W        W17279   9.345   6.189   6.668  0.0883 -0.0270  0.0207
12880W        W17280   8.820   4.995   3.692  0.0407 -0.0620 -0.0089
12881W        W17281   2.189   3.806  28.183 -0.2668 -0.0475 -0.2727
12882W        W17282   2.980   4.913   8.207  0.0283  0.1409 -0.0930
12883W        W17283  25.142   1.286   8.367 -0.2608  0.2041  0.0053
12884W        W17284   7.919   5.613   2.250 -0.0965 -0.0343 -0.0872
12885W        W17285  19.296   3.897  32.322 -0.3042  0.1306 -0.0485
12886W        W17286   6.570   6.423   8.453  0.0379 -0.4639 -0.0256
12887W        W17287   8.466   0.687   5.308 -0.1351 -0.2119 -0.0197
12888W        W17288  12.978   3.521  33.559 -0.0605  0.0796 -0.0238
12889W        W17289  12.840   0.729   2.409  0.0467  0.0681 -0.0647
12890W        W17290   3.662   3.788  13.890 -0.1871 -0.0023 -0.0005
12891W        W17291   6.510   4.915  29.118 -0.2482  0.2135  0.2540
12892W        W17292  19.569   3.407  30.166  0.0430  0.0122 -0.0630
12893W        W17293   1.045   4.600  26.361 -0.3869  0.2898 -0.0737
12894W        W17294  23.412   0.966  34.889  0.0635  0.0144 -0.2784
12895W        W17295  11.064   5.820  24.853 -0.4595  0.0879 -0.2785
12896W        W17296  20.239   2.377  12.165 -0.0657  0.0667  0.0677
12897W        W17297  13.536   3.193   8.287  0.1065  0.0312  0.0692
12898W        W17298   0.743   5.281  26.446 -0.2407 -0.3494  0.0838
12899W        W17299   5.277   5.391   4.313  0.3339 -0.0499 -0.0174
12900W        W17300  20.773   4.664  12.856  0.2265  0.1573 -0.0740
12901W        W17301  16.081   4.946  35.826 -0.0581 -0.0566  0.0647
12902W        W17302   1.582   3.119  10.167  0.3026 -0.1980  0.1379
12903W        W17303   3.227   5.245  14.305  0.0930 -0.2489 -0.0269
12904W        W17304  15.292   6.366  21.343 -0.2138 -0.1459  0.0131
12905W        W17305  13.465   3.745   8.203 -0.6433  0.0207  0.0131
12906W        W17306   0.877   0.492   1.053  0.0539 -0.2417  0.0728
12907W        W17307  13.934   1.446  24.732  0.2179 -0.0105 -0.0361
12908W        W17308  12.212   1.613   0.650 -0.0168 -0.1119  0.2417
12909W        W17309  21.619   1.388  14.284  0.0104 -0.0657 -0.0551
12910W        W17310  17.624   4.065  32.785  0.1549 -0.2489  0.0158
12911W        W17311   0.215   6.103  22.189 -0.1765  0.0514 -0.1294
12912W        W17312  13.777   4.653  12.359  0.0030  0.2629 -0.2072
12913W        W17313  11.473   5.671  29.665  0.1785 -0.1178 -0.0301
12914W        W17314  25.688   3.412  10.132 -0.0953 -0.0157 -0.0800
12915W        W17315  10.741   0.574  22.140 -0.0390  0.0206 -0.2691
12916W        W17316  15.999   2.095  25.646 -0.1882  0.1423 -0.0145
12917W        W17317   1.654   6.232   5.954 -0.1179 -0.2040 -0.2331
12918W        W17318   3.342   4.880  14.712  0.0928  0.3821  0.2060
12919W        W17319  11.809   0.069   2.839 -0.1839 -0.0119 -0.0686
12920W        W17320  17.436   3.308  13.669 -0.5001  0.0574 -0.0226
12921W        W17321  11.498   1.291  13.132  0.1222  0.3399  0.0935
12922W        W17322  15.661   6.288   4.755 -0.0390 -0.0651 -0.0495
12923W        W17323   3.392   0.774  35.466  0.1888  0.1085  0.1694
12924W        W17324  15.882   2.417  31.791  0.0590 -0.1955 -0.2061
12925W        W17325  15.936   2.507   7.435 -0.0264  0.3090  0.4478
12926W        W17326  16.601   0.106  30.982 -0.0739  0.0500 -0.2941
12927W        W17327  10.528   6.419   2.024  0.0254  0.3268 -0.1930
12928W        W17328  22.060   4.240  11.365  0.0208 -0.1938 -0.5374
12929W        W17329   3.790   1.307  25.816 -0.0174  0.0314 -0.0198
12930W        W17330   4.619   3.123   5.809  0.0167  0.1917  0.1970
12931W        W17331  22.975   0.701  26.515 -0.2292 -0.0546 -0.3374
12932W        W17332  14.367   4.316   7.545  0.1895  0.0960 -0.0106
12933W        W17333  21.904   5.254  15.148  0.2517 -0.0272  0.0671
12934W        W17334  21.071   4.376   6.760 -0.0858  0.1492 -0.1550
12935W        W17335  11.894   4.228  14.236  0.0280 -0.0203 -0.1629
12936W        W17336  25.537   5.075  27.915 -0.2065 -0.1180 -0.1338
12937W        W17337  21.296   0.856   1.638 -0.0554  0.1367 -0.0097
12938W        W17338  24.010   2.375  12.607 -0.3647 -0.0718  0.2669
12939W        W17339  24.931   3.617  21.341  0.1263  0.1518  0.2237
12940W        W17340   7.698   2.703   0.531 -0.2136  0.2458  0.0451
12941W        W17341  15.305   3.231  29.896 -0.0171  0.1082  0.1283
12942W        W17342   8.544   1.161  13.790 -0.1049 -0.0348  0.3265
12943W        W17343  24.055   4.785  35.558  0.0613 -0.1436 -0.0750
12944W        W17344  14.185   2.952  30.060 -0.0945  0.0488 -0.0641
12945W        W17345  25.024   2.776  20.843 -0.0880 -0.1797 -0.0425
12946W        W17346  23.620   6.129   4.361 -0.0471  0.0619 -0.2750
12947W        W17347  11.388   5.757   5.924  0.2930  0.1496 -0.1528
12948W        W17348  24.902   2.231   8.991 -0.0956  0.0571  0.0661
12949W        W17349  14.456   5.481  25.917 -0.1099 -0.3252  0.0833
12950W        W17350  16.620   2.566   6.416 -0.1686  0.0154  0.0990
12951W        W17351   8.413   6.494  12.481 -0.0171 -0.1290  0.1815
12952W        W17352  22.135   6.468  29.892  0.0543 -0.1367  0.0189
12953W        W17353   2.801   4.835   3.636 -0.0565 -0.2062  0.1896
12954W        W17354  11.207   1.812   5.283  0.1772 -0.0236 -0.2389
12955W        W17355  13.075   2.326  34.500 -0.1328 -0.2470 -0.2292
12956W        W17356   6.015   1.477  23.748 -0.0313  0.0122 -0.1336
12957W        W17357   9.350   6.356  22.112 -0.0069 -0.0144 -0.2144
12958W        W17358  17.867   2.125  32.971 -0.2152  0.0683  0.0062
12959W        W17359  16.935   0.630   8.619 -0.0097 -0.3409  0.4742
12960W        W17360  18.055   3.539  13.058  0.1601  0.0891 -0.1160
12961W        W17361  19.508   4.419  23.381  0.0616 -0.0635 -0.0079
12962W        W17362  12.548   4.358   8.662  0.1406 -0.0941 -0.0967
12963W        W17363  11.790   6.347  33.390 -0.1071 -0.1291 -0.2005
12964W        W17364   3.554   0.766  15.513 -0.0960  0.1899  0.0275
12965W        W17365  15.325   1.249  11.252  0.0070 -0.0559 -0.0737
12966W        W17366  11.953   3.033   3.763  0.0266  0.1094  0.1039
12967W        W17367  15.516   5.619   7.762 -0.1359 -0.0559  0.2082
12968W        W17368   3.164   4.074   4.931 -0.0594  0.0568  0.1056
12969W        W17369  17.433   5.750   4.697 -0.0967  0.1001  0.0287
12970W        W17370   0.953   6.553   1.443 -0.1245 -0.0445  0.0269
12971W        W17371   2.108   0.570  10.011  0.2155  0.3019 -0.1304
12972W        W17372   2.638   4.140  24.732  0.0399  0.0546 -0.0276
12973W        W17373   2.243   3.639  29.521  0.1384  0.2049  0.1179
12974W        W17374  15.260   5.030  22.813  0.2661  0.2724  0.3424
12975W        W17375  19.823   2.036   2.394  0.0011  0.0799 -0.2303
12976W        W17376   7.003   0.201   0.582  0.1062 -0.3084  0.3979
12977W        W17377   2.226   5.331  13.119 -0.0405 -0.2294 -0.2727
12978W        W17378  23.933   3.918   5.967 -0.0254  0.0327  0.0676
12979W        W17379  24.308   5.579  11.020  0.2705 -0.0651 -0.0042
12980W        W17380   5.728   2.127  24.278  0.1730 -0.0199 -0.2332
12981W        W17381  22.661   3.125  35.998  0.3543 -0.1446 -0.1289
12982W        W17382   4.178   3.576   1.953  0.1050 -0.0088  0.2948
12983W        W17383   9.592   4.130  12.353  0.2995  0.1131 -0.1561
12984W        W17384  13.429   1.654  25.448 -0.0012  0.0991 -0.1069
12985W        W17385  11.923   2.500  33.674 -0.0827  0.0598  0.0139
12986W        W17386  23.628   0.621   6.237 -0.3072  0.1572 -0.1359
12987W        W17387   6.132   1.389   9.063  0.1439  0.0129 -0.2875
12988W        W17388  11.174   3.354  13.815  0.1147  0.0530  0.0371
12989W        W17389  25.195   4.223  28.043 -0.0900 -0.0792  0.2791
12990W        W17390   7.246   0.573  35.285  0.1412 -0.0212 -0.2866
12991W        W17391  15.271   3.213   0.378 -0.2165  0.1541  0.1032
12992W        W17392  16.011   6.074  26.988  0.0566  0.4395 -0.0060
12993W        W17393  17.908   1.441   3.388  0.2536  0.1404  0.0746
12994W        W17394   3.432   3.984   1.742  0.2878  0.1597 -0.2179
12995W        W17395  18.348   2.168  30.632  0.1808  0.1661  0.0155
12996W        W17396   3.833   1.011   0.969  0.0473 -0.2918 -0.1028
12997W        W17397  11.393   3.455  29.276 -0.0629 -0.3072  0.0988
12998W        W17398  21.861   5.181  26.732  0.0015 -0.0514 -0.1661
12999W        W17399   8.368   2.764  22.185 -0.3537  0.0730 -0.0109
13000W        W17400  22.626   3.441  10.032 -0.0806 -0.1053 -0.1458
13001W        W17401  12.912   4.878  26.018  0.1736  0.0615  0.1883
13002W        W17402  21.570   1.125   0.184 -0.0788 -0.0148  0.1052
13003W        W17403  18.576   2.286  11.682  0.1274  0.1101 -0.1652
13004W        W17404   3.709   3.865  29.837  0.5205  0.0187  0.0613
13005W        W17405  20.875   6.220   2.900  0.0616 -0.2335 -0.2182
13006W        W17406  17.851   4.405  24.621 -0.2609  0.2540  0.3345
13007W        W17407  19.193   4.158  12.251  0.4007  0.0389 -0.1056
13008W        W17408   2.483   2.018  32.416 -0.0179 -0.1136 -0.1042
13009W        W17409   5.192   2.347   4.237 -0.0730  0.0033  0.0950
13010W        W17410  10.476   5.626   6.420  0.2573  0.1888  0.0509
13011W        W17411   3.218   5.749   8.487 -0.4776 -0.0756  0.2811
13012W        W17412   0.916   5.075   4.256  0.1574  0.0175 -0.0567
13013W        W17413  10.932   5.858  33.457 -0.1856  0.2863  0.0338
13014W        W17414   5.380   4.354  10.307 -0.1948 -0.0328 -0.2404
13015W        W17415   5.658   3.373  10.228  0.1393  0.2355 -0.2485
13016W        W17416  12.556   2.405   6.571 -0.1739  0.0789  0.1791
13017W        W17417  21.176   0.312  35.145  0.1082  0.0652 -0.2222
13018W        W17418  14.376   5.945  11.077  0.1155  0.0083  0.0553
13019W        W17419   7.080   3.581  11.913 -0.2103 -0.0637  0.1895
13020W        W17420   2.958   6.357  27.958 -0.2542  0.0019 -0.1379
13021W        W17421  12.737   2.151  13.683 -0.1495 -0.4577 -0.0469
13022W        W17422   5.367   4.013  25.101 -0.0222 -0.0637  0.2453
13023W        W17423   8.064   0.488   0.127  0.2371  0.1528 -0.0430
13024W        W17424   0.460   0.475  11.671  0.1287  0.0829  0.0814
13025W        W17425  20.672   6.505  31.313  0.0348 -0.1570  0.1393
13026W        W17426  14.136   5.763  25.636  0.0233  0.0301  0.0278
13027W        W17427  25.565   2.200  31.833  0.1494  0.1840  0.0150
13028W        W17428  14.033   5.456  33.407  0.1072 -0.0747  0.0978
13029W        W17429   9.341   1.505   4.574 -0.2342  0.4045  0.0561
13030W        W17430  25.245   2.549  12.156 -0.2622 -0.0647 -0.0421
13031W        W17431  15.344   4.930  26.965  0.4673 -0.0206  0.0474
13032W        W17432  20.790   5.325  33.745 -0.0751  0.0856  0.3327
13033W        W17433   3.692   1.918  30.965  0.0481  0.1508  0.1014
13034W        W17434  15.793   2.312  32.265 -0.4013 -0.1015  0.1624
13035W        W17435   9.923   1.271  20.838  0.0722 -0.1488 -0.1113
13036W        W17436  12.134   0.929  13.880  0.2534 -0.2058 -0.1324
13037W        W17437  20.761   1.729   8.217  0.0253 -0.2213  0.4488
13038W        W17438  15.401   2.205  32.805  0.0791  0.2515 -0.1520
13039W        W17439   0.135   1.358  27.408 -0.0423  0.3172  0.0589
13040W        W17440   8.863   5.961   6.530  0.2317  0.1298  0.0293
13041W        W17441   1.646   1.212  31.701 -0.0919  0.0783 -0.3026
13042W        W17442   9.984   2.277  33.498 -0.0243 -0.0953 -0.0652
13043W        W17443   9.304   5.393   7.085  0.2990  0.1406 -0.1299
13044W        W17444   1.776   1.616  11.918 -0.0960  0.1216  0.0590
13045W        W17445   8.834   2.676  23.102  0.1607 -0.1144  0.0072
13046W        W17446   9.675   0.719  24.024 -0.2729 -0.2818  0.0064
13047W        W17447  17.482   3.807  26.347 -0.1106  0.0134 -0.0652
13048W        W17448  12.579   1.315  24.174  0.0677 -0.1664 -0.0690
13049W        W17449  24.961   1.613   5.311 -0.4519 -0.0337  0.1423
13050W        W17450  25.937   2.216   8.363 -0.1717  0.1121 -0.0090
13051W        W17451  24.170   0.827  22.349  0.3238  0.1363  0.0602
13052W        W17452   1.551   1.994  13.268  0.2822 -0.0806  0.1501
13053W        W17453  21.878   5.885   8.217  0.1470  0.1418  0.3676
13054W        W17454  19.331   1.961  15.773  0.2064  0.2280 -0.0157
13055W        W17455  14.691   2.285  12.464  0.1331  0.1417  0.0655
13056W        W17456  23.461   5.631  35.091  0.0760 -0.0287 -0.0413
13057W        W17457   8.291   4.901  23.101  0.0343 -0.3839  0.0382
13058W        W17458  26.360   0.561  22.713  0.0267 -0.0660  0.3173
13059W        W17459  17.937   4.953  22.248 -0.1224 -0.0663  0.0889
13060W        W17460  15.409   5.777  29.267 -0.4568  0.2060  0.2533
13061W        W17461   5.771   3.296  34.697  0.0484  0.2515 -0.2485
13062W        W17462  20.461   1.100  23.685 -0.3812  0.1998  0.1338
13063W        W17463  19.470   5.889   2.767  0.0850  0.0841 -0.2356
13064W        W17464   3.134   3.847  23.319  0.1193  0.1578 -0.0791
13065W        W17465   3.117   6.369  24.917  0.0537  0.0608  0.1442
13066W        W17466   1.426   6.294  21.706  0.1648 -0.1781  0.4674
13067W        W17467   3.262   0.424   8.122 -0.2997 -0.2698  0.1792
13068W        W17468  20.020   4.647   1.105 -0.3260  0.3426  0.0005
13069W        W17469  17.306   3.920   4.935 -0.0853  0.1070  0.0905
13070W        W17470   0.896   6.590  27.896 -0.2664  0.1741 -0.0092
13071W        W17471  11.683   0.631  32.277  0.1413  0.1734  0.0467
13072W        W17472   0.533   3.027   5.956  0.0044  0.2542  0.3029
13073W        W17473  24.058   4.869  30.901  0.1916  0.0285 -0.0215
13074W        W17474  20.550   1.823   4.775  0.0089 -0.3649 -0.0386
13075W        W17475   7.902   4.775  28.737 -0.4719  0.1718  0.2158
13076W        W17476  22.535   5.674   5.971 -0.2005  0.2941  0.2407
13077W        W17477  23.223   0.793   7.390  0.0735 -0.3525 -0.0657
13078W        W17478  23.290   4.510   0.348 -0.2081 -0.3207  0.4133
13079W        W17479  12.628   3.047  26.939  0.4414 -0.0104  0.1326
13080W        W17480   3.928   4.288   4.967 -0.0963 -0.1982 -0.1352
13081W        W17481   0.792   2.503  31.365  0.4430 -0.2255 -0.0822
13082W        W17482   6.560   4.526   8.461 -0.3301  0.1651 -0.3151
13083W        W17483   1.696   6.401  24.235  0.0174 -0.0914 -0.1084
13084W        W17484  16.566   1.746  22.215  0.0645 -0.0078  0.0406
13085W        W17485  15.126   6.068  11.394 -0.2194  0.0671  0.2074
13086W        W17486  18.386   1.216  24.643 -0.3547 -0.1851  0.0757
13087W        W17487  12.054   6.078   1.840  0.0676  0.1763  0.1508
13088W        W17488   4.589   5.851  34.247  0.2190 -0.0197 -0.0005
13089W        W17489   8.856   5.192  31.540 -0.3112 -0.0727 -0.0454
13090W        W17490   5.558   4.650  29.581 -0.0446 -0.2177  0.3660
13091W        W17491  19.987   2.642  10.752  0.0410 -0.0145 -0.2341
13092W        W17492  10.397   5.621  14.891  0.2087  0.3902 -0.2780
13093W        W17493  16.326   2.437  25.396  0.1275 -0.0626 -0.1174
13094W        W17494  14.636   1.709  22.955 -0.3646 -0.0096  0.0135
13095W        W17495  11.346   2.195  35.722 -0.0954 -0.3009  0.0050
13096W        W17496   9.771   1.081   1.855  0.2914  0.2024 -0.0886
13097W        W17497   3.245   0.335  14.872 -0.1087 -0.2779 -0.1033
13098W        W17498   0.578   6.369  25.909  0.1386 -0.0723 -0.2486
13099W        W17499  12.796   4.721   7.354  0.3443 -0.2142 -0.2228
13100W        W17500  17.931   6.250  24.070 -0.1590  0.4161  0.1153
13101W        W17501  18.933   3.932  13.927 -0.1215 -0.0960  0.4628
13102W        W17502  18.846   3.659  34.151  0.0660 -0.1056  0.2320
13103W        W17503   3.039   4.253  11.622 -0.0743  0.2565  0.2189
13104W        W17504   6.621   1.520   7.730 -0.0375  0.1147 -0.3585
13105W        W17505   4.762   3.210   6.287  0.0005  0.3007 -0.2535
13106W        W17506   7.085   3.105   4.610  0.0901  0.3508  0.1629
13107W        W17507  15.497   5.860   9.670 -0.1372 -0.3562  0.0785
13108W        W17508  15.455   4.354  33.518  0.0458 -0.0360 -0.2083
13109W        W17509   7.031   3.669   4.467  0.1983 -0.0103 -0.0525
13110W        W17510  22.247   4.843  35.015 -0.0600  0.0775 -0.0694
13111W        W17511  21.434   5.082  27.119  0.1383  0.0642  0.0616
13112W        W17512  24.325   2.385  35.125  0.0738  0.0221 -0.0164
13113W        W17513  18.949   4.668  27.216 -0.2035  0.1029 -0.1655
13114W        W17514   9.342   3.574   3.606  0.0091  0.0703  0.0486
13115W        W17515  12.290   2.321   7.419 -0.1191 -0.0747 -0.2804
13116W        W17516  20.117   1.844  22.912  0.3367  0.0845 -0.1235
13117W        W17517   9.324   1.535  14.311  0.2581  0.0811  0.0445
13118W        W17518  24.240   4.276   6.011 -0.1799 -0.0888 -0.0582
13119W        W17519   2.869   3.297   6.898 -0.0834  0.2870 -0.2149
13120W        W17520  11.163   3.031  30.516  0.1882 -0.1935 -0.0172
13121W        W17521  12.853   5.371   5.866  0.2199  0.3074  0.3441
13122W        W17522  21.710   4.244  31.736  0.1682  0.1659 -0.0669
13123W        W17523  12.014   5.892  26.287  0.3269 -0.0295 -0.1251
13124W        W17524   0.860   0.676   5.699 -0.1233 -0.2423  0.0429
13125W        W17525  11.768   4.694  35.883 -0.2601 -0.0516  0.0353
13126W        W17526  11.477   0.361   1.790  0.3385 -0.0924  0.0532
13127W        W17527  15.427   5.111  32.115 -0.1272  0.0788  0.0333
13128W        W17528  13.021   4.610  15.628  0.0535  0.0087  0.1894
13129W        W17529   0.575   6.285   7.721 -0.4939  0.0936  0.1665
13130W        W17530  20.486   1.880  22.533 -0.1431  0.0538 -0.0830
13131W        W17531   9.857   3.666  28.323 -0.1413  0.1138  0.1930
13132W        W17532   2.716   0.018   6.920 -0.1834 -0.3817  0.2529
13133W        W17533  17.325   1.963   9.167  0.0532 -0.0064 -0.1079
13134W        W17534  20.333   5.712  34.370  0.1003  0.1445  0.3444
13135W        W17535  12.856   6.438  13.522 -0.0897  0.2686  0.3591
13136W        W17536  14.960   3.052   1.889 -0.1637  0.0267  0.0202
13137W        W17537   8.645   0.901  23.397 -0.1113  0.0271 -0.1057
13138W        W17538   4.909   1.329  26.928  0.0990  0.0500  0.0318
13139W        W17539  19.122   5.591  24.120  0.1096  0.0257 -0.0332
13140W        W17540   1.802   4.647  12.028 -0.0087  0.3547 -0.0594
13141W        W17541  22.121   2.917   8.755 -0.0047  0.0951 -0.1784
13142W        W17542  10.158   5.838  21.894 -0.0962 -0.0975 -0.1690
13143W        W17543   6.724   1.091  13.301  0.1678 -0.2473  0.2637
13144W        W17544  15.627   0.810  10.962 -0.1052  0.2664  0.0909
13145W        W17545  11.138   1.396   9.553 -0.1867 -0.1702 -0.1237
13146W        W17546   8.394   6.306  30.153  0.1435 -0.1117 -0.2178
13147W        W17547  25.771   1.660  24.534  0.2051 -0.1040 -0.0606
13148W        W17548  14.153   1.566  11.057 -0.1157  0.2810 -0.0590
13149W        W17549  14.531   1.657   0.673  0.0352  0.2050  0.1947
13150W        W17550  15.672   1.641   3.294  0.0680  0.3089  0.0534
13151W        W17551  25.666   0.722  10.770 -0.0152  0.1274  0.0044
13152W        W17552  22.168   6.208   2.291 -0.0314  0.1599  0.1113
13153W        W17553  12.022   0.377   3.192  0.0803 -0.0907  0.4944
13154W        W17554   1.350   2.146   8.468  0.0159  0.0263  0.0451
13155W        W17555  12.375   1.587  28.335  0.1829  0.1334 -0.1635
13156W        W17556  15.626   0.873  30.766 -0.0576  0.0890 -0.0523
13157W        W17557   4.459   4.933  23.006 -0.2588 -0.1006  0.2441
13158W        W17558   3.054   5.196  15.567 -0.2294  0.3174 -0.1867
13159W        W17559   6.722   4.750  23.311 -0.0855 -0.1129 -0.1269
13160W        W17560   5.140   5.687  26.639 -0.0455 -0.3440 -0.2085
13161W        W17561  13.408   1.206  13.340  0.0655  0.1120 -0.1811
13162W        W17562   1.581   0.414  16.245  0.0690  0.2525  0.1503
13163W        W17563  17.123   3.557   3.544 -0.2630 -0.0097 -0.0312
13164W        W17564  12.537   4.255  28.264  0.4005  0.3056  0.2049
13165W        W17565   8.697   4.165   0.533  0.0451  0.2278  0.0023
13166W        W17566  16.031   0.838  28.001 -0.1226 -0.2672  0.2035
13167W        W17567  18.138   4.630  35.449  0.1124  0.2799 -0.1561
13168W        W17568   6.031   1.325   4.637  0.1938  0.0558 -0.1854
13169W        W17569   3.367   5.576  14.677 -0.0356 -0.0750 -0.1395
13170W        W17570   5.673   2.419  21.998  0.0415  0.3509  0.0042
13171W        W17571  19.823   4.927  22.190 -0.0679  0.0018 -0.0214
13172W        W17572  21.698   3.522   4.192  0.1673  0.1085  0.0398
13173W        W17573  19.994   3.738  25.760  0.1629 -0.0147 -0.1475
13174W        W17574   1.456   6.549   8.426 -0.1704 -0.2802 -0.0072
13175W        W17575  12.786   5.306  10.594  0.2127 -0.1889 -0.1141
13176W        W17576   3.553   4.203  28.544  0.1345  0.2072 -0.1452
13177W        W17577  13.876   5.129  31.918  0.1279  0.1432  0.0012
13178W        W17578  20.846   1.583  24.484  0.0120 -0.3914 -0.2278
13179W        W17579  25.201   0.044  10.594 -0.0242  0.1599 -0.0209
13180W        W17580  13.680   0.158  33.185 -0.0262  0.3029  0.0690
13181W        W17581  12.921   5.061  11.739  0.0518  0.2538 -0.1087
13182W        W17582   1.133   1.108   0.720  0.0187  0.1400 -0.2239
13183W        W17583   5.914   1.917  23.338  0.1196  0.1681  0.1376
13184W        W17584  23.137   2.817  14.207 -0.2566  0.0115  0.0584
13185W        W17585   5.958   0.079  23.080  0.0241  0.1211  0.2377
13186W        W17586   8.101   1.386   3.449 -0.1817  0.1182  0.1533
13187W        W17587  25.734   4.225  23.513  0.0371  0.3082  0.1894
13188W        W17588   8.097   5.298   0.516 -0.2278  0.0936 -0.2026
13189W        W17589   1.828   5.218  26.292 -0.0675 -0.1536 -0.0344
13190W        W17590   6.665   3.143   2.142 -0.1568 -0.1089  0.0685
13191W        W17591   5.266   2.920  32.750  0.0566  0.1245  0.2027
13192W        W17592  22.730   2.307  14.847  0.0202 -0.0641 -0.0522
13193W        W17593  24.385   5.354  12.719 -0.5747 -0.3312  0.2487
13194W        W17594  11.569   5.435   0.670 -0.0829 -0.0300  0.1714
13195W        W17595   3.113   5.795   5.018 -0.2138  0.1187 -0.1215
13196W        W17596  25.577   6.415   3.241 -0.0223 -0.1778  0.1314
13197W        W17597  15.421   4.784  33.253  0.0160 -0.1469  0.0391
13198W        W17598  19.506   0.808  29.911  0.0911 -0.0889 -0.0152
13199W        W17599  10.804   1.620  30.568 -0.0977 -0.4632 -0.0118
13200W        W17600   4.496   6.262  35.537 -0.1445 -0.4184 -0.0484
13201W        W17601   2.559   6.038  29.796 -0.4499  0.2698  0.4192
13202W        W17602   5.698   3.596  12.262  0.0676  0.2153  0.0641
13203W        W17603  15.268   0.570   6.479 -0.2102 -0.1876  0.1703
13204W        W17604  16.588   1.081  12.781 -0.1785  0.0264  0.0109
13205W        W17605  19.072   4.405  24.983 -0.2258 -0.0582 -0.1573
13206W        W17606  19.143   3.301   3.572 -0.4776  0.0325  0.0446
13207W        W17607   9.703   2.656  30.254 -0.1478 -0.2537  0.3023
13208W        W17608  23.053   1.895   0.952 -0.1827 -0.1256  0.0136
13209W        W17609   5.056   2.399   5.176  0.1280  0.0075 -0.0281
13210W        W17610  16.395   5.908  29.051  0.0224  0.1303  0.0944
13211W        W17611  19.127   0.164  34.619  0.1882  0.0364  0.2999
13212W        W17612  24.948   6.432   8.167  0.0673  0.0347  0.1198
13213W        W17613   1.446   2.305   6.036 -0.1394 -0.0935  0.4306
13214W        W17614  24.571   1.356  29.103 -0.0562 -0.3476 -0.2485
13215W        W17615  15.273   3.981   2.999  0.0023 -0.0007 -0.2074
13216W        W17616   8.765   0.568  29.747 -0.1359  0.4413 -0.1486
13217W        W17617  17.746   2.441  22.770  0.1640  0.1859  0.1727
13218W        W17618  12.346   1.429  25.572 -0.0543  0.0399 -0.0833
13219W        W17619  21.245   4.042  26.826 -0.1114  0.0457  0.0059
13220W        W17620  19.254   4.708  12.462  0.1124  0.0933 -0.3560
13221W        W17621  21.088   6.227  27.298  0.0752 -0.0814 -0.0465
13222W        W17622  11.686   3.218   9.065  0.1441 -0.2214 -0.1666
13223W        W17623   0.399   4.764   9.991  0.2847  0.0017 -0.1317
13224W        W17624   6.879   0.666   5.375 -0.1905 -0.1005 -0.1295
13225W        W17625  25.322   4.253   1.416  0.0796  0.3968  0.2353
13226W        W17626   1.899   4.339  22.270  0.2214  0.0845 -0.0963
13227W        W17627  13.142   4.133  22.589 -0.1870 -0.1860 -0.1377
13228W        W17628   3.286   1.296  10.164 -0.0550  0.1169  0.0896
13229W        W17629  18.822   6.497  34.954 -0.1300 -0.1005 -0.0198
13230W        W17630  11.623   1.593  32.035 -0.3377  0.0400  0.3394
13231W        W17631   4.822   5.945  15.060  0.2027 -0.1612 -0.1653
13232W        W17632  12.722   1.070   2.780  0.0570 -0.0362  0.2145
13233W        W17633  19.433   5.584  22.042  0.0999  0.0956 -0.1987
13234W        W17634  10.949   2.879  21.233  0.4171  0.2796 -0.0783
13235W        W17635  11.056   0.118   7.857  0.3544  0.0072  0.1066
13236W        W17636  11.017   1.770  25.289  0.0861 -0.0648  0.2941
13237W        W17637   2.392   5.176   4.797 -0.0847  0.1354  0.1431
13238W        W17638   0.854   1.103  23.173 -0.1305  0.2057  0.2070
13239W        W17639   0.417   1.569  13.702  0.0253  0.1402  0.0046
13240W        W17640  17.666   5.051   6.795  0.1534 -0.4273 -0.0741
13241W        W17641  24.792   1.038  33.146 -0.2012 -0.0500  0.1495
13242W        W17642  20.299   0.169  22.194  0.0400  0.0220  0.1082
13243W        W17643   6.363   6.404  35.960  0.0955 -0.1737  0.0731
13244W        W17644  21.389   6.334   8.229 -0.1271  0.2135 -0.0570
13245W        W17645   8.495   0.857   3.664 -0.1819  0.0321  0.0612
13246W        W17646  21.476   2.933   5.015  0.0592 -0.3432 -0.1161
13247W        W17647  11.040   0.785  28.270  0.1111  0.0805  0.0662
13248W        W17648   2.120   1.889  22.225 -0.0324  0.0586  0.0243
13249W        W17649  20.075   6.064  20.492 -0.0182  0.1686  0.0794
13250W        W17650   6.684   6.229  22.141  0.0342  0.1388 -0.1256
13251W        W17651  18.469   5.060  33.143 -0.0848 -0.0522  0.0452
13252W        W17652  11.526   3.520  11.256 -0.0074  0.2925 -0.1515
13253W        W17653   6.185   6.526   8.778 -0.4192  0.5635 -0.1377
13254W        W17654  11.426   5.091  11.247 -0.3968  0.2252 -0.2075
13255W        W17655   1.132   3.217  34.671  0.0760 -0.0560 -0.1228
13256W        W17656  19.493   2.655  31.720  0.0416  0.1253 -0.0007
13257W        W17657  22.835   4.855  35.269 -0.0858  0.0596 -0.1606
13258W        W17658   4.798   0.171  10.311 -0.0645 -0.0499 -0.1389
13259W        W17659   3.864   2.460  28.467 -0.0766  0.0545  0.1625
13260W        W17660  22.980   3.353  32.566  0.3024 -0.0750 -0.0328
13261W        W17661  23.031   5.276   2.194  0.2730  0.1117 -0.2100
13262W        W17662   0.668   5.081  23.024  0.1418 -0.2308  0.1465
13263W        W17663   6.737   3.303  11.978 -0.1205  0.1614 -0.2049
13264W        W17664   1.883   2.018  31.884 -0.0217  0.0296 -0.0022
13265W        W17665   2.100   4.921  24.585 -0.1911 -0.1268 -0.0171
13266W        W17666   4.105   6.518   3.085 -0.0212 -0.1986  0.3654
13267W        W17667   4.442   4.106   4.964  0.0853 -0.0774 -0.0304
13268W        W17668   8.677   5.181   9.200  0.1988  0.0057  0.4087
13269W        W17669  21.587   5.172  10.939 -0.0888  0.5578  0.1656
13270W        W17670  12.877   1.365   6.722  0.1115 -0.1448  0.1099
13271W        W17671  13.143   0.525  22.381 -0.0665 -0.1012  0.0081
13272W        W17672  21.993   1.786   6.275 -0.1616 -0.2367  0.0120
13273W        W17673  10.796   0.214   9.955  0.0981 -0.1768 -0.1599
13274W        W17674   0.307   4.413   1.856  0.1917 -0.0025 -0.2350
13275W        W17675  23.769   1.225  23.539  0.0344 -0.0979 -0.0682
13276W        W17676  18.056   4.458   0.658 -0.2837  0.0368  0.0778
13277W        W17677  15.910   6.584  33.833 -0.0383  0.0171 -0.4565
13278W        W17678   2.286   0.475  20.459  0.0129  0.0514 -0.2520
13279W        W17679   9.465   3.936  21.175  0.0111  0.0733  0.1857
13280W        W17680   1.090   0.013  35.423  0.0410  0.1282  0.2718
13281W        W17681  17.480   3.804   8.218  0.1480 -0.3038 -0.2332
13282W        W17682   7.916   6.082  21.788  0.0983  0.0753 -0.2620
13283W        W17683  18.045   2.677  13.246  0.0885  0.1709 -0.0392
13284W        W17684   9.654   5.567  30.022  0.0112 -0.2452  0.3078
13285W        W17685  19.275   4.896   6.872  0.4308 -0.0628  0.1431
13286W        W17686  18.622   4.676   5.337 -0.1332 -0.3282  0.1976
13287W        W17687  17.185   5.093   5.781  0.0586 -0.0186  0.0778
13288W        W17688  19.825   0.609  27.186 -0.0262 -0.2506 -0.2011
13289W        W17689   1.570   1.060  27.281 -0.1020  0.1587  0.1859
13290W        W17690   0.807   4.076  31.667  0.0934  0.0960  0.0952
13291W        W17691   6.583   3.890   1.831 -0.0154 -0.0878 -0.0868
13292W        W17692  22.171   4.901  12.940  0.0987  0.3894  0.4358
13293W        W17693  16.026   4.139  34.412 -0.1900  0.0555 -0.0300
13294W        W17694  17.891   1.734   1.484 -0.1522  0.0049 -0.0776
13295W        W17695  13.905   2.309   3.594  0.1112 -0.0013 -0.1074
13296W        W17696   0.858   0.611  11.404  0.0323  0.1987  0.0117
13297W        W17697  14.066   0.360   1.567  0.2417 -0.1567  0.2254
13298W        W17698  23.146   1.237  22.389 -0.2637 -0.1151  0.2246
13299W        W17699   4.697   0.379  26.655  0.0008 -0.1678 -0.3052
13300W        W17700  18.832   2.018  27.392  0.0043 -0.2136 -0.2233
13301W        W17701  18.567   3.268   4.997  0.1311 -0.0821 -0.1040
13302W        W17702   4.803   1.421  12.344 -0.1768  0.3534  0.2652
13303W        W17703   4.601   5.679  20.670  0.1587  0.2884  0.1644
13304W        W17704  17.950   2.371   5.990 -0.1949  0.0216  0.0491
13305W        W17705  10.490   3.301   4.460  0.1762 -0.0350 -0.0290
13306W        W17706  23.980   2.811  20.685 -0.1483 -0.3455 -0.0269
13307W        W17707  23.043   5.899  29.104  0.1721 -0.2519  0.1565
13308W        W17708   6.627   5.930   8.366 -0.1788 -0.2207 -0.2240
13309W        W17709  21.593   3.078  31.447  0.0351  0.1832  0.2080
13310W        W17710  10.015   3.991   1.491  0.1194 -0.2057 -0.1313
13311W        W17711   6.466   2.393  12.239  0.2939 -0.1532  0.0535
13312W        W17712   5.330   5.523   9.452  0.1041  0.2417  0.0595
13313W        W17713   2.604   4.836  12.457  0.0128 -0.2176 -0.0821
13314W        W17714  25.569   4.115   5.987 -0.0201  0.2837  0.1873
13315W        W17715   2.019   5.236  35.164  0.6279 -0.0622  0.0794
13316W        W17716   7.356   1.114  28.643  0.1218  0.1567 -0.2554
13317W        W17717  10.997   3.511  22.463 -0.3883 -0.0591 -0.2138
13318W        W17718  26.370   1.839  34.465  0.1356 -0.1683 -0.0044
13319W        W17719  17.310   5.382  33.810 -0.0138 -0.2082  0.1842
13320W        W17720  11.715   1.296  29.766 -0.2991 -0.0801 -0.1784
13321W        W17721  17.519   0.423   4.480  0.1640 -0.1190  0.1870
13322W        W17722  20.717   5.142  27.947 -0.3255 -0.1643 -0.0659
13323W        W17723  23.426   0.608  35.326  0.1068 -0.1007 -0.1326
13324W        W17724   4.531   4.373  11.569 -0.0912  0.1008 -0.2229
13325W        W17725  11.593   2.217   0.626  0.0192  0.1337 -0.1433
13326W        W17726   1.211   2.194  22.339  0.0582  0.0444 -0.0834
13327W        W17727   3.965   0.291  32.421  0.0927 -0.3403  0.0698
13328W        W17728   0.966   3.715   6.219  0.0150  0.0635  0.4291
13329W        W17729  13.437   5.387  10.805  0.2872  0.2474 -0.1257
13330W        W17730   2.667   1.467  11.127 -0.0690 -0.0248 -0.1858
13331W        W17731   1.803   0.985   6.568 -0.2085  0.1190 -0.0804
13332W        W17732   3.449   4.551  28.171  0.0216 -0.0851 -0.1154
13333W        W17733  26.385   0.621  24.586 -0.3578 -0.1019  0.2327
13334W        W17734   6.781   4.380   1.368 -0.1269  0.2453  0.2623
13335W        W17735   6.859   2.217   7.838 -0.1008 -0.0567 -0.3457
13336W        W17736   2.592   3.862  22.012 -0.2022  0.0609 -0.1277
13337W        W17737   8.265   0.552  33.556 -0.1009  0.0399 -0.2996
13338W        W17738  23.200   0.604   4.525 -0.0301  0.1539  0.0159
13339W        W17739  15.589   1.464  31.511  0.2936 -0.2196  0.2018
13340W        W17740  24.075   5.513   1.964 -0.1893 -0.0810 -0.2340
13341W        W17741  14.735   0.241  34.893  0.0249  0.1305 -0.0658
13342W        W17742  10.868   1.411  12.331  0.4609  0.0483  0.0548
13343W        W17743  21.851   1.747  23.843  0.0285 -0.0243 -0.1688
13344W        W17744  14.967   4.285   5.163 -0.0019  0.1527  0.1058
13345W        W17745   8.368   6.298  14.754 -0.1008 -0.0015  0.2644
13346W        W17746   6.523   4.553  27.078 -0.1872 -0.0545 -0.0938
13347W        W17747   2.055   0.275   1.197 -0.0906 -0.0735 -0.0095
13348W        W17748   8.092   4.986  14.618  0.1770  0.1112 -0.2352
13349W        W17749  18.333   4.376   7.739 -0.2426  0.1619 -0.2573
13350W        W17750  23.508   5.806   3.088  0.1714  0.2770 -0.0363
13351W        W17751  16.916   1.591  30.623 -0.1391  0.0926  0.0234
13352W        W17752   5.000   4.462  21.817 -0.0584  0.0695 -0.1495
13353W        W17753   6.086   3.861  31.764  0.0521 -0.0274 -0.1485
13354W        W17754  25.614   2.869  32.856 -0.0226  0.2270 -0.3181
13355W        W17755  26.300   0.362  31.904  0.1083  0.1201  0.0028
13356W        W17756   8.891   5.425  28.256 -0.0928 -0.1490  0.1556
13357W        W17757  12.874   2.482  11.946  0.3678 -0.2000 -0.0268
13358W        W17758  19.953   3.924  29.548 -0.1135 -0.0827  0.1890
13359W        W17759   0.142   0.216   1.407 -0.0999  0.1628  0.1469
13360W        W17760  16.353   3.181   0.140  0.0155 -0.0827 -0.3265
13361W        W17761  25.809   2.291   1.236  0.2549 -0.0047  0.0217
13362W        W17762  12.771   6.480  23.097  0.1287  0.2155 -0.2525
13363W        W17763   5.930   0.196  33.503 -0.0700 -0.0923 -0.0923
13364W        W17764  25.192   4.205  30.065  0.3241 -0.2184  0.0415
13365W        W17765  17.157   5.074  34.254  0.1017  0.0881  0.2052
13366W        W17766  18.409   5.007   9.945  0.0164 -0.2073  0.0446
13367W        W17767   5.621   5.054   3.512  0.0105  0.0701  0.3035
13368W        W17768  24.614   1.234  14.993  0.1459  0.0425  0.0486
13369W        W17769  17.104   2.799  35.749  0.1617  0.2854  0.1155
13370W        W17770  22.857   3.305  12.437  0.0599 -0.0353  0.0255
13371W        W17771  12.045   4.648  12.083 -0.0245  0.1280 -0.0509
13372W        W17772  23.399   6.354  29.790 -0.1392  0.3539 -0.0984
13373W        W17773  12.101   6.171   4.869  0.0265  0.2351 -0.1849
13374W        W17774   2.272   5.660  14.123  0.1317  0.1189 -0.0162
13375W        W17775  16.896   3.826  34.073  0.1924 -0.0404 -0.0978
13376W        W17776  20.400   6.548  29.119 -0.1063 -0.0748 -0.0113
13377W        W17777   0.245   1.084   1.393 -0.2798 -0.0907  0.0287
13378W        W17778   9.991   5.165  11.950 -0.1385 -0.0449 -0.0596
13379W        W17779   0.034   3.551   8.169  0.2024  0.1242  0.0594
13380W        W17780   6.866   5.884  10.781  0.0831 -0.0088  0.1687
13381W        W17781   4.671   3.868   9.772  0.2852 -0.1587  0.1988
13382W        W17782  12.178   4.627  30.014 -0.2260  0.0005  0.0126
13383W        W17783  10.040   4.711  22.982  0.2249  0.2013  0.0923
13384W        W17784   0.077   2.012  31.810 -0.1074  0.1986 -0.0625
13385W        W17785  15.922   0.652  26.182  0.4660  0.1655 -0.4132
13386W        W17786   6.610   5.222  34.891 -0.0882 -0.0936  0.0497
13387W        W17787  15.477   5.575  25.822 -0.2209 -0.1992 -0.1902
13388W        W17788   5.939   4.672   8.959 -0.0547  0.1113  0.0484
13389W        W17789  15.664   1.669  33.083  0.1714 -0.3701  0.0586
13390W        W17790  20.085   1.178   7.272 -0.2540 -0.0274 -0.2529
13391W        W17791  22.568   4.436  34.185 -0.0094  0.0766  0.1456
13392W        W17792  12.427   3.659  21.924 -0.1259 -0.4169  0.3215
13393W        W17793  10.171   1.812   5.022  0.1323 -0.1552 -0.3381
13394W        W17794  21.074   1.245  11.499  0.0893  0.1073  0.0043
13395W        W17795   5.856   4.563   1.863  0.0318  0.1610  0.0445
13396W        W17796   7.520   2.312  24.506 -0.1245 -0.1873 -0.1202
13397W        W17797  14.712   2.418  26.242 -0.3669  0.2961  0.1789
13398W        W17798   6.835   2.269   4.939  0.0540  0.0657  0.1285
13399W        W17799  22.911   4.615  13.632  0.1307 -0.0234 -0.0826
13400W        W17800  18.465   4.344  22.912 -0.0016 -0.1445  0.0292
13401W        W17801   8.814   0.108  27.550 -0.1814  0.2691 -0.2309
13402W        W17802  25.750   4.293  27.415 -0.0068 -0.1336  0.0986
13403W        W17803  16.014   1.326   3.365  0.0776  0.1796 -0.2263
13404W        W17804   4.157   1.997  26.882  0.1580 -0.1358  0.2112
13405W        W17805   4.109   3.300  21.506  0.0388 -0.0963 -0.1457
13406W        W17806  13.024   6.489  25.458 -0.0251  0.1282 -0.0658
13407W        W17807   3.198   4.195   3.990 -0.1220  0.0629 -0.1170
13408W        W17808  21.652   6.466  30.054  0.1164 -0.1721  0.0046
13409W        W17809   2.603   4.402   7.360  0.0827 -0.0623  0.1568
13410W        W17810  13.316   4.182  15.462  0.1351 -0.0812  0.2340
13411W        W17811  13.827   5.256  11.644 -0.0900  0.0273  0.0539
13412W        W17812  14.176   6.400   8.835 -0.1103  0.0846  0.1415
13413W        W17813  21.182   4.330  20.723 -0.0727  0.0847  0.1895
13414W        W17814  15.720   1.823  27.088  0.1305  0.3467  0.0762
13415W        W17815   4.500   4.168  23.590  0.0539  0.1111  0.3734
13416W        W17816   5.108   3.670  34.781 -0.1885 -0.1396 -0.1652
13417W        W17817   9.860   1.514   1.662 -0.0485 -0.1486 -0.0606
13418W        W17818  22.614   2.709  11.847  0.1209  0.1510  0.0527
13419W        W17819  23.780   6.313   4.797  0.4517  0.0967  0.0739
13420W        W17820  24.642   5.094  13.506  0.1128  0.5365 -0.0940
13421W        W17821  14.892   0.948  22.812 -0.1971  0.0365  0.2512
13422W        W17822  24.109   6.106   9.762 -0.0656 -0.3113  0.0149
13423W        W17823   1.743   0.296  22.418 -0.0136 -0.3254  0.2452
13424W        W17824   7.265   4.227   7.002 -0.0885  0.1412 -0.1098
13425W        W17825  16.339   1.346  33.216  0.3014 -0.1821  0.0467
13426W        W17826   8.250   0.336  15.509  0.1568 -0.1134 -0.1762
13427W        W17827   3.163   3.756  28.606 -0.2167 -0.0248  0.0061
13428W        W17828   9.388   1.188  22.970  0.0958 -0.0012  0.1327
13429W        W17829  25.679   0.659   1.101 -0.0967 -0.0865  0.0449
13430W        W17830  22.119   5.367  10.908  0.0902  0.1441  0.0472
13431W        W17831  11.442   0.869  10.231 -0.0705 -0.3344  0.0862
13432W        W17832  26.273   2.594   6.620  0.2818 -0.0394 -0.0482
13433W        W17833  23.340   2.848  24.513 -0.2041 -0.0217 -0.0827
13434W        W17834   2.926   5.869  32.816 -0.0572  0.0783  0.0070
13435W        W17835   1.248   0.272  24.915 -0.3008 -0.1301  0.0514
13436W        W17836  10.338   2.789   6.417 -0.0924  0.1867 -0.0947
13437W        W17837   7.414   4.957  12.144  0.0489  0.1287  0.2639
13438W        W17838  25.744   3.099  25.626  0.1909 -0.2743  0.0046
13439W        W17839  18.741   2.587   9.560  0.0642  0.2160 -0.0667
13440W        W17840  19.979   4.435  33.008 -0.0978  0.1086  0.2455
13441W        W17841   9.003   5.416  35.564  0.0828  0.0178 -0.0234
13442W        W17842  18.412   3.440   5.557  0.2922  0.3575  0.2210
13443W        W17843   8.485   6.118   2.735 -0.0910  0.3273  0.1981
13444W        W17844  16.998   1.765   1.389  0.0572  0.0817 -0.0235
13445W        W17845  22.589   2.067  35.433  0.1030  0.0778 -0.1054
13446W        W17846  24.172   4.540   3.734  0.2575 -0.2389 -0.2697
13447W        W17847  13.493   1.262   2.156  0.4124  0.2215 -0.2806
13448W        W17848  15.569   0.921   6.328  0.1147  0.1964 -0.2835
13449W        W17849  10.898   2.250   0.495 -0.1872  0.0192 -0.0942
13450W        W17850  10.759   1.344  14.271  0.1889 -0.1112 -0.0006
13451W        W17851   5.553   1.092  13.444 -0.0457  0.0616 -0.0594
13452W        W17852   7.524   5.854  22.086 -0.0682  0.0711  0.0578
13453W        W17853   6.289   2.121  27.626 -0.2695  0.3167 -0.0500
13454W        W17854   0.133   3.025  26.385  0.1948 -0.2596 -0.0011
13455W        W17855   9.956   5.574   9.531  0.0400 -0.1871 -0.1952
13456W        W17856  14.948   0.939  32.843 -0.0003  0.2421 -0.0831
13457W        W17857   7.387   4.973  12.788 -0.0492  0.2572  0.3209
13458W        W17858   4.982   0.301   5.632 -0.2261 -0.1089 -0.0239
13459W        W17859   0.361   1.052   9.955  0.2784 -0.0003 -0.0091
13460W        W17860   3.365   5.028   1.094 -0.0887 -0.1492 -0.1449
13461W        W17861  14.864   3.062   2.784  0.0274 -0.1905  0.0741
13462W        W17862  21.845   4.811  10.359  0.1788 -0.1146 -0.2597
13463W        W17863  23.605   3.392   6.729 -0.1714  0.1836  0.0314
13464W        W17864   6.916   6.440  15.124 -0.2848  0.1719  0.1670
13465W        W17865  11.860   2.426  21.531  0.5070  0.0297 -0.0676
13466W        W17866   9.941   5.806   0.888 -0.0297 -0.0040  0.1751
13467W        W17867   4.476   3.500  27.890 -0.0708  0.2664  0.1246
13468W        W17868   8.099   3.367  35.516  0.4104 -0.2697 -0.1124
13469W        W17869  20.230   5.806   2.151 -0.0304 -0.0798 -0.3073
13470W        W17870   1.434   4.822  11.746  0.3449  0.2135 -0.3328
13471W        W17871   1.967   4.497   3.453  0.0018 -0.0231  0.0648
13472W        W17872  16.135   4.969  32.660  0.0583  0.2343  0.0204
13473W        W17873   7.258   4.475  34.324 -0.0391 -0.1925 -0.0244
13474W        W17874   4.124   3.353   0.440  0.4515  0.0618 -0.2267
13475W        W17875   0.974   2.375  28.374 -0.1535  0.1172 -0.1807
13476W        W17876   6.587   3.995   7.565  0.0478  0.1013 -0.0095
13477W        W17877  20.009   4.018   1.805  0.1859  0.2199  0.3138
13478W        W17878  22.446   0.551  29.245 -0.1861 -0.0274  0.3347
13479W        W17879  24.574   2.140  24.750  0.2323  0.1322 -0.0736
13480W        W17880  19.524   3.062  21.585 -0.0517 -0.3832  0.0178
13481W        W17881  22.983   2.399   0.736  0.0693  0.0236  0.1397
13482W        W17882  17.747   4.237  14.543 -0.1046 -0.0195  0.3477
13483W        W17883   5.848   2.413  13.265  0.2192  0.0429 -0.1414
13484W        W17884  13.883   5.311   2.908  0.1931 -0.0603 -0.0777
13485W        W17885  25.642   3.576   2.280  0.0195 -0.2618 -0.0703
13486W        W17886  17.132   1.640  15.739  0.4229  0.2503  0.1941
13487W        W17887  14.949   0.139   1.512  0.2216 -0.0956  0.2407
13488W        W17888  21.689   3.142  24.320 -0.0392  0.2407  0.1080
13489W        W17889   8.924   4.565  25.591 -0.1541 -0.1814 -0.0585
13490W        W17890  17.147   5.824  15.492  0.0503 -0.1024  0.0994
13491W        W17891  20.994   1.873   6.349 -0.3325  0.0540  0.2431
13492W        W17892   0.231   2.306  31.391  0.0140 -0.0975  0.1243
13493W        W17893  11.615   5.247  21.621  0.2879 -0.0331  0.1922
13494W        W17894  23.270   1.668  12.549 -0.2817 -0.1934  0.0254
13495W        W17895  23.260   1.746  25.241 -0.2870  0.0786 -0.1227
13496W        W17896  22.047   4.676  26.663  0.1530 -0.0481 -0.1249
13497W        W17897  21.648   5.005   8.325  0.0500  0.2940  0.1807
13498W        W17898   6.750   2.357  21.630 -0.2283 -0.1172  0.0907
13499W        W17899   8.767   3.944  12.626  0.0063  0.1773 -0.0763
13500W        W17900   6.598   5.900  25.671  0.0788 -0.1759 -0.1082
13501W        W17901   6.818   0.136  34.666  0.0292 -0.0968 -0.3263
13502W        W17902  21.210   5.409  14.468  0.0404 -0.0689 -0.2336
13503W        W17903  23.187   0.508  34.853  0.0116 -0.0764  0.0865
13504W        W17904  22.793   4.872   2.553  0.0206 -0.1966 -0.0931
13505W        W17905   1.788   3.575   0.213 -0.1292  0.0778 -0.0273
13506W        W17906   8.551   2.352  13.249 -0.0990 -0.1720  0.2505
13507W        W17907  24.342   2.655  23.925 -0.0324 -0.2036  0.0161
13508W        W17908  22.712   5.331  28.195 -0.1420 -0.2025  0.2793
13509W        W17909  19.902   5.816   1.332 -0.0731 -0.4895 -0.1978
13510W        W17910  22.144   2.613  28.107 -0.2093 -0.0069 -0.2470
13511W        W17911  12.240   1.493  11.795  0.0767 -0.0689 -0.1262
13512W        W17912   9.629   1.220   2.463  0.5096 -0.1880  0.1574
13513W        W17913  18.364   0.584   4.316  0.1879 -0.1603  0.0771
13514W        W17914  19.405   2.973  34.437  0.2260 -0.1771  0.0298
13515W        W17915   1.634   2.511  27.010  0.0658 -0.1873 -0.0808
13516W        W17916  13.673   2.686   2.008  0.2252  0.1523  0.0283
13517W        W17917  19.257   4.250  33.673 -0.1832  0.0513  0.0061
13518W        W17918  15.055   1.325   3.600 -0.3849  0.0196 -0.5743
13519W        W17919   1.965   2.898  11.877 -0.0676  0.0513  0.0962
13520W        W17920  25.142   0.986  27.187  0.1063 -0.1517 -0.4161
13521W        W17921   0.173   2.571  25.167 -0.0368  0.2415 -0.0133
13522W        W17922   1.284   0.861   7.267 -0.3390 -0.0818  0.0273
13523W        W17923  17.317   1.976  21.253  0.1322 -0.1334 -0.0877
13524W        W17924  25.167   5.144   1.342  0.2845  0.0815  0.1604
13525W        W17925  18.863   2.116   9.836 -0.0406  0.0400 -0.0695
13526W        W17926  11.655   4.220   7.943 -0.1212 -0.0441  0.0090
13527W        W17927  19.025   1.012   5.012  0.1563 -0.1227 -0.2495
13528W        W17928  20.105   4.886  27.376 -0.0074 -0.2675 -0.0357
13529W        W17929  21.443   6.250   6.606  0.0622 -0.0908 -0.2926
13530W        W17930  10.905   4.583  28.696 -0.0254 -0.0250  0.2857
13531W        W17931   7.004   6.171  31.053  0.1551 -0.5319  0.1887
13532W        W17932  20.944   2.821  13.305  0.2135  0.1281  0.2311
13533W        W17933  19.459   1.902  25.625 -0.0466 -0.1804 -0.2312
13534W        W17934  11.871   6.409  14.838 -0.0468 -0.0683  0.0767
13535W        W17935   7.958   4.089  11.113  0.0192  0.1261  0.0232
13536W        W17936  16.359   4.792   2.221  0.1866 -0.1117  0.2652
13537W        W17937  22.110   3.122  11.897  0.2356 -0.1926  0.0504
13538W        W17938  24.931   2.932  25.129 -0.0346 -0.1868  0.0447
13539W        W17939  18.572   6.376  10.383  0.0522 -0.0114 -0.0855
13540W        W17940  24.660   5.806   5.080 -0.1797 -0.2479 -0.1335
13541W        W17941  20.626   2.142   9.435 -0.1355  0.1992 -0.1424
13542W        W17942  14.740   4.293  13.587 -0.3274  0.1877  0.2893
13543W        W17943   9.043   1.836  27.019 -0.2537  0.0951  0.2712
13544W        W17944  25.646   1.418  28.499 -0.2609  0.2127  0.2276
13545W        W17945  19.882   0.439  22.005  0.0170 -0.0358  0.1936
13546W        W17946  21.513   2.099  33.949  0.2253  0.1359  0.6529
13547W        W17947   8.710   4.055  24.123  0.0832  0.0681 -0.0829
13548W        W17948  14.857   5.055  33.002 -0.0290 -0.0534  0.0794
13549W        W17949  10.604   4.986  22.076  0.0941  0.1968 -0.0153
13550W        W17950  22.423   2.559   0.538 -0.2149  0.2593  0.1029
13551W        W17951  14.403   5.705  15.963 -0.1494 -0.0053  0.1893
13552W        W17952  15.317   2.402  34.495  0.0116 -0.0542  0.3440
13553W        W17953  23.879   3.788  26.386  0.0958  0.2852 -0.0679
13554W        W17954   7.821   3.889   4.187 -0.3956 -0.0960 -0.1181
13555W        W17955   4.457   2.805  34.894 -0.0751  0.1762 -0.0783
13556W        W17956  12.658   2.839  11.432  0.0089  0.0052  0.1474
13557W        W17957  13.886   3.127   6.648 -0.4374  0.0994 -0.2646
13558W        W17958   5.037   3.612  11.417  0.1801 -0.1305  0.1506
13559W        W17959   8.982   0.976  20.816  0.3230 -0.0124 -0.0797
13560W        W17960  22.764   6.175  10.615  0.1694 -0.2670  0.3431
13561W        W17961  18.273   3.278  15.685  0.3822  0.2083 -0.3214
13562W        W17962  16.792   4.180   1.395  0.0787 -0.0892  0.1221
13563W        W17963  25.130   3.165   2.778  0.1474  0.1401 -0.4905
13564W        W17964   5.439   0.900  25.136 -0.0435  0.3336 -0.3478
13565W        W17965  23.820   2.655  30.088  0.0626 -0.0501 -0.2464
13566W        W17966   0.895   2.880  15.719  0.2235  0.0549  0.0980
13567W        W17967  10.768   2.881  22.282 -0.1776  0.1569  0.0387
13568W        W17968  16.832   3.970   9.491  0.1172 -0.1624 -0.0980
13569W        W17969  15.993   6.156  25.348  0.3401 -0.0959 -0.2135
13570W        W17970   8.215   6.326  34.070 -0.1005  0.1557  0.2080
13571W        W17971   0.230   1.036  23.013  0.3280  0.1733  0.1781
13572W        W17972   5.704   1.659   4.535  0.0252  0.0468 -0.1576
13573W        W17973   7.980   5.264  20.751 -0.1143  0.1797  0.0842
13574W        W17974  17.786   3.503  28.198  0.1458 -0.1000 -0.0473
13575W        W17975  18.981   6.379  22.769  0.0483 -0.0605  0.1200
13576W        W17976   6.161   3.355  12.190 -0.1055 -0.0252  0.2894
13577W        W17977  14.737   0.734  31.098 -0.0197  0.0310 -0.0993
13578W        W17978  10.233   0.362   4.777  0.0130 -0.2301 -0.0924
13579W        W17979  18.236   0.014   4.481 -0.0328  0.0976  0.0437
13580W        W17980  20.843   0.856  23.475 -0.0386 -0.2049 -0.0349
13581W        W17981  12.703   6.554  30.822  0.1849  0.0128  0.2510
13582W        W17982   3.439   1.064   3.207 -0.0345 -0.2453 -0.3047
13583W        W17983   2.131   5.675  23.348 -0.1150 -0.0277 -0.1406
13584W        W17984  13.433   1.810   4.482 -0.3475 -0.0788 -0.1438
13585W        W17985   7.740   4.101   6.877 -0.2068  0.0303  0.0512
13586W        W17986  19.546   0.296  26.415  0.4939  0.3749  0.1966
13587W        W17987   1.311   0.492  31.692 -0.0689  0.2424 -0.1515
13588W        W17988  16.841   2.097  29.071  0.2667  0.0117 -0.0717
13589W        W17989  13.883   5.869  26.096 -0.1781  0.0816 -0.1982
13590W        W17990  25.615   4.261  13.674  0.0965 -0.1014 -0.1726
13591W        W17991  25.286   1.036   4.037 -0.3043  0.0976 -0.1066
13592W        W17992  20.082   5.900   8.416 -0.2734 -0.2550 -0.0215
13593W        W17993  10.869   0.992   2.077  0.1799  0.0181  0.0178
13594W        W17994   2.695   6.330  32.854 -0.2301  0.0492 -0.2410
13595W        W17995  19.924   0.364  35.833 -0.1772 -0.1805 -0.1123
13596W        W17996  11.421   2.095  21.433 -0.0635  0.0906 -0.4390
13597W        W17997   4.098   0.208   1.442  0.1897  0.1525 -0.0046
13598W        W17998  23.224   1.706  28.934 -0.2100 -0.3485  0.2700
13599W        W17999   0.646   6.378   5.673 -0.1513  0.4658  0.3272
13600W        W18000  24.990   1.316  28.811  0.1735  0.1076  0.1084
13601W        W18001  24.962   0.315  35.975  0.0689  0.2249 -0.0443
13602W        W18002  19.895   4.698  24.254  0.0888 -0.1120 -0.0753
13603W        W18003   3.568   5.650  28.932 -0.1127 -0.2087 -0.2701
13604W        W18004   8.227   3.394   6.987  0.1311 -0.0764 -0.1205
13605W        W18005   7.252   0.239   5.153  0.1837 -0.3245 -0.1931
13606W        W18006   3.954   3.801  26.955  0.0317 -0.3036 -0.0095
13607W        W18007  11.349   5.633  23.040  0.1292  0.1993 -0.0121
13608W        W18008  17.245   4.041  14.149 -0.0944 -0.1176  0.0008
13609W        W18009   7.649   6.567   5.365  0.0130  0.3369 -0.1569
13610W        W18010  16.540   1.626   2.180 -0.0836 -0.1961 -0.1345
13611W        W18011   4.908   2.170   8.120 -0.1625  0.0176 -0.3282
13612W        W18012  16.287   0.792  31.636  0.2282 -0.1822  0.1371
13613W        W18013   4.171   1.907  35.024 -0.2852 -0.1512 -0.1840
13614W        W18014  13.598   2.526  23.105 -0.1011  0.1226 -0.1140
13615W        W18015  21.969   2.111  26.511  0.1341  0.0322 -0.1147
13616W        W18016  14.822   4.143  22.768  0.2096 -0.3362 -0.1126
13617W        W18017  15.558   5.061   6.401 -0.0131 -0.1418 -0.2788
13618W        W18018  16.600   5.884  21.720  0.0999  0.0326 -0.1189
13619W        W18019   1.188   5.596  27.820  0.0328  0.1240 -0.1063
13620W        W18020  25.840   5.920  22.801 -0.0804  0.2119  0.1429
13621W        W18021  12.410   4.356  10.009  0.0589 -0.1851  0.0669
13622W        W18022  18.591   3.665  30.335  0.0445  0.4094  0.0487
13623W        W18023  23.168   5.139   7.300 -0.1098  0.3226 -0.0510
13624W        W18024  24.855   4.561  31.521 -0.0114  0.0596 -0.1386
13625W        W18025  18.999   2.060   2.785  0.2270  0.1585 -0.1765
13626W        W18026   9.652   2.642   1.843 -0.0845 -0.0414 -0.4285
13627W        W18027   1.661   0.470  26.817  0.1217  0.0595 -0.1931
13628W        W18028  22.251   0.241  26.583 -0.1219  0.0064 -0.2666
13629W        W18029  20.513   2.610  13.385  0.0890 -0.2069  0.0920
13630W        W18030  18.701   1.094   3.606  0.2580 -0.1909 -0.0728
13631W        W18031  12.636   3.141  33.631  0.1656 -0.0083  0.3120
13632W        W18032   7.217   3.300  22.892  0.2996  0.0978 -0.2937
13633W        W18033  23.432   3.213   1.094 -0.1276  0.0090  0.0512
13634W        W18034  23.070   2.189  25.079  0.3054  0.1541  0.2068
13635W        W18035  19.219   2.108  24.425 -0.2464 -0.1433  0.2781
13636W        W18036   9.987   1.061  14.753  0.1745  0.3512 -0.0577
13637W        W18037   6.376   5.915  35.693  0.2446  0.0587 -0.0251
13638W        W18038  24.235   0.196  33.985 -0.1359  0.0982  0.0212
13639W        W18039   9.616   0.047  31.404  0.0467 -0.2412  0.2543
13640W        W18040  20.158   4.509  22.641 -0.1828  0.1030 -0.1256
13641W        W18041  17.523   2.678   6.160 -0.0069  0.1146  0.0459
13642W        W18042   1.345   0.468  11.618  0.2822  0.1475  0.1989
13643W        W18043   2.605   4.758  23.101 -0.2342  0.1732 -0.1643
13644W        W18044   0.573   2.865  24.930 -0.0564 -0.2718 -0.0396
13645W        W18045  19.706   5.698  28.422  0.1755 -0.1714  0.3539
13646W        W18046   2.197   0.815  35.371 -0.3194 -0.0894  0.0682
13647W        W18047   3.507   6.123  12.468 -0.1346  0.3995 -0.0686
13648W        W18048  15.352   1.592  12.364  0.2185  0.1033 -0.0535
13649W        W18049   8.719   5.091  30.401 -0.2663  0.0469  0.1549
13650W        W18050  16.355   2.772  14.709 -0.0062  0.2171  0.0908
13651W        W18051  25.191   1.502  10.791 -0.3426  0.0579  0.0913
13652W        W18052  10.269   2.604   3.416  0.1934 -0.1816 -0.0115
13653W        W18053  12.411   5.957  26.724 -0.5210 -0.0685 -0.1856
13654W        W18054  13.144   3.619  29.912 -0.0353  0.0329  0.1687
13655W        W18055   8.116   0.044  30.602 -0.0281 -0.0548  0.2895
13656W        W18056   3.414   2.981   6.178 -0.3700 -0.0979 -0.2005
13657W        W18057  11.839   0.821  28.284 -0.1185  0.0100 -0.1469
13658W        W18058  11.031   3.691   9.665 -0.3263  0.0219  0.1990
13659W        W18059  12.190   1.974  21.363  0.0803 -0.2219  0.0356
13660W        W18060   8.421   5.039  31.933  0.2110  0.1183 -0.1629
13661W        W18061  25.884   5.750  30.814 -0.1565 -0.1531  0.0482
13662W        W18062   8.834   1.077  30.591 -0.2267  0.2237  0.2705
13663W        W18063   5.545   0.164   3.278 -0.2063 -0.1504 -0.3208
13664W        W18064   3.947   0.484   6.207 -0.1033 -0.2782  0.2982
13665W        W18065  10.391   1.405  32.567  0.0156 -0.0701  0.1266
13666W        W18066  25.721   3.371  24.672 -0.0292  0.0501  0.1510
13667W        W18067   6.680   4.472  21.119  0.3296  0.0414 -0.0714
13668W        W18068   6.775   1.084  27.338  0.0957  0.0241  0.2671
13669W        W18069  16.084   0.262  22.428  0.3233  0.1558 -0.2724
13670W        W18070  16.089   0.368  30.593 -0.2087  0.0399 -0.1395
13671W        W18071  18.327   3.706   8.695 -0.0265  0.1166 -0.0633
13672W        W18072  18.618   0.139  31.633 -0.1022 -0.1959 -0.2818
13673W        W18073   6.715   5.018  32.860  0.1502  0.3179 -0.1319
13674W        W18074  16.402   0.780  21.154 -0.2557 -0.1098  0.5154
13675W        W18075  16.456   0.708   6.005 -0.0603  0.0977  0.2357
13676W        W18076   5.851   2.492   0.707  0.0766 -0.0502  0.0071
13677W        W18077  12.514   5.760  28.635 -0.1450  0.0601 -0.0889
13678W        W18078  24.533   4.986   3.874 -0.1264 -0.0651  0.3186
13679W        W18079  14.098   0.456   4.362 -0.0667  0.0852  0.1066
13680W        W18080  17.629   2.286   9.001 -0.1395 -0.1488  0.0122
13681W        W18081  14.876   3.149   9.131 -0.0992 -0.2787 -0.2699
13682W        W18082  22.754   2.419  22.354  0.1237 -0.2398 -0.0697
13683W        W18083   5.638   6.408   9.998 -0.0259  0.2848 -0.5067
13684W        W18084   3.689   1.441  34.248  0.2094 -0.2135  0.1065
13685W        W18085  12.295   1.375  26.115 -0.1749  0.3629  0.1086
13686W        W18086   0.364   5.164  28.784 -0.0751  0.1423  0.0242
13687W        W18087  22.438   5.847  21.248  0.2193  0.0770 -0.0338
13688W        W18088   9.311   3.090  33.399  0.0755  0.1790  0.1365
13689W        W18089  24.846   0.930  34.256 -0.4146 -0.0089  0.1371
13690W        W18090   5.380   2.601  13.856 -0.1417  0.1340  0.0386
13691W        W18091  19.898   4.269  14.031  0.0460 -0.1554  0.1936
13692W        W18092  14.395   2.877  27.102  0.3913 -0.0915  0.0963
13693W        W18093   8.747   6.398  21.561 -0.2082 -0.1490  0.3362
13694W        W18094  11.230   3.573  24.458  0.0170  0.1272  0.2758
13695W        W18095  23.152   5.529  26.462  0.0013 -0.0314  0.0544
13696W        W18096   2.431   6.330  32.381  0.0391 -0.2160 -0.2306
13697W        W18097  11.130   3.703  23.866 -0.0192  0.0414  0.0405
13698W        W18098   4.600   1.472   1.459  0.0785 -0.1250  0.1082
13699W        W18099   2.233   4.580  26.491 -0.2834 -0.1585 -0.2751
13700W        W18100  24.116   6.354  12.848 -0.0210 -0.0872 -0.1576
13701W        W18101   2.757   1.349   4.611 -0.2826  0.1439 -0.1072
13702W        W18102  26.327   2.732  28.563 -0.3028  0.1107 -0.1954
13703W        W18103  20.604   5.807   6.643  0.1296  0.0756  0.1639
13704W        W18104   5.864   4.390  25.188 -0.2475  0.2034 -0.0073
13705W        W18105  23.028   6.423   4.987 -0.0349 -0.0285 -0.0360
13706W        W18106  10.908   6.574   5.396  0.1944  0.1879 -0.0046
13707W        W18107   2.214   3.054  31.581 -0.0054 -0.1228  0.3697
13708W        W18108  14.024   0.573  12.275  0.1251  0.3680  0.5191
13709W        W18109  25.618   0.408   9.328  0.0215 -0.1574  0.1588
13710W        W18110  18.034   1.801  29.303  0.2743 -0.1993 -0.1512
13711W        W18111   6.869   4.541  20.645  0.3748  0.3278  0.0464
13712W        W18112  12.002   6.548  26.024 -0.2292  0.0911  0.1945
13713W        W18113  24.623   2.270   4.283  0.0281 -0.0695  0.0665
13714W        W18114   4.270   2.446   2.660 -0.0958 -0.0263 -0.1650
13715W        W18115  11.404   1.458  26.039  0.0894 -0.1148 -0.1067
13716W        W18116  14.803   2.517  29.892  0.1795  0.1527  0.1694
13717W        W18117   4.113   1.987   2.958  0.1943  0.1803 -0.0854
13718W        W18118  13.093   4.307  35.787  0.3006  0.1024 -0.2988
13719W        W18119  16.147   5.468   1.625 -0.1705  0.2638  0.0160
13720W        W18120  13.092   2.718  12.348 -0.1872  0.0394  0.1417
13721W        W18121  12.943   3.352  26.632 -0.1015  0.2360 -0.0726
13722W        W18122  12.536   6.273  32.354  0.0833 -0.0909 -0.1148
13723W        W18123  25.233   4.289  33.692 -0.0912 -0.0391 -0.0727
13724W        W18124   4.755   1.866  32.805  0.1096 -0.1265 -0.1237
13725W        W18125  17.997   1.876  31.662  0.4651  0.3829  0.1431
13726W        W18126  25.023   2.333  33.115  0.2527 -0.0077 -0.1190
13727W        W18127  18.562   3.799  11.673 -0.0404  0.2158 -0.2407
13728W        W18128  12.564   1.639  30.022 -0.2760 -0.1222 -0.1193
13729W        W18129  21.819   0.313   7.170 -0.0108 -0.1993  0.0143
13730W        W18130  19.141   3.112   4.099  0.1040 -0.0288  0.0672
13731W        W18131   3.916   4.494  15.507 -0.1833 -0.1379 -0.1233
13732W        W18132   8.702   1.358  26.875 -0.1688  0.1776 -0.0393
13733W        W18133   3.182   4.674  10.444 -0.0484 -0.1618  0.0043
13734W        W18134  12.206   5.489  11.359 -0.1646 -0.4544 -0.1416
13735W        W18135  21.133   5.422   5.554 -0.0818 -0.1244  0.1575
13736W        W18136   7.520   5.231  27.386 -0.2459  0.1684 -0.2415
13737W        W18137  23.154   2.264  22.630  0.0407 -0.0345  0.1713
13738W        W18138  21.644   0.985  35.658 -0.1380 -0.1344 -0.0183
13739W        W18139  15.342   6.392   2.496 -0.2844  0.1302  0.1321
13740W        W18140   1.521   2.213  26.591 -0.1508 -0.0605 -0.1294
13741W        W18141  21.285   3.576   3.333  0.0669  0.2171  0.0019
13742W        W18142  18.780   4.594   4.874  0.1422  0.1066 -0.2675
13743W        W18143  23.793   4.858   2.730  0.1121 -0.0555 -0.1334
13744W        W18144  21.235   1.709  14.435 -0.4005 -0.1031  0.0420
13745W        W18145  21.343   1.644  24.537 -0.2020  0.0306 -0.2531
13746W        W18146   3.661   2.772  26.159  0.0514 -0.1359  0.0438
13747W        W18147   8.769   0.041   6.004 -0.1453 -0.4372 -0.1093
13748W        W18148   1.537   5.713   1.080 -0.1475 -0.0490 -0.0267
13749W        W18149  17.219   6.264   9.771 -0.0158  0.2370  0.0030
13750W        W18150  23.551   0.043  22.482 -0.2554  0.0597 -0.1529
13751W        W18151  23.087   4.556   8.937 -0.0020 -0.1075 -0.2802
13752W        W18152   6.182   5.879  14.037 -0.0705 -0.1239  0.0067
13753W        W18153  15.612   3.068  28.307 -0.2522 -0.0583  0.1775
13754W        W18154   3.567   0.803  33.731 -0.2605 -0.2811  0.1094
13755W        W18155   0.996   1.679  30.287  0.0588  0.2759 -0.0045
13756W        W18156  20.015   2.955   7.127  0.2956  0.0937 -0.1544
13757W        W18157  16.017   5.841  30.401  0.0740 -0.0016  0.0886
13758W        W18158  20.720   0.135  33.076  0.0301 -0.0318  0.3513
13759W        W18159   8.691   5.824   0.307 -0.1681  0.0691 -0.1461
13760W        W18160  17.335   3.772  10.687  0.2651 -0.0614 -0.1843
13761W        W18161   9.635   4.577   5.247 -0.0135 -0.2913  0.0123
13762W        W18162  19.354   4.517  32.946 -0.0657 -0.0970  0.1081
13763W        W18163  19.365   5.533  10.070 -0.0063 -0.1209 -0.3884
13764W        W18164  11.334   2.189  31.125  0.0252  0.2045  0.2004
13765W        W18165   3.984   5.015  11.045 -0.4332  0.1402 -0.0969
13766W        W18166  11.232   6.405   7.418  0.0164  0.0007 -0.1202
13767W        W18167   6.371   1.493  12.347  0.2930 -0.0707 -0.0246
13768W        W18168  17.825   1.468  34.067 -0.0230  0.0293  0.0872
13769W        W18169   1.552   4.627   5.530 -0.0079 -0.0737 -0.0437
13770W        W18170   3.991   1.665  28.806 -0.1948  0.0346  0.0138
13771W        W18171   9.196   5.887   7.065  0.1785 -0.0713 -0.0258
13772W        W18172   3.835   0.895   5.399  0.3239 -0.1247  0.0098
13773W        W18173  26.057   0.253  10.187 -0.1391 -0.4259 -0.0234
13774W        W18174  20.876   4.662  34.700  0.0048  0.0463 -0.2034
13775W        W18175  26.207   5.045   3.008  0.1920  0.0369 -0.3011
13776W        W18176  25.017   6.470  13.146 -0.0699  0.0159  0.2048
13777W        W18177  19.089   5.247  10.869 -0.3270  0.2086 -0.0416
13778W        W18178   5.167   4.798  12.559  0.1495 -0.0071  0.1043
13779W        W18179  23.645   2.978  21.577  0.0958  0.0817  0.4673
13780W        W18180  24.230   6.545  13.437 -0.0528  0.0151  0.1193
13781W        W18181   3.828   3.201  14.945  0.0685 -0.0299  0.1809
13782W        W18182  22.555   5.676  20.788  0.4075 -0.1047  0.3648
13783W        W18183   9.633   0.942  32.056  0.0701 -0.1732 -0.0306
13784W        W18184   3.645   5.888   9.423  0.1552  0.1577 -0.0883
13785W        W18185   2.420   4.892  36.069 -0.1650  0.2213 -0.1706
13786W        W18186  19.496   0.342  31.798  0.0310  0.1006 -0.1773
13787W        W18187  15.142   4.505  28.705 -0.0890  0.0676  0.1709
13788W        W18188   7.631   0.743   5.996  0.0276 -0.0884 -0.0048
13789W        W18189  24.837   6.491  32.855  0.0423  0.2053  0.2772
13790W        W18190   4.820   3.354  28.283  0.1852  0.0755 -0.0444
13791W        W18191   9.232   5.318  24.695 -0.1265  0.1132  0.2188
13792W        W18192  20.495   2.392  22.929  0.0963  0.0777  0.1089
13793W        W18193   5.706   2.275  28.410  0.1841  0.2783  0.1189
13794W        W18194  14.647   5.860   1.395  0.1457 -0.3935 -0.0965
13795W        W18195  15.634   2.313   4.265  0.0231 -0.2256  0.0997
13796W        W18196  18.509   5.714  22.145 -0.3274  0.0517 -0.4150
13797W        W18197   7.394   2.388   6.388  0.3764 -0.1264  0.1198
13798W        W18198  21.416   2.702  35.188  0.2967 -0.0196  0.0595
13799W        W18199  13.687   2.590  21.766 -0.0762  0.0487 -0.1692
13800W        W18200  21.791   6.518  15.030  0.1945 -0.1121  0.1390
13801W        W18201   5.133   4.977  29.042 -0.2236 -0.2236 -0.1112
13802W        W18202   5.065   3.086  24.714 -0.0710 -0.2950 -0.1153
13803W        W18203  14.352   6.193  25.356  0.2469 -0.0533 -0.0958
13804W        W18204  19.602   4.501  20.763 -0.1209 -0.1066 -0.0416
13805W        W18205   4.978   1.004  29.571  0.0742 -0.0686  0.3820
13806W        W18206  23.595   1.126  35.584 -0.0568  0.0741  0.2708
13807W        W18207  18.282   0.463   6.497  0.0320 -0.0627 -0.1726
13808W        W18208  19.635   1.008  20.808 -0.0722  0.1089  0.0526
13809W        W18209  10.743   4.870  27.147  0.1792  0.1351 -0.0034
13810W        W18210   7.270   4.387  33.216  0.3447 -0.0246 -0.1756
13811W        W18211  25.151   0.409  25.170  0.3072 -0.0994  0.1043
13812W        W18212   3.160   1.134  25.076 -0.0540 -0.1865 -0.3288
13813W        W18213  11.071   3.770  29.621 -0.0200 -0.1711 -0.0712
13814W        W18214  20.521   0.715  34.655 -0.0179  0.3210  0.2711
13815W        W18215  22.145   3.476  23.731  0.3505 -0.1614  0.3803
13816W        W18216  24.099   0.865   2.349  0.1657 -0.0879 -0.1241
13817W        W18217   6.923   1.309  30.962 -0.1572  0.0686 -0.0890
13818W        W18218  25.443   3.088   6.941  0.0815 -0.2359 -0.0735
13819W        W18219  22.460   2.055  24.616  0.0771 -0.0361  0.2125
13820W        W18220  18.642   0.183   4.106 -0.1025 -0.1682  0.1243
13821W        W18221  22.714   0.246   7.005  0.0059 -0.0494  0.0160
13822W        W18222  20.716   5.673   3.291  0.0936  0.0191 -0.1756
13823W        W18223  13.359   0.551  33.103  0.1226  0.1453  0.0920
13824W        W18224   6.196   1.903  27.072  0.1948  0.2007 -0.1171
13825W        W18225  16.087   6.107  13.630  0.0913  0.0224  0.2307
13826W        W18226  23.231   6.047  35.263 -0.1230  0.2257  0.1540
13827W        W18227  12.903   1.397  22.681 -0.1491  0.1349  0.0870
13828W        W18228   8.506   1.721  28.823  0.2105  0.1061 -0.2589
13829W        W18229   0.563   3.945  33.230 -0.0446 -0.0573  0.0287
13830W        W18230  16.833   0.474   0.453 -0.1406  0.6261 -0.2792
13831W        W18231   0.398   5.085   7.135  0.0732  0.1047  0.1324
13832W        W18232  23.756   1.922   0.395  0.2755  0.2276 -0.1478
13833W        W18233   3.802   1.922   6.227  0.1303 -0.0759  0.0849
13834W        W18234  13.893   1.983   7.478  0.0320 -0.0933  0.3108
13835W        W18235  26.295   2.351   1.538 -0.2197  0.3631 -0.1553
13836W        W18236  17.143   2.361  25.098  0.0966 -0.2191  0.0112
13837W        W18237  23.366   3.041  34.023 -0.0060  0.2353  0.1187
13838W        W18238  14.015   1.915  34.113  0.1163 -0.0083  0.1306
13839W        W18239   5.060   5.609  26.000  0.1911 -0.2737  0.0674
13840W        W18240  19.488   2.728  10.585 -0.3276 -0.1792 -0.1468
13841W        W18241  15.804   1.712  24.512  0.1519  0.1703 -0.0840
13842W        W18242   1.630   0.007  20.091  0.1198  0.3201 -0.0569
13843W        W18243  11.307   1.045  14.497 -0.2354  0.1122  0.0320
13844W        W18244   4.460   4.844  25.474  0.0492  0.0372  0.2848
13845W        W18245   2.920   0.478   9.547  0.0789  0.0992 -0.0682
13846W        W18246  23.084   1.940   1.681  0.0230 -0.0281  0.0794
13847W        W18247  12.349   2.819   7.622  0.1392  0.0997 -0.1502
13848W        W18248   3.805   1.195  14.921  0.0178 -0.1255 -0.0964
13849W        W18249   2.105   0.304   8.887  0.2530  0.0327  0.2400
13850W        W18250   0.339   1.862  28.203 -0.2638 -0.3074 -0.3598
13851W        W18251  12.709   4.231  31.875  0.0950  0.0409 -0.0685
13852W        W18252   8.700   4.407  27.192 -0.0522  0.1183  0.0539
13853W        W18253  15.091   3.127  12.017 -0.2435 -0.0066  0.0108
13854W        W18254  15.321   5.528   1.723  0.0749 -0.1677  0.1504
13855W        W18255  19.384   4.119  27.617 -0.1150  0.0869  0.1659
13856W        W18256  24.339   0.037   5.941  0.1560  0.0831 -0.0141
13857W        W18257   5.471   0.107   9.625 -0.1780 -0.1231  0.0650
13858W        W18258   1.841   1.172  10.098 -0.1636 -0.1113  0.1822
13859W        W18259   2.503   4.100  33.279  0.1243 -0.0963  0.1997
13860W        W18260  19.110   6.012  20.368  0.0054 -0.1532 -0.0910
13861W        W18261   4.308   6.059  31.896  0.2351  0.1121 -0.0659
13862W        W18262  21.334   3.417  30.044 -0.2807 -0.2512 -0.0582
13863W        W18263   0.492   1.249  29.352  0.0892  0.0684 -0.1722
13864W        W18264  12.339   3.536  12.965 -0.1440  0.1277  0.0740
13865W        W18265  20.535   0.834  27.036 -0.0820  0.1362  0.0428
13866W        W18266  18.132   5.584   9.814  0.1701  0.1265  0.0405
13867W        W18267  22.541   0.228  24.068  0.1830  0.2651  0.1211
13868W        W18268   8.658   0.381   8.587  0.0335  0.1918  0.1260
13869W        W18269   3.890   1.071   7.096 -0.0890  0.0301  0.0750
13870W        W18270  18.224   4.074  13.099 -0.1457 -0.0808 -0.1300
13871W        W18271  22.426   0.018   9.784  0.3761 -0.0166 -0.0520
13872W        W18272  10.772   5.056   5.941 -0.2836  0.0757  0.1305
13873W        W18273   7.735   3.478   7.113 -0.1290  0.0020 -0.0653
13874W        W18274  22.163   3.343  10.816 -0.0865  0.0151  0.0422
13875W        W18275  18.208   3.476  23.169  0.2856  0.0373  0.0118
13876W        W18276  12.992   2.359  13.163 -0.0092  0.1384 -0.0363
13877W        W18277   8.878   6.184  34.012  0.1612  0.1374 -0.0156
13878W        W18278   6.498   0.030  24.643  0.0450 -0.3274  0.0038
13879W        W18279  20.929   5.983  33.045 -0.0817 -0.0227  0.0891
13880W        W18280   6.191   4.729  15.228 -0.1512 -0.0716  0.1432
13881W        W18281  19.253   5.522  13.520  0.0655 -0.2455  0.1193
13882W        W18282  13.752   0.401  29.485  0.0007 -0.1750 -0.0137
13883W        W18283   5.945   0.101  31.774  0.0438  0.1004 -0.0422
13884W        W18284   7.399   0.350  29.317  0.0915 -0.1206 -0.1436
13885W        W18285  19.995   2.504  22.209 -0.1508 -0.2584  0.0898
13886W        W18286  21.715   4.490  33.490  0.1979 -0.0240 -0.1949
13887W        W18287  14.198   3.591   3.504 -0.0181  0.2503  0.0158
13888W        W18288   1.641   5.319  32.384  0.2245  0.0666 -0.0165
13889W        W18289  26.091   3.218  20.980  0.0866  0.0807  0.0376
13890W        W18290  10.452   0.461  33.495 -0.1604  0.0368 -0.0941
13891W        W18291   1.696   0.032   3.859 -0.0496 -0.1519  0.5385
13892W        W18292   8.044   0.501   8.805 -0.1682 -0.0543 -0.3899
13893W        W18293   8.190   5.150   8.980 -0.0297  0.1183 -0.0149
13894W        W18294  19.592   0.959   5.638  0.1300  0.2242 -0.0845
13895W        W18295   8.429   3.457   7.923  0.3856  0.0958  0.0478
13896W        W18296  10.152   1.918  23.001 -0.1492  0.1919  0.0934
13897W        W18297  21.647   4.890  28.890 -0.4518 -0.1734  0.1279
13898W        W18298  15.609   4.261   9.511 -0.1216  0.0257 -0.1628
13899W        W18299   1.408   4.207  23.603 -0.0722 -0.2038  0.0802
13900W        W18300   1.591   3.466   9.793 -0.0526 -0.2429  0.1500
13901W        W18301   0.869   4.317  13.100  0.1878 -0.2329 -0.1344
13902W        W18302  23.405   2.613  12.567 -0.2279 -0.2194 -0.3695
13903W        W18303  23.604   6.480  31.938 -0.1186 -0.0297 -0.0336
13904W        W18304  24.697   0.192   0.912  0.2386  0.2660 -0.0434
13905W        W18305  11.727   5.345  24.542  0.0393 -0.3041 -0.1978
13906W        W18306  24.710   4.528  27.823 -0.0790  0.3054 -0.0329
13907W        W18307  23.561   3.906   0.477 -0.0844 -0.3994  0.1355
13908W        W18308   4.396   5.643  22.417 -0.1079  0.0984 -0.2667
13909W        W18309  16.590   5.848   1.515  0.1983  0.1622 -0.2091
13910W        W18310   6.854   5.458  26.272 -0.0556  0.2715  0.0531
13911W        W18311   1.039   1.852   4.739 -0.2959 -0.0351  0.1461
13912W        W18312   1.254   0.822  26.946  0.2180 -0.1036 -0.2841
13913W        W18313  23.236   2.921   5.874  0.0969  0.0582  0.0715
13914W        W18314  10.334   0.739  12.833  0.1267  0.1634  0.1751
13915W        W18315  12.806   6.519  35.386 -0.0830 -0.2870 -0.1431
13916W        W18316   3.543   3.961  28.963  0.1269  0.0699  0.3242
13917W        W18317  26.020   4.792   1.279 -0.1707 -0.2400  0.1329
13918W        W18318  25.529   4.108  22.052  0.0367 -0.1172 -0.1871
13919W        W18319  22.639   2.594  34.420 -0.1163  0.1599  0.2241
13920W        W18320   1.381   0.804   9.822 -0.1899  0.0724  0.0728
13921W        W18321   6.544   6.085   0.586 -0.3030  0.1846 -0.1479
13922W        W18322  17.514   5.015  35.278 -0.1855 -0.0854  0.0391
13923W        W18323  23.613   5.960  24.826 -0.0466 -0.1957  0.2915
13924W        W18324   4.821   6.307  14.240 -0.1145 -0.1145 -0.1364
13925W        W18325  11.338   4.283  29.987 -0.0926 -0.0429  0.0505
13926W        W18326   3.278   4.356  15.342 -0.0814 -0.3191  0.4180
13927W        W18327   2.828   0.680   9.992 -0.2662  0.1449  0.2746
13928W        W18328   7.771   5.423  10.693  0.0419  0.2014 -0.1778
13929W        W18329  15.558   4.988  27.509  0.2937 -0.3497  0.1711
13930W        W18330   9.912   2.698   3.791  0.4091  0.1251 -0.2245
13931W        W18331   3.925   6.135   8.989  0.1636 -0.1067  0.0712
13932W        W18332  24.358   5.827  35.486 -0.0925  0.1306  0.2907
13933W        W18333   2.361   3.094  34.825  0.0813 -0.0649 -0.0539
13934W        W18334  11.128   1.602  28.330  0.0957 -0.3365 -0.1911
13935W        W18335  17.171   4.074  33.056  0.0501  0.1502 -0.0815
13936W        W18336  26.026   5.497   8.096 -0.0090  0.3586 -0.1575
13937W        W18337  17.339   5.304  24.256  0.1690 -0.1501  0.0989
13938W        W18338   3.796   3.284   6.279 -0.1532 -0.0020 -0.1444
13939W        W18339  10.495   1.579   7.714 -0.1437 -0.1350 -0.2306
13940W        W18340  14.658   4.103  22.266  0.2698  0.0139  0.2501
13941W        W18341  18.210   3.263   8.787  0.0536  0.0692  0.1725
13942W        W18342   8.281   1.723  30.394 -0.2285  0.3373 -0.1379
13943W        W18343  25.149   3.108   8.752  0.1422  0.1342  0.1783
13944W        W18344  12.472   3.313   3.043  0.1905  0.2240  0.0645
13945W        W18345   7.304   1.839  26.777 -0.1756  0.4586  0.2450
13946W        W18346  11.379   3.843  22.216 -0.2386  0.1568  0.0455
13947W        W18347   7.279   0.314   3.070 -0.0884 -0.0650 -0.0571
13948W        W18348  12.100   0.322  26.405 -0.2658  0.0964 -0.1115
13949W        W18349   8.950   4.840  30.947 -0.0496  0.1498 -0.0003
13950W        W18350   6.019   2.270  33.617 -0.0724 -0.3058 -0.0502
13951W        W18351   8.243   1.610  12.187  0.0419 -0.0821  0.1766
13952W        W18352  22.440   6.202  11.062 -0.0261  0.0442 -0.2091
13953W        W18353   2.831   2.342  34.602 -0.0162  0.1460 -0.2441
13954W        W18354  18.971   1.894  23.595 -0.1785  0.0085  0.0199
13955W        W18355  21.980   3.376   0.188 -0.0092 -0.0499 -0.1920
13956W        W18356  25.801   1.578  10.382 -0.2214  0.0809 -0.3750
13957W        W18357  24.301   1.515   6.501 -0.1977 -0.0318  0.1125
13958W        W18358  20.724   5.802   1.437  0.0906 -0.0812  0.2206
13959W        W18359   1.047   4.211  33.594 -0.3025  0.0944  0.0497
13960W        W18360   7.288   5.546  27.022  0.1866 -0.2076  0.0696
13961W        W18361   1.319   6.283   7.009 -0.1113  0.2603 -0.2215
13962W        W18362   3.575   5.995  26.442  0.3001 -0.1873 -0.0105
13963W        W18363   8.267   6.446  10.093  0.0883  0.2377  0.0036
13964W        W18364  21.217   2.159  28.605 -0.0072  0.2042  0.1524
13965W        W18365   7.129   4.539  30.784 -0.1173 -0.2045  0.0826
13966W        W18366  25.873   3.449   4.503  0.3034 -0.0510 -0.0997
13967W        W18367  12.470   3.946  12.262  0.2994 -0.0544  0.0169
13968W        W18368  22.376   2.693   1.936  0.0904 -0.1419 -0.0279
13969W        W18369   0.590   0.387   9.097 -0.0086  0.3387 -0.1631
13970W        W18370  19.030   1.617   8.720 -0.0365 -0.0386  0.1191
13971W        W18371   0.312   2.431  28.780 -0.0464  0.0211 -0.1117
13972W        W18372  16.341   3.257   1.902 -0.5710 -0.4136 -0.0747
13973W        W18373  19.243   5.112  24.201  0.0009  0.1852 -0.1664
13974W        W18374  19.620   6.061  14.447  0.1765 -0.1519 -0.1268
13975W        W18375  19.125   5.759  33.453 -0.1584 -0.1005  0.2241
13976W        W18376   4.068   1.622   4.739  0.1572  0.0417  0.2104
13977W        W18377   0.423   4.041  28.507  0.2212 -0.1597 -0.2428
13978W        W18378   1.622   1.706   7.303 -0.1589 -0.1027  0.0424
13979W        W18379  22.001   3.473  32.094 -0.1408 -0.2377  0.0211
13980W        W18380  22.475   5.652   5.467  0.0224  0.0351  0.1652
13981W        W18381  17.451   5.003  22.684  0.0282 -0.0052 -0.0573
13982W        W18382   0.320   1.733  14.677  0.1823  0.1367 -0.1629
13983W        W18383   8.862   0.885  29.007 -0.1829  0.1303  0.0382
13984W        W18384   8.359   2.866  21.717 -0.1952  0.1594  0.1154
13985W        W18385   7.131   5.289   8.181 -0.0733 -0.2902  0.3958
13986W        W18386  21.231   0.296   2.666 -0.1096 -0.0749  0.0073
13987W        W18387  24.050   6.000   1.246 -0.2555  0.1658  0.1530
13988W        W18388   2.469   6.363  21.473  0.0976 -0.1051 -0.0953
13989W        W18389  20.398   5.901  24.721 -0.1512 -0.0195  0.1240
13990W        W18390   2.919   6.533  35.720 -0.0456 -0.0052  0.2395
13991W        W18391  12.668   4.601  32.191 -0.1477 -0.3243  0.4825
13992W        W18392   3.539   3.725  24.457  0.1397  0.1477  0.1455
13993W        W18393  25.491   0.408   8.802 -0.1213 -0.0323  0.1228
13994W        W18394   9.425   6.046  30.154 -0.1622  0.3740 -0.4089
13995W        W18395  22.600   5.706  15.713  0.1344 -0.1862  0.1793
13996W        W18396  10.742   0.325   5.751 -0.2211  0.2802  0.1091
13997W        W18397   2.865   4.295  33.669  0.1118 -0.0712 -0.0123
13998W        W18398  25.040   5.847   5.398 -0.0216  0.2939  0.4008
13999W        W18399  14.689   2.742   5.569  0.2089 -0.1462  0.0765
14000W        W18400  14.541   0.705  25.012 -0.0442 -0.0609  0.0333
14001W        W18401  22.514   0.923  14.948 -0.0354 -0.1515  0.3004
14002W        W18402  16.857   0.680   3.332  0.2614 -0.4953  0.1274
14003W        W18403   8.979   4.798  10.331  0.0329 -0.1135 -0.2145
14004W        W18404  25.778   0.757  13.838  0.0899 -0.0669 -0.1121
14005W        W18405   6.418   5.005  29.686 -0.1607  0.1258 -0.1238
14006W        W18406   9.859   4.769  32.134  0.5934 -0.2671 -0.1668
14007W        W18407  23.968   4.103   6.427  0.2775  0.2472  0.0202
14008W        W18408  13.118   5.828   2.524  0.2015  0.1152  0.2853
14009W        W18409   9.775   0.386   7.448  0.0916  0.0777 -0.2993
14010W        W18410   8.924   5.964  13.807  0.2702 -0.0819 -0.0049
14011W        W18411   8.662   2.955  30.123 -0.1403 -0.0202  0.2866
14012W        W18412   2.451   1.124  15.428 -0.0014 -0.0766  0.0255
14013W        W18413  11.656   2.066  26.754 -0.3440 -0.0716  0.0517
14014W        W18414  24.656   1.148  21.127  0.0240  0.1195 -0.2108
14015W        W18415   2.782   4.369  15.342 -0.4161 -0.1290  0.0089
14016W        W18416  20.426   5.145   0.544 -0.2880 -0.0290  0.1038
14017W        W18417  18.372   5.057   0.448  0.0809  0.0411 -0.2096
14018W        W18418  14.889   1.858  10.613  0.0261  0.2220  0.1245
14019W        W18419   8.641   0.029  14.987 -0.2108  0.1630  0.0103
14020W        W18420   1.405   2.625  28.291  0.0701  0.0831 -0.0836
14021W        W18421  19.983   3.311  11.847 -0.5075  0.2655 -0.0616
14022W        W18422   1.357   2.192  10.126  0.1477  0.0253  0.1490
14023W        W18423   3.726   6.513  26.393 -0.3308  0.1648  0.1535
14024W        W18424  16.378   1.654  29.342  0.0203  0.0332 -0.1239
14025W        W18425  13.082   5.223  34.219  0.1699 -0.3534  0.0036
14026W        W18426  21.480   1.308   9.089 -0.4349 -0.3467 -0.0752
14027W        W18427  13.308   4.152   9.032  0.1654 -0.1392  0.0276
14028W        W18428   1.014   0.110   7.018 -0.1220  0.3315 -0.0135
14029W        W18429   2.206   0.365   6.507  0.0215  0.1023  0.1291
14030W        W18430  23.403   2.491   2.845 -0.1872 -0.1208 -0.1380
14031W        W18431   5.081   1.053   2.261  0.1168  0.0487  0.2810
14032W        W18432  22.833   4.083  34.819 -0.0750  0.1395 -0.2505
14033W        W18433   9.154   1.175  32.341  0.2123  0.0436 -0.0886
14034W        W18434  12.560   4.302   3.658  0.2508  0.0889  0.0242
14035W        W18435  16.675   1.655   0.375 -0.2767  0.1272 -0.1881
14036W        W18436  23.725   4.518  28.729  0.1331  0.0923  0.0956
14037W        W18437   4.867   1.324   4.060  0.1602 -0.1618 -0.0098
14038W        W18438  18.193   2.703  32.325 -0.0663 -0.0932 -0.3425
14039W        W18439  16.804   1.056  30.391  0.0023 -0.0856  0.3631
14040W        W18440   8.970   2.334   3.018 -0.0778  0.1346 -0.0415
14041W        W18441  23.203   2.295  29.102 -0.2737 -0.1077  0.0466
14042W        W18442   6.851   6.103  29.843  0.1095 -0.0553 -0.1099
14043W        W18443  11.747   6.078  25.602  0.0146  0.2038 -0.2444
14044W        W18444   0.785   2.432  28.851  0.1377 -0.0854  0.3046
14045W        W18445   0.891   3.713  14.039  0.1841  0.2363  0.0038
14046W        W18446   1.887   2.493  24.108 -0.4179 -0.2185  0.0721
14047W        W18447   1.355   2.815  30.966  0.2216 -0.0351  0.1705
14048W        W18448  14.885   2.782  31.742 -0.1232  0.1586  0.2587
14049W        W18449  23.028   6.311  13.937 -0.0618 -0.3185  0.1190
14050W        W18450   8.509   4.724  30.678 -0.2151 -0.1149  0.0251
14051W        W18451  13.097   2.380  29.661 -0.1892 -0.3821 -0.3665
14052W        W18452   9.886   0.838  10.303  0.2139  0.2467  0.0337
14053W        W18453  23.955   2.210  28.207 -0.0324 -0.0090  0.0639
14054W        W18454  20.605   3.565   0.637 -0.0968 -0.2773  0.1697
14055W        W18455  17.844   5.637  14.017 -0.2531 -0.1650  0.0174
14056W        W18456  11.547   2.031  27.261 -0.0203  0.1332 -0.2249
14057W        W18457  23.345   6.555   4.411 -0.0194  0.2254 -0.2431
14058W        W18458  20.231   4.417  32.185 -0.2129 -0.0346  0.2425
14059W        W18459  20.597   0.233  27.626  0.2107 -0.1816  0.0421
14060W        W18460  26.254   5.859   6.389 -0.3065  0.1567 -0.3594
14061W        W18461  17.275   4.712   6.954  0.1899  0.0721  0.1680
14062W        W18462  17.930   4.838   9.049 -0.0241  0.1261  0.1697
14063W        W18463   3.685   6.152  12.958  0.2128 -0.1204  0.0747
14064W        W18464  22.481   0.033  26.943  0.1388  0.1920  0.1734
14065W        W18465  10.751   3.518   6.154  0.2460  0.0183  0.0001
14066W        W18466   4.566   5.225  29.331 -0.1610  0.3735 -0.1024
14067W        W18467  12.987   4.018  13.234  0.1605  0.2265 -0.1231
14068W        W18468   4.781   5.142  27.509 -0.1016 -0.2232 -0.0414
14069W        W18469  18.316   0.990  28.516  0.2409  0.1873 -0.0019
14070W        W18470   8.502   5.789  14.589  0.1413  0.0275 -0.0539
14071W        W18471  15.487   4.692  15.202  0.0048 -0.0873  0.0971
14072W        W18472  22.955   0.118  31.348  0.1636  0.0368 -0.1381
14073W        W18473  10.940   4.109  11.887 -0.1860  0.1906  0.0019
14074W        W18474  16.032   3.316  23.921  0.1430 -0.0985 -0.0018
14075W        W18475  14.471   4.197  24.023  0.0979  0.1394  0.2010
14076W        W18476   7.496   3.051  25.565 -0.2986 -0.2394 -0.2205
14077W        W18477  14.857   3.245  22.240  0.1945 -0.1426  0.0835
14078W        W18478   3.970   5.996  14.111 -0.0852 -0.0324  0.1552
14079W        W18479  19.896   4.986   5.030  0.0596 -0.2517  0.2746
14080W        W18480  16.607   1.595   1.701  0.1193  0.0114  0.0036
14081W        W18481   2.774   3.974  12.076  0.0152 -0.1982 -0.0905
14082W        W18482   1.566   4.996  30.223  0.1537 -0.1368 -0.0280
14083W        W18483   7.927   5.165   5.348 -0.0075  0.0469 -0.2739
14084W        W18484  12.038   3.165  12.166  0.1567 -0.2253  0.0472
14085W        W18485  16.038   3.454  25.561 -0.0036 -0.0022 -0.2559
14086W        W18486   0.390   1.898  22.068  0.1241  0.0736  0.0283
14087W        W18487  14.874   3.439  27.166  0.1236  0.0442 -0.0590
14088W        W18488   1.630   5.674  14.522 -0.2649  0.4238 -0.0617
14089W        W18489  23.456   3.341  33.233 -0.1155  0.1957  0.2343
14090W        W18490   3.326   4.515   8.666 -0.1885  0.0273 -0.0021
14091W        W18491   3.662   3.580   1.961  0.0067  0.0874  0.0260
14092W        W18492  21.595   2.627  22.155 -0.0934  0.0160  0.2885
14093W        W18493  20.124   5.097  30.762 -0.1933 -0.2073 -0.1878
14094W        W18494   3.302   3.652  10.873  0.3206  0.3084  0.0498
14095W        W18495  15.684   4.005   3.320  0.0567 -0.0298  0.4716
14096W        W18496  24.267   4.514  10.269  0.1315 -0.1300 -0.0641
14097W        W18497  19.426   1.690  34.964 -0.2232 -0.0987 -0.2477
14098W        W18498  20.122   2.593   0.577  0.1174 -0.2399 -0.0311
14099W        W18499  22.707   3.790  12.404  0.1044  0.4603  0.2820
14100W        W18500   0.386   2.852  31.343 -0.0575  0.3562  0.1412
14101W        W18501  24.831   0.487  28.357 -0.2072 -0.0800  0.0998
14102W        W18502   9.006   3.332  30.257 -0.2092  0.0507  0.4152
14103W        W18503   4.449   3.478   9.984  0.1478 -0.0084  0.0164
14104W        W18504   5.632   3.714  24.402  0.4452  0.1553 -0.1674
14105W        W18505  21.646   2.196  35.760  0.1066  0.0850  0.4084
14106W        W18506  23.533   0.338  31.503  0.0342 -0.3559  0.1033
14107W        W18507  23.048   6.167  27.275  0.1194 -0.0022  0.0743
14108W        W18508  16.624   5.046  13.563  0.0402  0.2397 -0.1324
14109W        W18509   4.422   1.486  13.044  0.1422  0.2634 -0.0147
14110W        W18510  18.673   3.636  12.530  0.2743 -0.0577  0.3214
14111W        W18511  24.752   5.513   7.531  0.0446  0.1927  0.1694
14112W        W18512  12.867   2.671   8.697 -0.0468  0.1942  0.0556
14113W        W18513  21.108   3.128  10.270  0.1376  0.1444  0.3605
14114W        W18514  15.933   5.424  24.403  0.2079  0.2653  0.2333
14115W        W18515  22.256   2.429  10.464 -0.2411  0.1244  0.1407
14116W        W18516   7.225   4.534  12.424 -0.1287 -0.2430  0.0275
14117W        W18517  24.651   4.176  30.347  0.1317 -0.5416 -0.2451
14118W        W18518  20.689   0.724  28.958 -0.3442  0.0986  0.0435
14119W        W18519  12.861   4.345  27.927 -0.0169 -0.0989  0.3267
14120W        W18520   4.211   4.810  13.204 -0.2109 -0.2786 -0.0845
14121W        W18521   2.505   1.461  29.891  0.0152  0.1317  0.1357
14122W        W18522   9.621   6.168  34.139 -0.2019  0.1301  0.0540
14123W        W18523  12.840   6.327  30.242 -0.0446 -0.0912 -0.2276
14124W        W18524  19.063   0.306  26.501 -0.0504 -0.1589  0.5805
14125W        W18525  19.610   5.085  34.497  0.2365 -0.0633  0.1379
14126W        W18526  10.647   2.793  31.857  0.1511  0.1142 -0.1458
14127W        W18527  10.603   6.230   2.499  0.0117  0.2653  0.1103
14128W        W18528  11.059   4.333  10.312  0.1309 -0.0155  0.1947
14129W        W18529  12.184   5.882   4.454 -0.1776  0.0885 -0.1634
14130W        W18530  18.325   2.432  11.165  0.0791 -0.0779 -0.0679
14131W        W18531   8.949   2.407   6.950  0.0489 -0.1957  0.0906
14132W        W18532  14.537   1.953  27.969 -0.2253  0.2723 -0.0186
14133W        W18533   6.361   0.346  31.983 -0.3861  0.1524 -0.0327
14134W        W18534  12.215   1.253  28.994  0.1747 -0.3889 -0.1945
14135W        W18535   1.315   1.267  12.284 -0.1565  0.2644  0.1308
14136W        W18536   3.593   6.173   0.494 -0.1258  0.0622 -0.4123
14137W        W18537  21.762   6.415  12.287 -0.2124  0.2346  0.0729
14138W        W18538   0.548   2.254   7.465 -0.0490 -0.0935 -0.0921
14139W        W18539   2.544   6.204   8.667 -0.1739  0.2547 -0.2910
14140W        W18540  19.933   3.667   5.188  0.0113  0.3979  0.0471
14141W        W18541   5.598   5.963  12.969 -0.4746  0.0147 -0.1071
14142W        W18542  16.230   6.354  30.767  0.0098  0.0876 -0.0343
14143W        W18543   7.823   2.044   3.741  0.0407  0.0905 -0.2673
14144W        W18544  25.130   2.793  14.571  0.0286  0.0617  0.1389
14145W        W18545  26.322   6.340  26.731  0.0594 -0.0573 -0.2728
14146W        W18546   9.109   4.428  32.184  0.1051  0.0481  0.1881
14147W        W18547  16.660   2.395   9.899  0.0512  0.1465  0.2578
14148W        W18548   3.222   4.990  24.916 -0.2023 -0.1112  0.0769
14149W        W18549   2.585   6.117   9.393 -0.0352  0.1106  0.1328
14150W        W18550  11.756   2.516   2.095  0.2572 -0.0851 -0.1707
14151W        W18551  15.799   0.904   4.040  0.0938  0.2292  0.1435
14152W        W18552  20.230   0.727   7.464  0.2553 -0.0202  0.0075
14153W        W18553   5.854   3.940  26.717  0.3271  0.2275 -0.2244
14154W        W18554   5.987   1.515   9.513  0.2168 -0.0417 -0.0956
14155W        W18555  12.305   1.137   0.808 -0.0135 -0.2140 -0.1514
14156W        W18556  10.077   2.691  11.500 -0.2086 -0.1098  0.1348
14157W        W18557   0.325   0.963   8.119 -0.0159  0.0547 -0.1071
14158W        W18558  23.717   5.104   1.577 -0.1016 -0.1150  0.0848
14159W        W18559   8.449   4.525  23.323  0.4610  0.1186 -0.0068
14160W        W18560  13.539   0.553  10.544 -0.3117  0.0555 -0.1933
14161W        W18561  14.567   3.877  29.113  0.0195 -0.0200 -0.2032
14162W        W18562   9.650   5.296   2.448 -0.0841  0.4427  0.2614
14163W        W18563   7.604   5.714  22.591  0.1665  0.1220 -0.1674
14164W        W18564  14.220   5.543  34.916 -0.0732  0.3760  0.0351
14165W        W18565  12.913   1.204   0.032 -0.1309 -0.3093  0.1996
14166W        W18566  16.381   5.209   8.900 -0.0929  0.0065  0.2028
14167W        W18567  24.375   5.506  30.047 -0.2529  0.0401 -0.1196
14168W        W18568   0.262   0.370  32.946 -0.2581  0.3297  0.1250
14169W        W18569  12.645   1.868   0.303  0.3711 -0.2626 -0.0864
14170W        W18570   9.830   2.630  25.299  0.0848 -0.2519  0.0474
14171W        W18571   9.518   1.699   6.669 -0.2587  0.0040 -0.0704
14172W        W18572  24.237   0.109  29.069  0.3005 -0.0782  0.1337
14173W        W18573   4.924   5.385  12.055 -0.0871 -0.1652 -0.1185
14174W        W18574   6.092   3.833   6.184  0.1763  0.1903 -0.0152
14175W        W18575  12.563   4.576   9.568  0.1336 -0.1774  0.2725
14176W        W18576   8.969   1.110  14.166 -0.1722  0.0200  0.2412
14177W        W18577   3.148   1.452   4.853 -0.0860 -0.0173  0.1485
14178W        W18578   8.507   6.328  11.043  0.0248  0.1624  0.2155
14179W        W18579   8.890   2.779  32.199  0.1911  0.1025 -0.0147
14180W        W18580   3.529   1.332  31.535  0.2457 -0.2829  0.1315
14181W        W18581  14.742   0.209  12.458 -0.0930 -0.1931  0.2393
14182W        W18582  20.843   3.750   8.764  0.0149  0.0717 -0.0635
14183W        W18583  14.472   5.094  24.348 -0.1682  0.0645 -0.1088
14184W        W18584  14.666   5.052   6.334  0.0822 -0.2198  0.0466
14185W        W18585   4.790   2.470   2.912  0.1585 -0.1768  0.1623
14186W        W18586   6.145   1.069  14.562  0.1489  0.0900  0.0593
14187W        W18587  14.595   1.099  13.526 -0.2409 -0.1979 -0.0084
14188W        W18588  15.857   1.435  10.665  0.0492  0.1880  0.0245
14189W        W18589   9.708   0.480  33.632 -0.0595 -0.0375  0.0231
14190W        W18590  13.848   4.315   9.983 -0.1193  0.0555  0.1451
14191W        W18591  12.636   4.437   4.925 -0.3131 -0.3266 -0.1584
14192W        W18592  19.807   5.251  30.002  0.3513  0.3503 -0.3754
14193W        W18593  17.444   0.350  27.033  0.2614  0.2651 -0.1304
14194W        W18594   9.796   0.297   8.990 -0.1050  0.0881 -0.2628
14195W        W18595  12.625   3.884  27.347 -0.0792 -0.0457  0.0331
14196W        W18596  12.237   5.109  35.377 -0.0775 -0.1114  0.0452
14197W        W18597   6.717   3.056   0.269  0.2334 -0.1411 -0.1111
14198W        W18598  19.439   5.899  31.691 -0.0251 -0.0485  0.1178
14199W        W18599   6.766   3.577  26.481 -0.0356 -0.3262 -0.0648
14200W        W18600   3.807   4.120  28.072  0.0083  0.0727 -0.0639
14201W        W18601  11.358   2.434  30.633 -0.0452 -0.2996  0.0305
14202W        W18602  25.091   2.022   2.204  0.0900 -0.2050  0.0547
14203W        W18603   5.979   6.106  26.592  0.0353  0.0563  0.6369
14204W        W18604  24.083   4.827   0.204  0.2517  0.0922  0.2369
14205W        W18605  19.597   6.212  34.482 -0.4169  0.1461 -0.0908
14206W        W18606  25.679   4.126  30.323  0.0177  0.0519  0.1888
14207W        W18607  18.454   2.565   0.630  0.2051 -0.0583  0.1239
14208W        W18608  12.729   1.334  16.024  0.1289  0.0510 -0.0066
14209W        W18609  20.887   4.123   5.529 -0.0854  0.1927  0.1194
14210W        W18610  24.282   5.680   4.466  0.2308  0.2991  0.3722
14211W        W18611  20.222   0.167  30.715 -0.0217 -0.0424 -0.3465
14212W        W18612  16.993   6.170  24.735  0.0833  0.1380  0.1933
14213W        W18613  20.016   1.889  31.375  0.1066 -0.2106 -0.0774
14214W        W18614   5.590   0.424  24.288 -0.0749 -0.1194  0.0031
14215W        W18615   0.154   0.340   9.340 -0.0793 -0.1299  0.1484
14216W        W18616  14.754   4.719  34.649  0.1750  0.0958  0.3247
14217W        W18617   3.840   2.108   3.951  0.0107 -0.0723  0.0676
14218W        W18618  21.953   1.725  27.472 -0.2825 -0.4032  0.0322
14219W        W18619   5.140   4.568  33.163 -0.1699  0.1074  0.1286
14220W        W18620   6.233   0.885   5.373  0.0645  0.2753  0.1192
14221W        W18621  16.800   2.489   2.326 -0.4527  0.0442 -0.1871
14222W        W18622  21.385   0.028  26.135  0.0328 -0.2474  0.0634
14223W        W18623  23.352   1.522  24.650  0.1857 -0.0076 -0.4330
14224W        W18624  20.996   1.570  33.353  0.2664  0.2285 -0.1385
14225W        W18625   2.205   3.100   7.880 -0.1401 -0.0385 -0.2688
14226W        W18626  20.685   3.898  26.187 -0.2877  0.1909 -0.0108
14227W        W18627   0.435   3.974   3.513 -0.1301  0.0003  0.3345
14228W        W18628  11.496   3.018  26.824 -0.0095 -0.1330 -0.1447
14229W        W18629   2.260   5.983  35.010  0.2496 -0.1299 -0.2519
14230W        W18630  21.654   0.648  13.702  0.4222  0.0793  0.1742
14231W        W18631   9.496   4.392   2.490  0.3590  0.2564  0.1732
14232W        W18632  16.864   3.334   2.438 -0.2545 -0.3001 -0.0565
14233W        W18633  22.802   2.936  31.686  0.2455 -0.2253 -0.0222
14234W        W18634  13.059   4.901   9.024 -0.2426  0.0117  0.0834
14235W        W18635  14.816   4.811  33.487  0.1033 -0.1022 -0.0895
14236W        W18636  12.561   0.339  23.687  0.2146 -0.2796  0.0972
14237W        W18637   1.397   6.137   8.088  0.1056 -0.3303 -0.1547
14238W        W18638   8.518   2.923   5.744  0.1646  0.1207 -0.1681
14239W        W18639  23.359   4.677  28.193  0.0358  0.2985  0.0249
14240W        W18640  19.679   3.708  15.267 -0.0026 -0.4064 -0.0743
14241W        W18641   6.093   3.855   4.645  0.2334  0.2529  0.1773
14242W        W18642  18.372   1.859  28.648  0.4176  0.1332 -0.0073
14243W        W18643   9.882   1.994  10.377 -0.1821 -0.0950 -0.1513
14244W        W18644  12.955   6.533  26.435 -0.0153 -0.0875  0.1497
14245W        W18645   9.765   3.978  22.900 -0.0208  0.2150  0.3561
14246W        W18646  21.664   6.184  29.631 -0.2504  0.2416  0.0621
14247W        W18647  12.784   0.053   6.328  0.2191  0.1298 -0.0626
14248W        W18648   1.936   0.355   0.176  0.1142  0.0102  0.0944
14249W        W18649   4.469   2.684  14.097 -0.1448  0.0413  0.0379
14250W        W18650   8.765   5.017  20.609  0.1935 -0.0355  0.2252
14251W        W18651   6.801   2.954  27.871 -0.0054 -0.0364  0.0590
14252W        W18652   7.998   2.353  24.604  0.0464 -0.1793  0.0166
14253W        W18653   7.584   2.852   9.789 -0.0170 -0.1362 -0.0782
14254W        W18654  23.964   4.806  30.302  0.1642  0.0968 -0.1185
14255W        W18655  20.584   4.044  34.091 -0.0317 -0.2002 -0.0378
14256W        W18656  23.094   4.447  13.164 -0.2113  0.0570 -0.1266
14257W        W18657  23.676   6.331  10.524  0.0611  0.2836 -0.1569
14258W        W18658  12.660   3.865  27.933 -0.1375 -0.0759 -0.0004
14259W        W18659   3.295   3.051   8.781  0.0597  0.2359  0.2070
14260W        W18660  25.561   2.337  27.288  0.0497  0.0700 -0.0418
14261W        W18661  11.069   2.055   3.784 -0.3651  0.2722 -0.5138
14262W        W18662  11.251   5.591  11.549 -0.0834  0.1817 -0.1032
14263W        W18663   4.446   5.868   9.255 -0.0430 -0.0529  0.0217
14264W        W18664  24.552   1.614  11.349 -0.0110  0.0485  0.0740
14265W        W18665  13.502   0.358   1.436  0.0331  0.2364  0.0583
14266W        W18666  20.012   1.950  30.820 -0.0008  0.1976 -0.0133
14267W        W18667  26.261   5.468   3.740  0.0466  0.0338 -0.0951
14268W        W18668  15.262   0.534  27.886  0.1759  0.0436  0.3185
14269W        W18669   6.675   2.563   7.542 -0.0307  0.1394  0.4031
14270W        W18670  18.989   3.012  26.789  0.2775  0.0844 -0.2550
14271W        W18671  25.188   3.781   2.147 -0.1307 -0.0958  0.0698
14272W        W18672  11.537   2.601   8.044  0.1218  0.1499 -0.0318
14273W        W18673   2.612   5.275   2.257 -0.0032  0.0353 -0.0232
14274W        W18674  21.343   4.316  29.059 -0.1670 -0.0625  0.0147
14275W        W18675   1.376   6.119   1.362 -0.0513  0.1204 -0.0747
14276W        W18676  18.581   2.907  10.462 -0.1783  0.0687  0.1272
14277W        W18677   2.968   6.200  33.692 -0.0229  0.4257 -0.0658
14278W        W18678   1.811   0.551   3.644  0.0331  0.1316  0.0402
14279W        W18679  22.334   0.357   7.324  0.3522 -0.1420 -0.0702
14280W        W18680   1.538   5.899  12.294  0.0517  0.1383 -0.0688
14281W        W18681   1.847   4.626   8.940  0.0087  0.0043  0.0318
14282W        W18682   5.930   5.424   7.293 -0.1415  0.0594  0.2133
14283W        W18683  13.759   3.027  30.873 -0.1976  0.0635  0.2957
14284W        W18684  25.999   2.877   3.237 -0.1869 -0.0168 -0.0661
14285W        W18685  24.112   3.677   4.015 -0.2439 -0.0196 -0.1511
14286W        W18686  15.256   1.066  35.634 -0.2398 -0.1608  0.0959
14287W        W18687   4.000   6.204  13.481  0.2799 -0.2375  0.0581
14288W        W18688  11.710   1.138  26.684 -0.0449 -0.1332 -0.0977
14289W        W18689   1.721   4.335  33.687 -0.2173 -0.0792 -0.0637
14290W        W18690  24.698   3.217  23.154  0.1122  0.0375  0.2925
14291W        W18691  11.933   5.363   2.840 -0.0344 -0.2476 -0.0763
14292W        W18692  21.249   3.881   5.254 -0.0216  0.0861  0.0445
14293W        W18693  18.584   0.803  11.816  0.3040  0.0150 -0.0440
14294W        W18694   5.560   3.562   4.468 -0.3462 -0.0299 -0.2294
14295W        W18695  17.691   3.838   6.383  0.0671 -0.0680 -0.2475
14296W        W18696  22.529   4.641   0.123  0.4112  0.0162  0.0234
14297W        W18697  16.028   0.910  29.265 -0.1318  0.0430  0.0678
14298W        W18698  23.687   5.072   8.765 -0.0261 -0.1819 -0.0713
14299W        W18699  23.342   3.846   9.112  0.0366  0.1357 -0.0475
14300W        W18700  10.114   5.688  34.916  0.3335  0.0933  0.0823
14301W        W18701   2.754   0.792  28.646 -0.1793 -0.1622  0.0332
14302W        W18702   5.223   0.189   6.919 -0.2573 -0.0823 -0.2309
14303W        W18703  20.132   4.482   1.594 -0.1126  0.0620 -0.0765
14304W        W18704   0.347   3.728  11.609 -0.1088 -0.1134 -0.0778
14305W        W18705  12.847   5.431  22.975 -0.0404 -0.4167  0.0016
14306W        W18706  11.583   3.696  35.617  0.2555 -0.1031  0.0062
14307W        W18707   9.894   1.533   2.120 -0.2362 -0.1124 -0.2066
14308W        W18708  10.255   2.305   3.794  0.0307 -0.0007  0.0954
14309W        W18709  16.025   2.248  11.184 -0.0841 -0.0134 -0.0409
14310W        W18710   1.169   3.222   4.546 -0.3888 -0.2013 -0.0200
14311W        W18711  19.253   1.442  25.330  0.3035  0.0351 -0.0990
14312W        W18712  25.120   5.140   3.745  0.1064 -0.1709  0.0737
14313W        W18713  15.422   3.364   5.520 -0.0861  0.1980 -0.2982
14314W        W18714  26.270   5.695  10.903 -0.2012 -0.1732 -0.2179
14315W        W18715   0.589   4.919   1.440 -0.2950 -0.2401 -0.1374
14316W        W18716  24.875   1.010  28.468  0.1900  0.1111  0.2346
14317W        W18717  10.316   2.492  25.344 -0.0738  0.1168 -0.0039
14318W        W18718   7.301   4.787   2.617 -0.1297 -0.3115  0.0297
14319W        W18719  12.404   1.133  10.253  0.0905 -0.0474  0.0500
14320W        W18720   1.988   4.075  10.200 -0.0821 -0.0358  0.0489
14321W        W18721  20.496   2.114  13.457 -0.3069 -0.2268 -0.3676
14322W        W18722  13.890   1.843  33.550  0.1117 -0.0457  0.0448
14323W        W18723   5.863   0.972  26.199 -0.0625  0.1336 -0.0334
14324W        W18724  16.314   6.159   7.414  0.0429  0.0898 -0.1603
14325W        W18725   1.902   4.167  22.749  0.0861  0.0955  0.0606
14326W        W18726   3.784   4.458  29.879  0.1719 -0.1374 -0.3056
14327W        W18727  21.256   6.077   4.930  0.1486 -0.0731 -0.1364
14328W        W18728   9.363   3.445   5.557 -0.2313  0.0412 -0.2153
14329W        W18729  24.905   3.966   0.987 -0.3429  0.1569  0.0566
14330W        W18730  12.990   5.453   9.781  0.2984 -0.2378  0.5002
14331W        W18731  15.818   1.801  33.889 -0.3050 -0.0567 -0.0093
14332W        W18732  12.259   0.884   3.948  0.1010  0.1240 -0.2423
14333W        W18733  20.092   5.006   7.796  0.1034  0.3115  0.0148
14334W        W18734  19.470   1.825  13.751 -0.0161 -0.0405  0.1556
14335W        W18735  19.625   3.853   9.265  0.0473 -0.0422  0.0498
14336W        W18736   8.618   2.388  24.878  0.1312 -0.1510  0.0988
14337W        W18737  14.199   3.606  30.846  0.0417  0.2889  0.2386
14338W        W18738  10.247   1.849  28.335 -0.0723  0.1056  0.0719
14339W        W18739  16.003   2.860   0.105  0.0047 -0.3877 -0.1315
14340W        W18740  24.755   1.224  34.967 -0.1831  0.2237  0.0643
14341W        W18741   1.540   2.121  33.994  0.1989 -0.0489 -0.3297
14342W        W18742   4.750   5.066   8.976 -0.0450  0.0882 -0.0145
14343W        W18743  10.503   5.492  28.548  0.0031  0.2189 -0.0776
14344W        W18744   9.580   4.943  28.808 -0.1778 -0.0345 -0.2207
14345W        W18745  25.063   0.015  13.615 -0.2022 -0.4505 -0.2829
14346W        W18746  12.107   3.253  13.308  0.1390 -0.1169 -0.1497
14347W        W18747   9.797   2.081  26.974  0.1776 -0.1570 -0.0143
14348W        W18748  23.818   1.560  31.514 -0.0671 -0.2542  0.1363
14349W        W18749  21.234   5.263  32.110 -0.2824 -0.0714 -0.0189
14350W        W18750  19.318   5.182   1.512 -0.2796 -0.0833  0.1697
14351W        W18751   3.957   4.071  27.378  0.3371 -0.0400 -0.2760
14352W        W18752   2.495   0.512   5.085 -0.3009 -0.0493 -0.0831
14353W        W18753  10.286   3.714   9.674 -0.4191  0.1134  0.1927
14354W        W18754  25.755   4.120  14.488 -0.2900  0.2466  0.0281
14355W        W18755  19.819   5.168  11.434 -0.2004 -0.1834 -0.2291
14356W        W18756  10.391   3.861  12.271 -0.1196  0.0425 -0.1923
14357W        W18757  23.124   2.786   7.063  0.0442  0.0968 -0.3989
14358W        W18758  12.448   1.067  27.483  0.2630  0.1301  0.2490
14359W        W18759  14.814   5.785   7.121 -0.2573 -0.0524 -0.3011
14360W        W18760   1.100   0.395  29.439 -0.0123 -0.0818 -0.0051
14361W        W18761   6.725   0.419  14.337  0.2766 -0.1811  0.1167
14362W        W18762  23.415   0.879  25.307  0.0053  0.3309  0.0335
14363W        W18763  10.538   6.426   3.060 -0.2008 -0.0973  0.1464
14364W        W18764  13.331   3.196   0.625 -0.0941  0.0497 -0.1416
14365W        W18765   5.826   1.271  27.544  0.1329  0.1398 -0.0649
14366W        W18766  10.778   1.054  36.051 -0.1072 -0.0383  0.0635
14367W        W18767   4.793   0.321  14.050  0.1975 -0.0955 -0.3444
14368W        W18768   6.604   3.932   2.592  0.0073 -0.0762 -0.2612
14369W        W18769   6.571   0.449   2.389  0.2405 -0.0158  0.0600
14370W        W18770  23.161   1.899  13.827  0.3004 -0.1534  0.0336
14371W        W18771  19.328   6.110   0.480  0.0108  0.1928 -0.0724
14372W        W18772  22.218   1.727   7.762 -0.1142 -0.0352 -0.1670
14373W        W18773  23.342   6.429  24.188 -0.4444 -0.0734  0.2418
14374W        W18774   0.035   4.892   8.576  0.2789  0.0709  0.2534
14375W        W18775  25.168   0.821  29.679 -0.1715  0.1107 -0.2146
14376W        W18776   8.432   3.996  23.655 -0.1190 -0.1913  0.1059
14377W        W18777  26.064   1.001  29.188 -0.2695 -0.0441 -0.2242
14378W        W18778  24.908   1.425   0.820  0.1074 -0.4139 -0.0314
14379W        W18779   8.789   1.254  11.942  0.3243 -0.2059  0.0211
14380W        W18780   6.724   6.057  33.451  0.2224 -0.1203 -0.0894
14381W        W18781  24.043   5.897  34.154 -0.0730 -0.0004  0.1079
14382W        W18782  21.252   6.598  23.385  0.0614  0.0524 -0.3367
14383W        W18783   7.261   5.898  12.515  0.3018  0.0405 -0.0415
14384W        W18784  22.756   3.561   7.669  0.0935  0.0538 -0.0127
14385W        W18785  17.365   0.442  30.456 -0.0257  0.0522  0.0471
14386W        W18786  14.751   6.131  31.595  0.1708  0.1070 -0.1802
14387W        W18787  25.471   0.609  32.506 -0.2456  0.1992  0.0752
14388W        W18788   8.170   5.413   9.844  0.3099 -0.1468  0.0331
14389W        W18789  25.342   3.946  31.159  0.1479 -0.1506  0.2360
14390W        W18790   0.461   3.629   6.138  0.2271  0.0613 -0.1877
14391W        W18791  16.195   1.552   4.524 -0.2412  0.1376 -0.0864
14392W        W18792   6.883   3.790   6.726 -0.0736 -0.1490 -0.1694
14393W        W18793   3.373   4.164   6.055 -0.2313 -0.2348  0.1325
14394W        W18794   1.363   1.231  33.092 -0.0904  0.0480  0.0201
14395W        W18795  10.810   3.203  13.560  0.0522  0.0552  0.0561
14396W        W18796  23.635   2.625  35.954 -0.2072  0.0901  0.2361
14397W        W18797  26.254   2.084   6.829  0.1263 -0.1471 -0.2994
14398W        W18798  21.652   3.943  11.583 -0.2168 -0.0091 -0.2268
14399W        W18799  15.149   2.716   0.487  0.2081 -0.0654 -0.0872
14400W        W18800   1.672   1.774   9.890 -0.3218  0.1732 -0.1219
14401W        W18801   6.652   5.020   2.800  0.1078 -0.0005  0.0630
14402W        W18802  10.789   2.444   5.836 -0.1384 -0.3666  0.0352
14403W        W18803   0.121   6.268  14.887  0.1014  0.1184 -0.2756
14404W        W18804   0.095   5.025   4.697  0.1044 -0.0426 -0.2478
14405W        W18805  23.779   4.784   1.042  0.0552 -0.3234  0.1687
14406W        W18806  12.641   6.141  31.819 -0.0454 -0.0432 -0.0204
14407W        W18807   3.138   3.702   9.036 -0.4272  0.0612  0.0156
14408W        W18808   1.906   1.957   5.363 -0.2660 -0.3036  0.0716
14409W        W18809  24.895   5.238   1.796 -0.0130 -0.0207 -0.0651
14410W        W18810  12.873   2.411  22.443 -0.2348  0.1393  0.0980
14411W        W18811   3.475   2.445  28.883  0.1660  0.1513  0.4672
14412W        W18812   7.944   3.538  12.788  0.2224  0.2132 -0.0197
14413W        W18813  16.138   4.618  11.650  0.2961  0.2866  0.1421
14414W        W18814  10.858   5.832  28.915 -0.4260  0.1110  0.2509
14415W        W18815  17.257   1.178   9.440 -0.4865 -0.0355  0.1913
14416W        W18816  15.203   0.396  10.099  0.2144 -0.2629  0.1707
14417W        W18817  24.013   5.149   7.880 -0.2710 -0.1685 -0.2321
14418W        W18818   7.476   4.660   0.155  0.2231  0.0383  0.0593
14419W        W18819  25.224   5.340   2.466  0.1358  0.3454 -0.2235
14420W        W18820  14.048   5.025  12.075 -0.1602  0.0117  0.0270
14421W        W18821  21.794   5.237  12.887  0.0594 -0.2017  0.0042
14422W        W18822   9.771   0.008  26.247  0.1005 -0.2077 -0.2096
14423W        W18823  12.738   3.397   9.885 -0.0775  0.3100  0.2240
14424W        W18824  13.702   3.644  25.092  0.0316  0.0700 -0.0684
14425W        W18825  20.469   4.005  27.317 -0.2962 -0.0476 -0.0197
14426W        W18826  13.393   2.530  34.134 -0.0577  0.0777  0.2271
14427W        W18827   2.859   1.490   3.056  0.2846 -0.0221  0.1001
14428W        W18828  12.920   2.937  23.121 -0.2101  0.3366  0.1096
14429W        W18829   6.303   0.830  26.387  0.0533 -0.1853  0.1373
14430W        W18830  24.423   1.608  33.820  0.0448  0.2396 -0.2741
14431W        W18831  22.767   0.704  30.559 -0.0378 -0.2020 -0.0094
14432W        W18832  26.211   3.047   5.895 -0.0173 -0.0554 -0.2246
14433W        W18833  22.818   0.920  25.055 -0.0834 -0.1297  0.0802
14434W        W18834  21.927   1.886   9.534  0.1430  0.1086  0.2170
14435W        W18835   0.697   3.440   4.655  0.2342 -0.0882  0.1208
14436W        W18836   4.646   0.936  21.767  0.2037 -0.2350  0.0960
14437W        W18837   2.979   3.663  26.539 -0.2250 -0.0469  0.0681
14438W        W18838  19.564   3.206   3.864  0.2231  0.2993 -0.2829
14439W        W18839  11.194   4.576  31.385  0.0928  0.0289  0.1688
14440W        W18840  20.415   6.382  32.658  0.3028 -0.1831  0.1784
14441W        W18841   6.543   1.772  20.964 -0.0705 -0.1742  0.1144
14442W        W18842  20.620   0.835  12.989  0.0071 -0.1000 -0.1350
14443W        W18843  13.751   2.183   2.643  0.2782  0.0480  0.0187
14444W        W18844   5.117   2.601  11.651  0.0733 -0.1254  0.1585
14445W        W18845   5.572   0.075  25.641 -0.0290 -0.0702 -0.1841
14446W        W18846  12.320   5.300  27.303 -0.2465 -0.2540  0.0454
14447W        W18847   6.957   3.546  27.609  0.0095 -0.3087  0.2383
14448W        W18848  24.037   4.183   5.548  0.1063 -0.2543 -0.0335
14449W        W18849  15.896   5.448  11.556 -0.1452  0.2070 -0.0597
14450W        W18850  18.011   3.354  11.086 -0.2693 -0.1556 -0.2213
14451W        W18851   2.354   2.699   7.564 -0.0232  0.1473 -0.2641
14452W        W18852  23.302   3.537   8.635  0.2226 -0.1642  0.0711
14453W        W18853  22.052   3.044   6.561  0.2356  0.1195  0.1155
14454W        W18854  14.320   0.846  10.409  0.1464  0.2635  0.0955
14455W        W18855  20.518   0.079  14.627 -0.2223  0.0237  0.1021
14456W        W18856   6.062   6.394   4.776  0.4404 -0.0783 -0.1028
14457W        W18857  10.847   5.880  25.370  0.1069  0.1360  0.0695
14458W        W18858  15.341   1.837   5.480 -0.1051 -0.1733  0.0587
14459W        W18859   2.412   3.265  14.872  0.0821 -0.2896  0.0374
14460W        W18860  24.113   2.024  32.380 -0.1761  0.1761 -0.0885
14461W        W18861  18.959   0.407  11.270  0.1907 -0.0723  0.0941
14462W        W18862  17.648   1.617   9.395 -0.0501 -0.1104  0.0378
14463W        W18863   8.830   4.717   6.055  0.0631  0.2179 -0.1949
14464W        W18864  17.051   2.587  15.086  0.1026  0.1124  0.0538
14465W        W18865  25.286   1.691  20.791 -0.2034  0.2663  0.3389
14466W        W18866   5.423   2.642   1.964  0.1143 -0.4776 -0.0007
14467W        W18867  20.568   4.904   7.532 -0.4523  0.1784  0.3122
14468W        W18868   3.594   5.698   5.130 -0.0603  0.1475  0.0549
14469W        W18869  18.790   3.630  32.726 -0.0028 -0.2124  0.1302
14470W        W18870  23.044   2.951  13.747 -0.2241 -0.1303  0.0047
14471W        W18871   6.216   3.507   1.496  0.0873  0.1939 -0.0284
14472W        W18872  22.836   6.500   1.139 -0.2896 -0.0401  0.1011
14473W        W18873  26.034   2.772  25.881 -0.4275 -0.0447 -0.0097
14474W        W18874  16.009   3.084  23.281  0.0025  0.3105 -0.1714
14475W        W18875   1.605   2.810   5.203  0.1035  0.0789 -0.1421
14476W        W18876  22.159   0.347  34.081 -0.0749  0.1447  0.0337
14477W        W18877  13.162   1.328   7.235  0.2453  0.0794 -0.0108
14478W        W18878  11.975   1.496  12.798  0.1094  0.1234  0.1803
14479W        W18879  11.871   4.975  14.229 -0.2497  0.0126 -0.1763
14480W        W18880  25.163   4.252  26.014 -0.1146 -0.2235  0.0713
14481W        W18881  22.942   4.850  10.452 -0.0873 -0.2803  0.2643
14482W        W18882  10.460   5.296   6.763 -0.3583 -0.2023 -0.1144
14483W        W18883  16.042   0.448   3.346 -0.1747 -0.1959  0.1707
14484W        W18884  17.103   3.431  28.694 -0.1972 -0.2607  0.0329
14485W        W18885  14.032   2.304  26.889  0.0718  0.1829  0.0302
14486W        W18886  13.072   4.453   2.833 -0.3898 -0.0328 -0.3166
14487W        W18887   2.885   0.599   0.935  0.0538  0.2235 -0.3281
14488W        W18888  24.282   1.467   3.278  0.0589 -0.4023  0.2648
14489W        W18889   5.230   1.577  33.850 -0.1713  0.2220  0.0462
14490W        W18890  12.712   0.569  31.591 -0.4195  0.0587 -0.0684
14491W        W18891  25.302   3.136  33.587 -0.1039  0.2712  0.1175
14492W        W18892  22.498   0.593  12.161  0.0855  0.0491 -0.2807
14493W        W18893  20.321   0.971  27.804 -0.2553  0.1218 -0.1452
14494W        W18894   9.138   3.870   5.198  0.5398  0.2507  0.1037
14495W        W18895   5.272   2.517  25.163  0.3758  0.2483  0.2142
14496W        W18896  26.359   0.807  11.531  0.1229  0.0268 -0.0471
14497W        W18897   8.100   1.470   0.393 -0.1424 -0.4722  0.4712
14498W        W18898  16.475   5.211  27.350 -0.1615 -0.3514  0.0250
14499W        W18899  21.892   3.446  29.954 -0.2506 -0.0669  0.1159
14500W        W18900  16.104   6.033   4.712 -0.3604 -0.1210 -0.2771
14501W        W18901  25.915   2.754  21.760 -0.0846  0.2979 -0.4153
14502W        W18902   3.658   4.582  33.670  0.1274  0.0119  0.4099
14503W        W18903  22.250   2.307  26.899  0.0388  0.0250 -0.0506
14504W        W18904   1.797   1.996  25.838 -0.1031 -0.1278 -0.0486
14505W        W18905   9.829   6.377  32.304 -0.3951  0.0212  0.1361
14506W        W18906  25.765   4.662  31.339  0.1417 -0.0455 -0.1019
14507W        W18907  26.318   6.496   9.375 -0.1214 -0.1965  0.1016
14508W        W18908  18.494   5.295  20.984  0.0247  0.1486  0.0501
14509W        W18909  21.982   0.977   2.597 -0.1876  0.0750 -0.2725
14510W        W18910  13.713   3.876   0.868  0.0068  0.2663  0.1325
14511W        W18911   3.100   2.396  14.292  0.0185  0.1122 -0.0140
14512W        W18912  14.109   0.293  12.789  0.1238 -0.4572  0.2300
14513W        W18913  24.225   1.548  26.375  0.1397 -0.0530  0.1475
14514W        W18914  15.727   5.122   9.313  0.2428  0.0741 -0.1202
14515W        W18915  13.848   3.266  11.577  0.1326 -0.1919 -0.1055
14516W        W18916  20.602   2.489  23.472  0.1670  0.0075 -0.1262
14517W        W18917   1.365   0.311  21.999 -0.1360  0.2200 -0.3190
14518W        W18918  19.258   6.243  21.921 -0.0687 -0.1162  0.1687
14519W        W18919  10.134   3.390  10.925 -0.0183 -0.0286  0.4432
14520W        W18920  12.797   3.703  34.396  0.0506  0.1177 -0.1840
14521W        W18921  25.385   5.791  22.812  0.1222  0.2752 -0.0126
14522W        W18922  17.121   4.254   8.233 -0.0057 -0.0055  0.0262
14523W        W18923   6.939   0.043  26.954 -0.0586 -0.0293  0.0330
14524W        W18924  20.211   5.518   3.823  0.0818 -0.1142 -0.0403
14525W        W18925  10.147   1.851   2.849 -0.0149 -0.0624  0.1260
14526W        W18926  25.645   2.808  21.009  0.0025  0.0628 -0.0913
14527W        W18927   9.477   4.798  34.123  0.1189 -0.2263  0.2289
14528W        W18928  19.688   0.690  31.482  0.2896 -0.0671  0.1382
14529W        W18929  25.040   2.750  22.534  0.0969 -0.0097 -0.0614
14530W        W18930  24.975   4.193  24.534 -0.1355  0.0949 -0.0171
14531W        W18931  10.357   5.376  29.985 -0.4076 -0.0121  0.0982
14532W        W18932   9.014   2.788  35.551 -0.1951  0.0774 -0.2209
14533W        W18933   5.050   0.017  21.375  0.1831  0.2510 -0.1801
14534W        W18934  22.186   6.380   2.879 -0.0116  0.0995  0.3578
14535W        W18935   1.212   1.539  26.369  0.1591  0.0072  0.2024
14536W        W18936   0.687   2.066   2.980  0.0231  0.0072 -0.1581
14537W        W18937   7.554   6.324  27.004  0.2299  0.2698 -0.6762
14538W        W18938  25.626   3.970   9.238  0.3296  0.3576  0.1294
14539W        W18939   2.913   3.968  25.188 -0.0264  0.1067 -0.2194
14540W        W18940  23.231   4.640  33.289  0.0997  0.2547  0.1422
14541W        W18941  22.070   1.352  21.095 -0.0218  0.0148  0.1325
14542W        W18942  16.369   6.420  31.318  0.3376  0.1761 -0.0425
14543W        W18943  18.975   3.250  25.452 -0.3558  0.1837  0.3795
14544W        W18944  18.773   5.401   5.507 -0.5035 -0.2709 -0.1410
14545W        W18945   9.566   6.154   1.147 -0.0659 -0.1922 -0.1484
14546W        W18946  24.873   2.986   7.750 -0.0190  0.1064  0.0778
14547W        W18947  16.113   2.966  24.881 -0.3147  0.1665  0.1932
14548W        W18948  25.664   1.107  24.695  0.0068 -0.2423 -0.0529
14549W        W18949   3.135   4.803  26.423 -0.0768  0.0885 -0.2361
14550W        W18950  12.303   0.646  34.370 -0.1147 -0.0780 -0.0160
14551W        W18951   6.142   2.484  27.249  0.0222 -0.2752  0.0220
14552W        W18952  13.383   4.197   8.511 -0.0945  0.2689 -0.0454
14553W        W18953   9.252   2.749  33.857  0.1501  0.0187 -0.0611
14554W        W18954  25.591   3.931  10.953  0.1746  0.0488  0.0042
14555W        W18955   9.250   0.394   2.589  0.0810  0.0404  0.2761
14556W        W18956   6.622   4.901  28.487  0.1950  0.0714 -0.1174
14557W        W18957  10.350   1.271  24.168  0.4694 -0.2028 -0.0016
14558W        W18958  11.211   3.512   0.733  0.1178 -0.1199  0.1501
14559W        W18959  13.165   5.349  10.291 -0.1289 -0.3721 -0.3723
14560W        W18960   5.520   0.636  28.786  0.2074 -0.0776 -0.1865
14561W        W18961  18.045   4.409   4.573 -0.1417  0.1124 -0.0675
14562W        W18962  23.494   4.531  30.398 -0.0905 -0.0449 -0.2051
14563W        W18963  11.304   5.832   8.215 -0.0578  0.1354  0.3677
14564W        W18964   1.633   2.581  31.496  0.1628 -0.0181  0.0321
14565W        W18965   8.975   3.080  34.737  0.1938  0.2436  0.0554
14566W        W18966  25.528   2.822  34.651 -0.1209  0.1998  0.1870
14567W        W18967   1.191   2.363   1.280  0.0943 -0.0796  0.0625
14568W        W18968  20.790   0.238  35.499  0.0551  0.0046 -0.1949
14569W        W18969   9.496   4.625  26.662 -0.1137 -0.1138 -0.0475
14570W        W18970  18.781   4.919   5.780 -0.2031 -0.0169  0.0761
14571W        W18971  11.727   4.861  31.694  0.0135 -0.2024  0.0388
14572W        W18972  11.196   1.852  32.081  0.0843 -0.2079  0.0022
14573W        W18973  26.276   3.015  12.144 -0.3647  0.0293  0.1782
14574W        W18974  17.503   0.017   9.608 -0.1202  0.0064 -0.1664
14575W        W18975  16.136   1.536  15.756  0.1945  0.1688 -0.1182
14576W        W18976  23.809   1.148  14.268  0.2688 -0.2052 -0.0615
14577W        W18977  15.276   2.347  32.369 -0.0793 -0.2676 -0.1372
14578W        W18978  16.417   4.983   1.742 -0.0875  0.0172 -0.0260
14579W        W18979   0.465   2.143   8.774  0.0656 -0.0365  0.0097
14580W        W18980  19.731   2.831  22.463  0.0991  0.0559  0.3146
14581W        W18981  15.502   5.625  12.171 -0.0338 -0.2250 -0.0310
14582W        W18982  16.233   0.912  34.090 -0.1045 -0.1356  0.0430
14583W        W18983  20.728   2.576  27.907 -0.2715  0.0110 -0.3444
14584W        W18984   5.130   0.430   9.135 -0.1329  0.0020 -0.0119
14585W        W18985  18.766   4.301  22.481 -0.1706  0.1350  0.0158
14586W        W18986  23.999   4.403  30.670  0.0606 -0.2657  0.0869
14587W        W18987   7.777   4.279  32.132 -0.3715  0.2031  0.1650
14588W        W18988  23.034   0.944  25.652  0.0868 -0.0647  0.2026
14589W        W18989   7.895   6.596   2.311 -0.3140 -0.2804 -0.0749
14590W        W18990  14.627   1.378  34.879  0.2917  0.0444  0.0154
14591W        W18991  11.271   5.586   1.653 -0.1966 -0.0737 -0.1713
14592W        W18992   8.504   3.501  34.281  0.0054 -0.2092  0.1164
14593W        W18993   4.633   6.302   5.258  0.0193 -0.0926 -0.0193
14594W        W18994  17.329   0.348   3.976 -0.0625  0.0295  0.2562
14595W        W18995   4.619   0.415   9.065 -0.0867  0.2964  0.2953
14596W        W18996  10.558   0.216   2.692 -0.2757 -0.0435 -0.0044
14597W        W18997   1.930   4.996  27.908  0.0720  0.0821 -0.1409
14598W        W18998  16.078   4.244   9.089  0.2245 -0.0406  0.2196
14599W        W18999  15.346   5.356   5.901 -0.0201  0.0267  0.0130
14600W        W19000  13.619   4.866   9.246  0.1381  0.1110  0.1021
14601W        W19001   4.966   4.016  29.571  0.4191  0.1251  0.1415
14602W        W19002   4.319   0.659  21.245 -0.2550 -0.1521  0.2101
14603W        W19003  26.405   4.173  34.109 -0.1304 -0.1015  0.0223
14604W        W19004   0.231   0.711   8.983 -0.0416 -0.0535  0.0116
14605W        W19005   2.784   5.496  14.862 -0.1355  0.1938 -0.0870
14606W        W19006   9.138   3.474   0.028  0.1339  0.2665 -0.1192
14607W        W19007   1.431   2.445  11.284  0.0874 -0.2037 -0.1026
14608W        W19008   4.170   0.495  21.668 -0.2116  0.1893 -0.1592
14609W        W19009   2.643   0.165  32.525 -0.3772 -0.0910  0.1817
14610W        W19010  24.354   2.217  23.369 -0.2437 -0.3124  0.3252
14611W        W19011   8.726   5.002  29.750  0.0014 -0.0565  0.0389
14612W        W19012  24.641   2.201   2.873 -0.1503  0.2249  0.1912
14613W        W19013   5.477   5.299  26.056  0.1007 -0.1373  0.2777
14614W        W19014   4.703   3.620   4.820 -0.1970  0.2411 -0.1487
14615W        W19015  14.396   0.102  10.247  0.1905 -0.0036  0.2105
14616W        W19016  26.378   6.333   8.404  0.0871 -0.0215  0.1751
14617W        W19017  12.827   4.489  35.414 -0.1911 -0.1026  0.1724
14618W        W19018  11.957   5.788  14.858  0.2762 -0.0890 -0.0306
14619W        W19019  15.294   1.836  13.790  0.2028 -0.0093  0.0774
14620W        W19020  12.850   3.285  28.386 -0.2094 -0.0914 -0.2138
14621W        W19021  25.887   5.967  27.798 -0.2024  0.0594 -0.0263
14622W        W19022   0.497   3.962   2.559  0.1920 -0.0850  0.1024
14623W        W19023  15.987   4.039   5.130 -0.1884 -0.0163 -0.3808
14624W        W19024  22.257   4.596  11.597 -0.3647  0.1455 -0.1583
14625W        W19025  22.004   3.053   7.696 -0.0278 -0.0149 -0.2177
14626W        W19026  25.103   2.731   9.670  0.0213 -0.5177 -0.0893
14627W        W19027  13.367   1.183  35.308  0.1929  0.0088  0.0068
14628W        W19028   5.438   1.884   9.026 -0.0345  0.0807 -0.1466
14629W        W19029   2.496   6.602  22.932  0.1229 -0.2043  0.3739
14630W        W19030  10.196   4.785   1.437  0.0866 -0.1461  0.1162
14631W        W19031   5.946   2.251  31.864 -0.0145 -0.1165  0.0212
14632W        W19032  17.751   5.698  31.246  0.1371 -0.2476 -0.0258
14633W        W19033   6.247   5.027   0.192  0.1820  0.1103 -0.1302
14634W        W19034   6.474   2.679   9.235 -0.2106 -0.0026  0.1107
14635W        W19035  19.973   4.250  29.932 -0.2553 -0.2478  0.1820
14636W        W19036  25.633   3.085   2.490  0.0309  0.0153 -0.2884
14637W        W19037  10.586   4.805  12.585  0.2804 -0.2332 -0.0218
14638W        W19038   9.817   6.536  22.073 -0.3222 -0.1176 -0.2098
14639W        W19039   7.391   0.276  31.421  0.1034 -0.0746  0.1260
14640W        W19040  25.578   3.584   8.668  0.0442  0.0192 -0.0280
14641W        W19041  12.099   1.313   8.262  0.3261  0.1167 -0.1023
14642W        W19042   9.455   1.423   2.012  0.0556  0.1737 -0.1471
14643W        W19043  24.431   3.288   6.472  0.3050 -0.1235 -0.3380
14644W        W19044   5.194   1.249  23.170  0.1439  0.0665 -0.0952
14645W        W19045  22.598   3.324  31.344  0.1010 -0.3294  0.1494
14646W        W19046  25.521   1.477  34.496 -0.3500 -0.1464 -0.1348
14647W        W19047   0.596   3.616  26.779  0.1969 -0.1073 -0.2721
14648W        W19048  16.623   4.650  28.975 -0.1387 -0.2216  0.1225
14649W        W19049   4.699   4.617  30.151  0.1012 -0.0052 -0.0911
14650W        W19050  14.138   3.967  10.625  0.0690 -0.0402  0.0739
14651W        W19051  17.185   1.695  14.968  0.1248 -0.1409 -0.1972
14652W        W19052  25.541   2.611  22.031 -0.1752  0.4663 -0.1659
14653W        W19053  12.727   5.953  13.298 -0.1657 -0.3098 -0.2559
14654W        W19054   7.396   6.257  10.075 -0.1995  0.1304  0.0766
14655W        W19055  19.008   0.283  31.850 -0.0534  0.1000 -0.0695
14656W        W19056  17.838   0.765   9.874 -0.2075  0.0086 -0.1485
14657W        W19057   0.227   1.310  14.890 -0.2109  0.0400 -0.1575
14658W        W19058  15.348   2.796  35.393 -0.1319 -0.2849 -0.1125
14659W        W19059   3.659   1.510  22.661  0.2600  0.0190 -0.2044
14660W        W19060  12.477   0.948   6.817 -0.1000  0.0034  0.2811
14661W        W19061   8.674   1.502  35.734  0.1742 -0.1305  0.1250
14662W        W19062  14.844   6.411   0.013 -0.3839 -0.3307 -0.2463
14663W        W19063   5.074   4.669   0.851 -0.0892  0.0560 -0.0067
14664W        W19064  14.247   0.683   5.618 -0.2731 -0.0704 -0.0274
14665W        W19065  19.915   6.600  13.945  0.1280 -0.0421  0.0900
14666W        W19066  24.398   5.125   1.957 -0.0981 -0.1723  0.2934
14667W        W19067  25.061   4.710  25.298  0.2382 -0.3271 -0.0094
14668W        W19068  18.070   1.220  25.162 -0.0466  0.1491 -0.0725
14669W        W19069  16.016   3.334  24.441  0.0070  0.2226  0.1080
14670W        W19070   1.005   5.866   2.185 -0.0580  0.1739 -0.2945
14671W        W19071  24.171   4.312  35.569 -0.1810  0.1882  0.0570
14672W        W19072   9.554   4.956  33.636 -0.0561 -0.1182  0.0481
14673W        W19073  20.532   6.228  34.779 -0.1671 -0.1198 -0.3055
14674W        W19074  11.089   0.715   5.845 -0.0052 -0.0141  0.0521
14675W        W19075  20.395   3.056   1.337  0.0315  0.4256  0.0451
14676W        W19076  17.644   3.535  12.761 -0.1484  0.1668 -0.0339
14677W        W19077   4.191   6.002  34.556  0.0450  0.0725 -0.0053
14678W        W19078   5.314   2.517  31.751 -0.0348  0.1545  0.0077
14679W        W19079  11.817   4.087  31.794 -0.0970 -0.4460  0.2525
14680W        W19080   3.189   5.374  30.315 -0.3480 -0.0545  0.1002
14681W        W19081   3.934   1.691  33.354 -0.0683  0.0001 -0.2018
14682W        W19082  15.983   3.261   0.526 -0.0463  0.0926  0.1076
14683W        W19083   2.341   5.500  22.850  0.2260  0.2007  0.4306
14684W        W19084   6.497   0.407   6.630 -0.1131 -0.1405 -0.0119
14685W        W19085   5.169   6.538  33.985 -0.0945  0.0669 -0.0385
14686W        W19086  22.126   4.494  32.740 -0.2479  0.1540 -0.0430
14687W        W19087  23.754   5.442  30.340 -0.0001 -0.1203 -0.0701
14688W        W19088  13.250   1.895  29.780 -0.1033 -0.0256 -0.0700
14689W        W19089  26.135   2.481  28.071 -0.0456 -0.0645 -0.0955
14690W        W19090  17.642   3.123  20.943  0.0429 -0.2292 -0.0152
14691W        W19091  16.050   2.688  14.323  0.3252  0.1246  0.2107
14692W        W19092  13.761   3.523  10.193 -0.0517  0.0556 -0.0271
14693W        W19093   9.322   6.046  10.439 -0.1758 -0.1953  0.2698
14694W        W19094  14.720   5.654  34.800  0.2231 -0.2237 -0.3108
14695W        W19095  18.291   4.601  11.663 -0.1038 -0.1565  0.0834
14696W        W19096   4.899   2.259  24.204  0.2905 -0.1208  0.0781
14697W        W19097   9.762   5.296   6.273 -0.2187  0.2354 -0.0102
14698W        W19098  15.659   3.683   8.352  0.0385 -0.1166 -0.1316
14699W        W19099  16.954   2.509  32.627  0.2110  0.2831 -0.0535
14700W        W19100  25.170   4.012   4.655 -0.1057 -0.2079  0.0465
14701W        W19101   6.368   1.246  29.798  0.0756 -0.1773  0.0380
14702W        W19102   2.147   2.299  29.580  0.1023 -0.2135 -0.0106
14703W        W19103  11.183   3.249  22.090  0.2377  0.1919  0.2121
14704W        W19104   6.245   0.451  10.186  0.0515 -0.1944  0.1509
14705W        W19105  24.912   0.210   0.392 -0.0686  0.3053  0.3056
14706W        W19106   4.031   2.899  13.572 -0.3046 -0.0537  0.0685
14707W        W19107   5.986   3.572   9.911 -0.0940  0.1251 -0.4341
14708W        W19108  11.618   2.352  13.912 -0.0007 -0.1246  0.1284
14709W        W19109  14.887   2.333  20.978 -0.1300  0.0889  0.1461
14710W        W19110  21.495   4.054  25.531 -0.1279 -0.0378 -0.2683
14711W        W19111  17.072   3.598  25.118 -0.0117  0.1841  0.0812
14712W        W19112  11.196   6.423  10.648 -0.1716  0.1974 -0.2421
14713W        W19113   5.388   0.127  10.575  0.0794 -0.1957 -0.1960
14714W        W19114   6.498   4.086  35.144  0.1228 -0.1269 -0.1406
14715W        W19115   0.354   5.650   3.554  0.2706 -0.2146  0.3913
14716W        W19116  17.177   5.392  11.197 -0.2146 -0.1456 -0.0168
14717W        W19117   4.241   2.110  34.558 -0.0375  0.0137  0.2234
14718W        W19118  15.013   6.250  32.038 -0.0450 -0.2713 -0.1711
14719W        W19119  25.711   2.581  10.745  0.1519  0.3312 -0.1292
14720W        W19120   2.962   1.222  29.705  0.1138  0.0645 -0.0597
14721W        W19121  16.202   5.257   0.913 -0.0088  0.0892  0.2108
14722W        W19122  21.603   4.078  14.458 -0.1130  0.3009  0.3365
14723W        W19123  20.187   4.799  26.776 -0.0283 -0.0090  0.0935
14724W        W19124   4.763   3.652  10.361 -0.0166  0.1658  0.1110
14725W        W19125  19.015   1.040  27.312 -0.2305 -0.0488  0.0745
14726W        W19126  20.844   1.458   4.990 -0.0097 -0.1579 -0.1242
14727W        W19127  12.277   3.365   7.680 -0.1704 -0.1144  0.0084
14728W        W19128   5.524   1.146  10.331 -0.0458 -0.0717  0.2932
14729W        W19129  21.636   2.837   0.967 -0.3966  0.1004  0.1035
14730W        W19130  22.035   0.553   8.180  0.1371  0.0513 -0.1807
14731W        W19131  22.871   6.480  30.804  0.0040  0.4335  0.0176
14732W        W19132   4.230   5.625   0.938  0.0054 -0.0052 -0.0602
14733W        W19133  16.041   1.776   9.516  0.1816  0.2749  0.0847
14734W        W19134  23.199   4.744  26.687 -0.1301 -0.1508 -0.0687
14735W        W19135   7.521   0.784  29.243  0.2910 -0.5904  0.3648
14736W        W19136  21.783   1.495   3.216 -0.1346  0.3343  0.1313
14737W        W19137  19.628   1.460  23.119 -0.0765  0.3092  0.3762
14738W        W19138  10.548   6.046  21.358  0.1240 -0.2233 -0.0910
14739W        W19139  12.739   0.552   1.468  0.1040  0.4796  0.1024
14740W        W19140  23.013   5.839   2.840 -0.1298  0.2087  0.1247
14741W        W19141  17.672   4.867  24.331  0.1398  0.0199 -0.0706
14742W        W19142  16.405   2.349  11.510  0.0238  0.0141 -0.0519
14743W        W19143  19.038   6.381  28.995 -0.1047 -0.1816  0.2915
14744W        W19144  25.426   4.962  13.008  0.1236  0.0370 -0.2965
14745W        W19145   1.790   4.476  13.572 -0.3676 -0.0585 -0.2977
14746W        W19146  20.333   0.703  14.952 -0.1218  0.0007 -0.1462
14747W        W19147   2.180   3.224  13.311  0.2327  0.0731  0.2060
14748W        W19148  25.340   2.954  29.561 -0.1370 -0.1262  0.0713
14749W        W19149  19.336   5.601  30.294  0.0177 -0.2695  0.0731
14750W        W19150   3.846   2.988  12.110  0.4763 -0.0785 -0.2171
14751W        W19151   2.329   5.515  31.574 -0.4468  0.1953 -0.1409
14752W        W19152   9.606   0.967  26.235 -0.0154  0.1643 -0.2313
14753W        W19153   3.805   2.139  32.360 -0.0288 -0.0968 -0.0845
14754W        W19154   9.498   2.014   4.663 -0.1990 -0.2168  0.0612
14755W        W19155   4.144   3.576  15.236  0.1911  0.1955 -0.0917
14756W        W19156  11.021   3.891   6.336 -0.1039  0.1012 -0.0957
14757W        W19157  21.190   3.372  29.144  0.0207 -0.0828 -0.0048
14758W        W19158  16.815   6.027   1.097 -0.0442  0.0552 -0.0361
14759W        W19159  24.099   1.917   8.781 -0.3348  0.1660 -0.2471
14760W        W19160  19.973   2.240   5.813 -0.0333 -0.0439 -0.2241
14761W        W19161  24.890   3.388  23.615  0.2896 -0.1445  0.1373
14762W        W19162   8.967   6.303  22.431  0.2035  0.2248  0.1206
14763W        W19163   9.521   5.148  35.660  0.1195  0.0516 -0.0295
14764W        W19164  19.692   4.131  32.072  0.0210 -0.2207 -0.2916
14765W        W19165  14.722   6.391  10.884  0.1038 -0.0525  0.0092
14766W        W19166   7.873   4.020   2.305 -0.0773  0.1835 -0.0092
14767W        W19167  12.520   0.705  14.109  0.1609  0.2319  0.0721
14768W        W19168   3.799   0.336   7.594 -0.0748 -0.0516 -0.0646
14769W        W19169  22.562   2.520  31.478  0.1457  0.0381 -0.1562
14770W        W19170  13.643   0.521  14.566  0.0588 -0.3776  0.1095
14771W        W19171   3.101   0.901   6.696  0.0704  0.1456  0.3333
14772W        W19172  20.855   3.357  25.955 -0.0100  0.0712 -0.2097
14773W        W19173  13.816   3.224  34.009  0.0310  0.3640 -0.3055
14774W        W19174  20.154   3.607  14.403  0.2789  0.2219  0.0995
14775W        W19175   2.479   0.479  12.905 -0.2353  0.0525  0.2361
14776W        W19176   6.180   4.074  10.087  0.1834  0.0164 -0.2583
14777W        W19177  16.266   3.997  33.514 -0.1681 -0.4081 -0.4284
14778W        W19178  23.036   5.833  32.220 -0.2132  0.1719 -0.0055
14779W        W19179  23.714   2.957  23.656 -0.1588 -0.0684 -0.0105
14780W        W19180  22.060   4.449   3.907 -0.1818 -0.2728  0.1621
14781W        W19181  22.084   5.779  28.739 -0.0517 -0.1245  0.2779
14782W        W19182   8.792   0.886   9.298 -0.1099  0.0678 -0.2084
14783W        W19183   3.759   4.502   5.942 -0.1630 -0.1723  0.4199
14784W        W19184  22.546   1.295  12.884  0.0618  0.1817 -0.0448
14785W        W19185  24.975   2.067   6.189  0.0502 -0.1512  0.5363
14786W        W19186  22.482   5.994   4.583  0.1338  0.0582 -0.1075
14787W        W19187  24.080   3.917  30.458  0.1398  0.2063 -0.0024
14788W        W19188  25.262   4.261   6.938  0.1292 -0.1510  0.1441
14789W        W19189  10.963   3.297  30.126  0.3889 -0.1629 -0.1543
14790W        W19190  11.162   2.813   0.749 -0.3338  0.2972 -0.3141
14791W        W19191  19.585   6.025   7.114  0.1225  0.0681 -0.0147
14792W        W19192  20.476   3.483  22.302 -0.0471 -0.1828  0.2285
14793W        W19193  14.689   1.301   4.093  0.0320 -0.0655 -0.0503
14794W        W19194  19.801   0.029  11.912  0.2183 -0.1587 -0.5447
14795W        W19195  12.302   5.299  34.902  0.2182 -0.0141 -0.0536
14796W        W19196  12.141   1.120  10.691 -0.2379  0.1218  0.2644
14797W        W19197   2.467   2.241   8.728 -0.3078  0.0784 -0.0854
14798W        W19198  11.410   2.007  11.297 -0.0731 -0.2244  0.0860
14799W        W19199   2.993   0.922   1.334 -0.1670 -0.1646  0.1346
14800W        W19200  22.373   3.137   0.447  0.3737  0.1776 -0.1430
14801W        W19201   6.822   6.203  24.001  0.0432  0.0198  0.1147
14802W        W19202   6.851   5.200  30.808  0.2617  0.1103 -0.2455
14803W        W19203  26.181   0.463  20.706 -0.1564  0.1244 -0.1614
14804W        W19204   3.249   0.574  24.827  0.2730 -0.1218  0.0597
14805W        W19205   4.807   3.783  29.105 -0.0999 -0.1010 -0.0173
14806W        W19206  18.539   1.869  29.193  0.0881  0.2735 -0.2788
14807W        W19207  10.746   4.382   6.625  0.2058 -0.1968 -0.1453
14808W        W19208  19.025   2.875   8.183 -0.1318  0.1644  0.0490
14809W        W19209   3.973   2.754   6.223  0.1026 -0.3342  0.0236
14810W        W19210  11.487   3.269  14.804  0.1405  0.1940 -0.0094
14811W        W19211   5.188   3.352  25.227 -0.1519 -0.3472  0.0613
14812W        W19212  10.495   1.768  24.494 -0.1622 -0.0361  0.1756
14813W        W19213  11.972   2.866  12.649 -0.0660  0.1490 -0.0001
14814W        W19214  15.546   0.442  23.153 -0.1252 -0.2006 -0.2684
14815W        W19215  13.287   1.379  21.754  0.1572  0.0790 -0.0544
14816W        W19216  15.111   0.265   4.128  0.1626  0.0450 -0.1932
14817W        W19217  23.001   3.170  28.484 -0.1406  0.0546 -0.0477
14818W        W19218   6.604   4.079  12.497 -0.2625  0.1795  0.0633
14819W        W19219   1.458   5.961  27.643  0.1180 -0.0222 -0.1302
14820W        W19220   5.285   3.849  27.806 -0.0301  0.2470 -0.1618
14821W        W19221  14.046   1.827  31.975 -0.0010 -0.1469 -0.0291
14822W        W19222   9.373   4.458   7.518  0.0655  0.1337 -0.0508
14823W        W19223   9.419   0.505  10.500 -0.0629  0.1449 -0.4314
14824W        W19224  17.843   2.507  35.389  0.1732 -0.1396  0.0677
14825W        W19225  21.990   3.034  35.298  0.0911  0.0805  0.1304
14826W        W19226  23.757   2.150  14.530  0.0294 -0.1958 -0.1747
14827W        W19227  21.205   3.342  23.191  0.0430  0.2114  0.1176
14828W        W19228  18.394   1.334   9.989  0.2812  0.0357 -0.1275
14829W        W19229   6.531   2.120  15.920 -0.0514  0.0814 -0.2539
14830W        W19230  10.990   2.064  32.561 -0.3626 -0.0014 -0.0858
14831W        W19231   2.251   1.803  29.571 -0.1943  0.1123 -0.1200
14832W        W19232  18.059   0.921  30.753  0.0086  0.1888  0.0799
14833W        W19233  14.243   6.503  24.413 -0.0387  0.0005 -0.3111
14834W        W19234  22.288   4.271  34.727  0.0566  0.0038  0.2785
14835W        W19235  20.308   2.937   5.010  0.1101  0.0384  0.0654
14836W        W19236  13.515   2.220   2.187  0.1145 -0.1279 -0.1002
14837W        W19237   0.431   4.259   4.513 -0.2705  0.0745 -0.1517
14838W        W19238  20.465   3.129   7.131 -0.3671  0.3489  0.0704
14839W        W19239  19.343   1.109  35.856  0.1450  0.2826  0.0731
14840W        W19240  22.711   1.172  26.429 -0.1281 -0.0911 -0.0256
14841W        W19241  26.220   3.140   0.419 -0.4620 -0.2096  0.0697
14842W        W19242  10.719   3.121  14.475  0.1792  0.1942 -0.2241
14843W        W19243   3.373   3.459  33.510  0.3539 -0.1974 -0.0926
14844W        W19244  15.895   3.213  22.037 -0.1871 -0.3768  0.2403
14845W        W19245   5.920   4.040   9.007  0.0047 -0.1061  0.0327
14846W        W19246  22.946   2.820  25.693  0.2257 -0.4094  0.0999
14847W        W19247   4.668   4.479  23.290 -0.2482 -0.2693 -0.0888
14848W        W19248   2.425   2.028   1.348 -0.0610  0.2657  0.0438
14849W        W19249  11.319   5.704  21.898 -0.0993  0.1302 -0.5110
14850W        W19250  23.415   3.767  23.341 -0.1813  0.0047  0.2880
14851W        W19251  24.195   0.668  27.073  0.0683  0.1359  0.0293
14852W        W19252  18.822   3.029  26.339 -0.0966  0.2301  0.1193
14853W        W19253   2.115   2.189  32.722  0.1880 -0.0262  0.2983
14854W        W19254   9.053   3.840   8.647 -0.2828  0.0616  0.0799
14855W        W19255  18.312   5.412   8.292 -0.2005 -0.3382  0.0285
14856W        W19256  23.022   3.178  33.580 -0.0037  0.2879 -0.1075
14857W        W19257  21.636   4.255   7.694 -0.2504  0.1661  0.6237
14858W        W19258  26.092   4.558  13.663  0.0454  0.0027  0.1463
14859W        W19259   2.123   4.965  32.209 -0.0661 -0.0581 -0.0858
14860W        W19260  13.715   0.832   9.709 -0.1248 -0.1257  0.4983
14861W        W19261   9.605   3.907   0.144 -0.1013  0.1657 -0.4750
14862W        W19262  14.847   5.910   8.901 -0.5820 -0.1963 -0.1426
14863W        W19263   6.554   5.458  25.886  0.1142 -0.0348 -0.0104
14864W        W19264  21.814   5.818  34.519  0.0232  0.1321  0.2982
14865W        W19265  15.761   1.932  26.546  0.2057  0.1103 -0.4936
14866W        W19266  14.381   4.531   0.074 -0.0751  0.0738  0.0984
14867W        W19267   2.880   6.005  35.998 -0.3322 -0.0666 -0.0578
14868W        W19268  24.383   3.121  22.088 -0.0435 -0.0212  0.1291
14869W        W19269   2.042   2.599   3.167  0.1446  0.2115  0.1470
14870W        W19270   7.754   1.956   5.208 -0.1865  0.0871 -0.0851
14871W        W19271  22.882   0.541  12.890 -0.1943 -0.1131 -0.1537
14872W        W19272  21.157   3.523  35.502 -0.0173  0.0617 -0.1087
14873W        W19273   3.850   5.483   4.160 -0.2222 -0.0036  0.0461
14874W        W19274  16.472   1.874  25.688  0.1414 -0.0006 -0.0668
14875W        W19275   9.667   5.077  14.082 -0.2334 -0.1038  0.1827
14876W        W19276  15.471   4.493  31.297  0.0109  0.3663  0.1682
14877W        W19277  24.128   0.797  14.449 -0.1187  0.1200  0.3440
14878W        W19278  25.737   2.250  28.303 -0.0294  0.2043  0.0693
14879W        W19279   0.213   6.209   4.923 -0.1359 -0.2649  0.4108
14880W        W19280  15.646   1.457  34.584  0.0785  0.1822 -0.0081
14881W        W19281  17.082   1.350   4.635 -0.2187 -0.0750  0.2496
14882W        W19282   6.068   2.816  33.428  0.1872 -0.0922 -0.3679
14883W        W19283  14.866   4.355  10.036 -0.0816 -0.3127 -0.0530
14884W        W19284   3.491   5.746  25.962  0.1634  0.1503  0.0015
14885W        W19285  26.205   4.285   1.071  0.1467  0.1218 -0.4012
14886W        W19286   5.967   1.922   9.232 -0.1911  0.0782 -0.2493
14887W        W19287   2.480   0.190   3.799  0.0059  0.1211  0.0446
14888W        W19288  13.925   4.791  10.168  0.2441 -0.0500 -0.3868
14889W        W19289  10.639   5.208   0.359  0.2955 -0.2381 -0.1067
14890W        W19290  12.599   1.084  28.132  0.1996 -0.0797  0.0413
14891W        W19291   7.116   4.694  31.723 -0.0887  0.0597  0.1427
14892W        W19292  18.392   2.810  11.574  0.0084 -0.0687 -0.0512
14893W        W19293   1.914   5.456   1.495  0.1233  0.1735  0.0281
14894W        W19294  16.391   2.706  31.588  0.1633  0.2742  0.1052
14895W        W19295  17.752   6.558  30.496 -0.2251 -0.1662  0.0333
14896W        W19296   4.775   6.452   8.424  0.0357  0.0777  0.1132
14897W        W19297   3.493   0.062  25.981  0.1001 -0.2637  0.1565
14898W        W19298  13.977   0.468   3.159 -0.0669 -0.1464 -0.1469
14899W        W19299  20.791   3.911  15.057  0.3891  0.0916  0.1046
14900W        W19300   4.809   2.463  29.863  0.3931  0.1617  0.1353
14901W        W19301  25.242   4.213  34.669 -0.3502 -0.2758  0.2925
14902W        W19302  18.895   6.537  23.709 -0.3137  0.1465  0.2199
14903W        W19303   7.334   5.542  10.949  0.0402 -0.1047 -0.1735
14904W        W19304  19.786   5.435   7.746  0.1366  0.0511 -0.2057
14905W        W19305  15.846   2.581  12.134  0.3264  0.1344 -0.2241
14906W        W19306   9.885   2.348  27.495  0.3422 -0.0752  0.1351
14907W        W19307   0.016   5.596   6.997  0.0125 -0.2311 -0.1780
14908W        W19308  11.895   2.169  13.458  0.0330  0.3048 -0.0680
14909W        W19309   9.197   1.649  10.426 -0.0549  0.0075 -0.1437
14910W        W19310  13.365   4.232  28.930 -0.1686  0.2255 -0.1847
14911W        W19311  11.475   0.267   0.492 -0.0382 -0.0394  0.2790
14912W        W19312   1.449   5.802   5.052 -0.2158  0.1906 -0.1514
14913W        W19313  18.646   0.582   0.969  0.2624 -0.2727  0.1467
14914W        W19314  16.796   5.548  22.344  0.0220 -0.1518 -0.3267
14915W        W19315  23.002   1.115   3.766 -0.0308  0.0689 -0.0750
14916W        W19316  17.740   4.769   2.310  0.0175 -0.0121  0.0868
14917W        W19317  25.889   1.255  14.049 -0.1249 -0.1363  0.0924
14918W        W19318  15.933   3.532  31.579  0.0100 -0.0147  0.0764
14919W        W19319   1.564   1.854  26.251  0.0963 -0.0612  0.2057
14920W        W19320  10.412   3.366   5.383 -0.0357  0.1828  0.1656
14921W        W19321   0.017   0.150  34.412  0.0891  0.1745  0.1516
14922W        W19322  16.544   3.043   7.749  0.2059  0.2310  0.2369
14923W        W19323  16.591   2.826  26.686  0.1445  0.1080  0.0153
14924W        W19324  25.382   1.239  29.871 -0.0448 -0.0863 -0.0196
14925W        W19325  14.169   6.319  26.483 -0.0285 -0.0559  0.1297
14926W        W19326  11.033   4.896   2.802  0.0015  0.0607  0.1259
14927W        W19327  24.421   0.645   0.593  0.0492  0.2273  0.0274
14928W        W19328   5.075   0.100  29.440  0.0025  0.0610  0.1636
14929W        W19329   5.826   0.810   8.485 -0.1228  0.1699 -0.0245
14930W        W19330  17.270   3.688  33.745  0.2491 -0.1547 -0.1804
14931W        W19331  20.609   4.075  26.663 -0.0497  0.3445  0.2615
14932W        W19332  12.572   4.555  33.801  0.2341  0.2508  0.0386
14933W        W19333  12.061   6.514  13.464 -0.0174  0.0784 -0.0428
14934W        W19334  10.027   1.604  12.372  0.0810  0.1277 -0.1173
14935W        W19335   7.193   1.213  34.523 -0.0813  0.1493  0.1238
14936W        W19336   1.276   1.070   8.046  0.1489 -0.1857 -0.0400
14937W        W19337   9.543   5.739  31.449 -0.0637  0.1279 -0.1076
14938W        W19338   1.499   5.472  22.089 -0.0941  0.1777 -0.0424
14939W        W19339   2.132   2.570   9.934  0.0452  0.1444 -0.0392
14940W        W19340  16.534   6.394  29.421  0.3294  0.1907 -0.1080
14941W        W19341  16.716   2.035  29.547 -0.2094 -0.0745  0.1789
14942W        W19342   8.944   6.036  25.191  0.1074 -0.2223  0.1825
14943W        W19343  17.529   3.169  12.439 -0.1458  0.1086 -0.1032
14944W        W19344   0.761   0.182   4.284  0.1647 -0.0389 -0.3863
14945W        W19345   1.965   4.963  28.760 -0.0522  0.1701  0.0644
14946W        W19346  26.056   2.799  11.736  0.3158 -0.0549  0.0499
14947W        W19347  25.330   0.918  13.328  0.1260 -0.2456  0.1711
14948W        W19348  16.655   2.150   0.471 -0.1813 -0.2171  0.1730
14949W        W19349  21.172   4.154   0.168 -0.2277  0.1355 -0.1156
14950W        W19350  22.070   5.407   5.858  0.1675  0.0079 -0.0097
14951W        W19351  10.038   6.025   9.839  0.1598  0.0226 -0.0252
14952W        W19352  22.857   1.604  32.956  0.0429  0.5597 -0.0601
14953W        W19353   9.591   2.732  31.137  0.1607  0.1964 -0.1831
14954W        W19354   4.795   1.203  32.122 -0.2304 -0.0667 -0.1203
14955W        W19355  26.030   1.441  26.296  0.0882  0.0104  0.0203
14956W        W19356   9.126   2.671   7.309 -0.0847 -0.1589  0.3445
14957W        W19357  15.087   5.788   6.164 -0.1046 -0.2473 -0.3712
14958W        W19358   2.442   2.481   2.802  0.1536  0.0961 -0.2053
14959W        W19359  19.180   3.460  31.047 -0.1141  0.0575 -0.0375
14960W        W19360  22.135   1.058  30.703 -0.1462  0.0643  0.3737
14961W        W19361   6.267   0.508  14.677  0.3672 -0.1662 -0.0181
14962W        W19362   8.406   1.014  33.468  0.2892 -0.3288  0.3105
14963W        W19363   5.989   1.316  12.170 -0.0130 -0.1402  0.1666
14964W        W19364   2.736   3.276  27.094 -0.3941  0.5199 -0.0546
14965W        W19365   0.784   3.658   1.760 -0.0835 -0.2142 -0.0121
14966W        W19366   9.565   4.912   2.117 -0.0144  0.1446  0.3003
14967W        W19367  21.403   3.282   0.714 -0.2009 -0.0316 -0.1780
14968W        W19368  14.106   0.134  23.757  0.0756 -0.1182 -0.0786
14969W        W19369   6.937   0.703   7.304  0.0974  0.1034 -0.2570
14970W        W19370  26.176   2.600  20.380 -0.3239  0.0568  0.1523
14971W        W19371  22.384   3.013  35.571 -0.1359 -0.1171 -0.2342
14972W        W19372   6.932   1.135  22.933 -0.1326 -0.0674  0.2712
14973W        W19373  10.041   4.798  29.525  0.0822  0.0444 -0.1795
14974W        W19374  13.177   1.691  24.971  0.0037 -0.1684 -0.0452
14975W        W19375  19.894   3.781  33.126  0.0026 -0.1076 -0.0284
14976W        W19376  18.699   4.438   3.954  0.1433  0.1291 -0.0645
14977W        W19377  25.578   6.210  24.933  0.0782  0.1519 -0.1748
14978W        W19378  18.468   5.500  31.796 -0.1624  0.3487  0.0150
14979W        W19379   0.892   3.922  35.853 -0.2658 -0.0616 -0.1130
14980W        W19380   8.062   3.928  27.643 -0.0189  0.1980  0.3463
14981W        W19381   6.270   4.469  31.206  0.2592  0.0444 -0.1867
14982W        W19382  20.524   3.755  22.786  0.0631  0.0502  0.1659
14983W        W19383  23.010   3.378  33.084  0.0334 -0.1566 -0.0555
14984W        W19384  17.966   3.694   2.231 -0.2128 -0.0024 -0.0456
14985W        W19385   0.683   3.817  26.300 -0.2703  0.0097  0.1622
14986W        W19386  16.292   1.627  12.617 -0.0573  0.0996 -0.0209
14987W        W19387   9.667   0.622   0.545  0.1251 -0.4586 -0.0782
14988W        W19388   0.489   4.634  29.510 -0.2924  0.0702  0.1200
14989W        W19389   3.565   0.900   2.523 -0.0857 -0.0649  0.2837
14990W        W19390   8.581   4.819  14.663 -0.2212  0.0935  0.1222
14991W        W19391  11.263   4.225  22.561  0.2977 -0.1720  0.0810
14992W        W19392  24.762   6.540  21.103 -0.3615 -0.0743 -0.2424
14993W        W19393  11.840   1.753  32.991 -0.3954  0.1684 -0.0020
14994W        W19394  10.730   0.634   4.712  0.1565 -0.2867 -0.0564
14995W        W19395   8.143   1.520   9.571  0.0230 -0.0587  0.0252
14996W        W19396   6.622   2.864   9.657  0.0383 -0.0431  0.0675
14997W        W19397  13.186   3.558  12.525 -0.1024  0.0117 -0.1024
14998W        W19398  19.553   5.470  26.739 -0.0134 -0.3373 -0.3470
14999W        W19399   0.389   0.876   5.793 -0.1244  0.0217  0.0732
15000W        W19400  17.721   3.210   3.140  0.1463 -0.1188  0.1978
15001W        W19401  20.123   3.970   7.487 -0.0548  0.1548  0.2270
15002W        W19402  25.892   0.322  29.874  0.0698 -0.1632  0.0910
15003W        W19403  13.819   6.162  13.973 -0.3569 -0.0490  0.1841
15004W        W19404   8.644   5.851  22.896 -0.0540  0.1011 -0.0305
15005W        W19405  17.777   3.886  11.799 -0.2869 -0.0859 -0.1350
15006W        W19406  24.213   4.536  11.748  0.0839  0.0582 -0.2137
15007W        W19407  12.233   5.912  23.866  0.1154 -0.0671  0.1207
15008W        W19408  18.586   0.972  27.040 -0.0172 -0.2152 -0.1733
15009W        W19409  11.510   0.122   0.934 -0.0577 -0.1289  0.1715
15010W        W19410   4.763   0.487  29.543  0.1727  0.2511 -0.0208
15011W        W19411  23.950   4.522   6.768  0.0491 -0.2294  0.0244
15012W        W19412  25.517   4.927  31.005  0.2266  0.3441  0.0049
15013W        W19413  16.293   4.036  13.686  0.0107  0.3464 -0.1502
15014W        W19414   5.723   5.120  34.444  0.0124 -0.4225 -0.0721
15015W        W19415  19.298   4.779  15.615  0.0884 -0.0348 -0.3742
15016W        W19416  25.438   2.135  35.441  0.2900  0.0027  0.1775
15017W        W19417  10.830   4.000  35.659 -0.0077  0.3827 -0.1629
15018W        W19418   7.308   1.416  15.455 -0.2419  0.1168 -0.0167
15019W        W19419   0.389   6.237   3.515 -0.0180 -0.0224 -0.3459
15020W        W19420  25.941   4.642  12.802 -0.1179 -0.0212  0.1045
15021W        W19421   7.489   5.928  33.451 -0.1852 -0.2001  0.1444
15022W        W19422   1.283   5.086  25.657  0.0349 -0.1379  0.0914
15023W        W19423  12.538   4.506  30.999  0.3627 -0.0857  0.2128
15024W        W19424  21.947   5.597  35.486  0.0327  0.1622 -0.0391
15025W        W19425  10.244   2.504  31.618 -0.0630  0.0859 -0.0041
15026W        W19426   9.428   1.809  31.385 -0.0295  0.0168 -0.0748
15027W        W19427   3.884   3.814  15.574 -0.2634  0.0790  0.1762
15028W        W19428  12.003   0.088   9.560 -0.1399 -0.0390 -0.1804
15029W        W19429   6.830   4.549   9.182  0.1596 -0.1510 -0.1300
15030W        W19430  20.003   3.662  22.417 -0.1815 -0.0649 -0.0213
15031W        W19431  16.344   2.972  13.907 -0.2100 -0.1956  0.2292
15032W        W19432  11.344   3.397   9.971 -0.0070  0.0722  0.0734
15033W        W19433   3.509   2.217   8.259 -0.1300  0.0651  0.0320
15034W        W19434  24.415   5.957   8.296  0.2251  0.1735  0.0744
15035W        W19435   6.000   0.304   9.411  0.0080  0.1443 -0.3164
15036W        W19436   6.161   0.465  30.725 -0.0867  0.0202  0.0030
15037W        W19437   0.170   4.537  10.427  0.2175 -0.0642 -0.0993
15038W        W19438   6.968   4.816   3.959  0.2652  0.1927  0.0047
15039W        W19439  22.759   5.293  33.098  0.0932 -0.2704  0.1706
15040W        W19440  25.681   6.564  30.237  0.1176  0.0137  0.0602
15041W        W19441  10.533   4.010  13.598  0.1273  0.0222 -0.0040
15042W        W19442   7.196   5.012  33.187 -0.2320 -0.4738 -0.1956
15043W        W19443  19.516   0.355  10.146 -0.2199 -0.1890 -0.0736
15044W        W19444   4.228   1.438  23.213  0.1737  0.1380 -0.1958
15045W        W19445   9.005   4.118  26.902 -0.1749 -0.0938  0.1554
15046W        W19446  21.173   4.986   8.174 -0.3074 -0.0856 -0.1712
15047W        W19447  17.693   2.966  32.200 -0.2238  0.1921 -0.3945
15048W        W19448  17.167   0.308   8.199 -0.0959  0.1084 -0.1424
15049W        W19449   2.135   0.826   5.272 -0.0280  0.0658 -0.0990
15050W        W19450  23.536   5.959   2.606 -0.2590  0.0094 -0.1666
15051W        W19451  14.208   2.265  22.344  0.1849 -0.3851 -0.1093
15052W        W19452   4.272   6.139  32.492  0.2069 -0.1029 -0.2209
15053W        W19453  22.347   0.811   9.918 -0.0434 -0.0075 -0.0367
15054W        W19454   2.189   5.860   5.928  0.1209  0.0134 -0.1785
15055W        W19455  17.716   5.188   8.191 -0.0363  0.0241  0.0545
15056W        W19456  25.370   2.375  23.212 -0.3417  0.0363 -0.0249
15057W        W19457   9.102   3.768   1.278 -0.2697 -0.1452 -0.0589
15058W        W19458  22.859   4.575  31.541  0.0186 -0.0136 -0.0969
15059W        W19459  16.525   2.433   4.241  0.1683  0.0460 -0.0966
15060W        W19460  22.555   1.616  31.746  0.0097 -0.5037  0.0391
15061W        W19461  17.374   0.041  13.803  0.3841 -0.3996  0.0740
15062W        W19462  18.545   3.242  34.177 -0.0484 -0.1647 -0.1382
15063W        W19463  13.687   1.593  33.173 -0.2276 -0.1105 -0.0339
15064W        W19464   6.787   0.840  23.457  0.0935 -0.1382 -0.1754
15065W        W19465  15.829   4.183  27.942 -0.0447  0.0155  0.1094
15066W        W19466  13.781   2.160   7.972  0.0066 -0.1278  0.2190
15067W        W19467  17.120   5.798   9.313 -0.1830 -0.2629  0.3090
15068W        W19468  11.267   2.509  28.906  0.2315  0.0700 -0.0937
15069W        W19469  25.016   0.827   5.849 -0.2114 -0.0040 -0.0103
15070W        W19470   5.290   2.224  27.217 -0.1599 -0.1027 -0.4405
15071W        W19471  20.191   0.677  12.614 -0.1559 -0.0135  0.0472
15072W        W19472  24.568   5.135   1.141 -0.0932  0.0747 -0.3313
15073W        W19473   4.507   0.652  33.877 -0.1048  0.2400 -0.0940
15074W        W19474   6.872   1.475   8.924  0.0057  0.0402 -0.1872
15075W        W19475   0.963   5.068  26.034  0.0501 -0.3879 -0.0647
15076W        W19476   5.548   4.407   9.114  0.0064  0.1157 -0.0104
15077W        W19477  26.184   3.653  14.008 -0.0697 -0.1108  0.1002
15078W        W19478   0.055   0.016   3.429 -0.1739  0.4070  0.0537
15079W        W19479   3.450   1.037  22.693 -0.0072  0.2428 -0.1133
15080W        W19480  17.693   5.770  12.948  0.2560  0.0108  0.0453
15081W        W19481   9.206   4.786   0.605  0.0771 -0.1657  0.2632
15082W        W19482  26.046   3.006  28.860 -0.0355 -0.1898  0.1516
15083W        W19483  16.226   5.482  22.103 -0.0242 -0.2318  0.1402
15084W        W19484   4.309   5.291   0.458 -0.3827 -0.1938  0.1439
15085W        W19485  12.390   0.544  35.821  0.2134  0.1553 -0.0559
15086W        W19486  21.741   5.527   7.705  0.2819 -0.0636  0.3242
15087W        W19487   3.593   3.790  23.079 -0.0186 -0.0834  0.0919
15088W        W19488  16.654   5.855  23.465 -0.0158 -0.0742 -0.0739
15089W        W19489   0.882   6.129  34.773  0.0268  0.0654 -0.0100
15090W        W19490  16.181   0.135   1.226 -0.0269 -0.1675 -0.0982
15091W        W19491  21.282   4.378   4.584  0.1883  0.0763  0.0405
15092W        W19492  13.370   6.465  31.906  0.1530 -0.1605  0.0785
15093W        W19493  20.854   0.059  13.722  0.0460 -0.0225 -0.2427
15094W        W19494  14.144   0.892  23.283  0.2965 -0.2003  0.1718
15095W        W19495  14.302   1.406  14.440  0.1389 -0.1207 -0.1513
15096W        W19496  20.018   5.194  10.574 -0.2482 -0.2712 -0.0139
15097W        W19497  13.077   1.743  29.068  0.1786 -0.0697 -0.2126
15098W        W19498  16.777   0.485  24.549  0.1047 -0.0621  0.0434
15099W        W19499   3.288   1.849  31.335 -0.2075 -0.0040  0.2438
15100W        W19500   2.848   5.881  32.309  0.1015 -0.0364  0.1273
15101W        W19501  24.153   5.542  27.942 -0.1627  0.0306 -0.0947
15102W        W19502  25.025   2.434   3.969  0.0428  0.1144 -0.0296
15103W        W19503  14.322   5.985   6.262 -0.1151  0.1169 -0.1246
15104W        W19504  24.188   3.527  14.710 -0.1431  0.1007  0.0426
15105W        W19505   5.604   2.749   2.425  0.0644  0.0093 -0.0338
15106W        W19506   5.201   0.805  31.001  0.1301  0.1088 -0.2341
15107W        W19507  14.045   3.811   0.289  0.0615  0.1154  0.1944
15108W        W19508  25.549   1.909  12.029  0.0206  0.2708 -0.0019
15109W        W19509   5.825   6.223  33.552  0.1467 -0.2739 -0.0076
15110W        W19510  20.415   1.166   0.894  0.1275 -0.0563 -0.0355
15111W        W19511  23.118   3.460  13.904  0.0644  0.0680 -0.0590
15112W        W19512  21.110   3.571   0.416 -0.4347 -0.0147 -0.0366
15113W        W19513  22.059   6.427  26.736 -0.1430 -0.2481 -0.0784
15114W        W19514   7.678   0.646  21.040 -0.0787  0.1724  0.0124
15115W        W19515  23.921   4.085  11.935  0.0135 -0.1407  0.0055
15116W        W19516  16.883   4.603  14.798 -0.1740 -0.0122  0.1424
15117W        W19517   4.237   0.717  12.445 -0.0725  0.0013 -0.1239
15118W        W19518   9.966   5.672  25.401 -0.0911 -0.2336  0.0082
15119W        W19519  22.245   2.487  22.010  0.3026  0.1166 -0.0851
15120W        W19520  20.391   2.372   0.119 -0.0756  0.2299  0.0532
15121W        W19521  12.808   6.067  30.721 -0.0390 -0.0859 -0.2628
15122W        W19522  15.476   2.908   3.333 -0.1034  0.0416 -0.0106
15123W        W19523   4.736   1.125  30.898 -0.0535  0.2594  0.0060
15124W        W19524   7.452   5.214  15.134  0.0708  0.0497 -0.0184
15125W        W19525  13.822   0.141   8.934  0.2086 -0.0433 -0.0447
15126W        W19526   2.963   5.452  25.254 -0.0456  0.0158  0.2827
15127W        W19527   5.317   3.627   2.609  0.0406 -0.0853  0.0198
15128W        W19528  12.935   1.043  24.459 -0.0123  0.0717 -0.0743
15129W        W19529  10.558   2.601   0.499 -0.3226  0.1103  0.0296
15130W        W19530  15.527   2.373   1.272  0.1253 -0.2634 -0.1907
15131W        W19531  19.052   2.208   0.119 -0.0909  0.0181 -0.0195
15132W        W19532   0.812   5.357  27.440 -0.0669  0.0018  0.1639
15133W        W19533   4.050   6.514  33.324  0.1543 -0.3957  0.0013
15134W        W19534   6.803   6.465  32.725 -0.1681  0.0040 -0.1799
15135W        W19535  21.034   1.172  21.472  0.0669 -0.2038 -0.0924
15136W        W19536   0.678   3.348   6.576 -0.1628  0.0963 -0.1578
15137W        W19537  17.243   0.884   4.671 -0.2048  0.0502 -0.1924
15138W        W19538  10.202   1.435  33.033  0.3440 -0.0012  0.0088
15139W        W19539  11.148   4.695  15.270 -0.0197  0.0195  0.1592
15140W        W19540  11.577   5.600  26.361  0.0847  0.2095 -0.0506
15141W        W19541   1.472   3.735  11.876 -0.2050 -0.0026  0.1538
15142W        W19542  20.903   0.379  27.137  0.1282  0.0189  0.0170
15143W        W19543  24.781   5.064   9.666 -0.2722  0.4923 -0.2029
15144W        W19544  16.718   2.234   4.616 -0.1517  0.0427 -0.2954
15145W        W19545   3.540   1.577  23.748 -0.3106  0.0755  0.1466
15146W        W19546  14.016   4.147  31.786  0.2818  0.3381 -0.1117
15147W        W19547  17.411   3.627  35.396  0.3439  0.2105  0.0445
15148W        W19548  22.881   3.354  32.006 -0.1416  0.0270  0.1558
15149W        W19549  15.767   5.749  13.431 -0.0495 -0.2351  0.0864
15150W        W19550   9.200   1.262  22.123 -0.0418 -0.0653  0.1272
15151W        W19551  25.540   2.623   5.976 -0.0183  0.2329 -0.0283
15152W        W19552   0.932   3.748  32.072  0.2688 -0.1823  0.0410
15153W        W19553  26.403   1.803  23.096  0.3100 -0.1628 -0.1300
15154W        W19554   2.642   3.585  28.269  0.0841  0.3104 -0.1271
15155W        W19555   7.863   5.600  31.579 -0.0914  0.0099 -0.0203
15156W        W19556   9.984   4.667  28.297  0.0192  0.2155 -0.0522
15157W        W19557   1.054   0.619   4.028  0.0163 -0.1712 -0.3711
15158W        W19558   8.211   2.548  13.694 -0.3279 -0.3836 -0.0655
15159W        W19559   7.250   1.591  28.575  0.3064  0.0259 -0.0293
15160W        W19560   1.939   3.513  31.281 -0.1324 -0.0268 -0.4227
15161W        W19561   2.210   6.580  24.032  0.1926  0.3501  0.1595
15162W        W19562  21.306   1.611  10.583  0.1198  0.0874  0.2002
15163W        W19563  11.604   4.440  25.912 -0.0387 -0.3465  0.1528
15164W        W19564   5.659   6.247  31.875 -0.0955 -0.0636  0.0855
15165W        W19565  18.977   0.265  33.335 -0.0328 -0.1110 -0.1703
15166W        W19566  18.394   6.464  36.037  0.0846 -0.2931  0.2840
15167W        W19567   2.027   4.146  29.610  0.0679 -0.0263 -0.0260
15168W        W19568  16.214   2.426  27.506  0.0919 -0.0816  0.2372
15169W        W19569   5.615   1.067   3.585  0.2468 -0.0188 -0.0223
15170W        W19570   7.050   3.082  34.329 -0.0334 -0.0784  0.3612
15171W        W19571   4.719   4.066   1.470  0.0400 -0.1231  0.1840
15172W        W19572  25.529   0.695  27.193  0.0678 -0.4848  0.0541
15173W        W19573  26.326   0.563  33.241 -0.1321  0.0164 -0.0080
15174W        W19574  21.608   0.508  35.562 -0.0754  0.0065 -0.0774
15175W        W19575  13.968   3.577   5.699  0.0266  0.0812  0.0968
15176W        W19576   6.862   5.445  27.305  0.1312 -0.0185 -0.1401
15177W        W19577  23.678   3.139   3.780 -0.1021 -0.0522  0.0157
15178W        W19578  10.307   3.713   5.799 -0.2968 -0.1020 -0.2700
15179W        W19579   6.776   2.189  28.277 -0.1872 -0.1033  0.1500
15180W        W19580  18.471   2.448   9.922  0.1324  0.3241  0.0807
15181W        W19581   6.875   5.046   9.032 -0.2026  0.2802 -0.4117
15182W        W19582   7.197   2.864  29.205  0.0506 -0.1554 -0.1037
15183W        W19583  18.211   4.049  30.313  0.1059 -0.2181  0.0401
15184W        W19584   4.292   0.127   6.085 -0.0101  0.1605  0.0853
15185W        W19585  17.350   1.723  22.679 -0.0108 -0.1629 -0.1296
15186W        W19586  14.193   5.913  34.016  0.0854  0.0002  0.4171
15187W        W19587   7.419   5.416  26.169  0.2205 -0.1326 -0.2847
15188W        W19588   3.929   0.840  29.825 -0.0970  0.1185  0.0567
15189W        W19589  12.260   4.369   6.289 -0.0663  0.1830 -0.1362
15190W        W19590   9.141   2.500  12.028  0.1028  0.2177 -0.1179
15191W        W19591  16.015   2.173  12.539 -0.3108 -0.0608  0.0480
15192W        W19592  11.804   1.806  15.205  0.0393  0.2887  0.1214
15193W        W19593  18.413   3.887  27.602 -0.1118 -0.0355 -0.2604
15194W        W19594   2.915   4.713  11.579 -0.1132 -0.2929  0.1419
15195W        W19595   6.569   3.589  31.825  0.2363  0.0312 -0.1381
15196W        W19596  20.973   0.464  10.083 -0.0143 -0.2558  0.1851
15197W        W19597  23.764   2.319  29.457 -0.0311  0.2902  0.2335
15198W        W19598  21.678   4.451  23.885  0.1520 -0.0904  0.3417
15199W        W19599   8.231   2.449   6.346 -0.1237  0.0319 -0.0253
15200W        W19600  18.690   0.602  33.015  0.0113 -0.1879 -0.1863
15201W        W19601  25.498   1.811  25.636  0.0293  0.1204  0.0984
15202W        W19602  22.260   5.878  27.847  0.2556 -0.0195  0.0508
15203W        W19603   0.871   0.238  14.542  0.0527  0.1328 -0.0230
15204W        W19604   1.208   5.655   3.959  0.1757  0.1653 -0.1069
15205W        W19605  25.397   1.856  10.293 -0.1308 -0.0018  0.2091
15206W        W19606  24.540   3.590  11.270  0.0327 -0.1246  0.2300
15207W        W19607   7.264   6.153  32.707  0.4068 -0.3067 -0.0783
15208W        W19608  12.388   2.062  36.025 -0.0603 -0.1625  0.0007
15209W        W19609  19.997   3.693  10.865 -0.0309  0.3477  0.1315
15210W        W19610   3.864   1.591  13.311 -0.0638 -0.3177 -0.1414
15211W        W19611  13.931   5.377  30.082 -0.0749  0.1467  0.1471
15212W        W19612  23.058   1.547  26.558  0.0077 -0.1963 -0.3231
15213W        W19613  19.423   2.846   5.960 -0.2568  0.1890 -0.0098
15214W        W19614  17.880   5.421  29.330 -0.2233 -0.3063  0.3497
15215W        W19615  12.678   1.726  10.852  0.0202  0.0816  0.0236
15216W        W19616  17.221   3.266  10.697 -0.0085 -0.2363 -0.2511
15217W        W19617  17.752   3.602   7.804 -0.1754 -0.0846  0.2162
15218W        W19618  26.219   5.386  24.075  0.0023  0.4091 -0.1372
15219W        W19619  19.001   6.221  32.567 -0.2011  0.2747  0.0296
15220W        W19620  16.939   2.728  31.652 -0.0633 -0.1924  0.0168
15221W        W19621   1.323   0.636   7.818 -0.0493 -0.1434 -0.1797
15222W        W19622  16.573   3.833  35.409  0.1332 -0.2620  0.2044
15223W        W19623   7.397   6.218  21.680  0.1018 -0.0816 -0.0158
15224W        W19624  16.695   6.238   8.678  0.3622  0.0995  0.1208
15225W        W19625   1.248   5.894  26.640  0.0700 -0.1531  0.1363
15226W        W19626  14.828   4.543   0.884  0.0195 -0.0973 -0.2451
15227W        W19627  21.584   3.099  14.916 -0.1995  0.1287 -0.3011
15228W        W19628   0.110   0.241   1.929 -0.0319 -0.1433 -0.1010
15229W        W19629   5.673   4.701  22.271 -0.0084 -0.2955 -0.1185
15230W        W19630  12.975   4.348  30.758  0.2528 -0.2255  0.1215
15231W        W19631  14.854   3.828  21.536  0.0107  0.1566  0.1408
15232W        W19632   9.395   3.067  21.369 -0.1539 -0.0029 -0.0011
15233W        W19633  21.141   3.200  25.369  0.0502  0.2002  0.0696
15234W        W19634  23.431   2.400  31.175 -0.2173 -0.1763  0.0226
15235W        W19635   0.362   5.684  33.654 -0.0408  0.0435  0.3638
15236W        W19636   2.936   5.402  21.821 -0.0431 -0.1736 -0.1927
15237W        W19637  15.424   3.724  31.209  0.1757 -0.2124  0.0372
15238W        W19638  22.294   2.874  31.181 -0.0333 -0.1290 -0.0934
15239W        W19639   0.991   2.358   0.451 -0.0728  0.1395 -0.1934
15240W        W19640  13.208   0.142  13.817  0.0142  0.1362  0.0505
15241W        W19641  25.169   3.943  32.432  0.0416 -0.1157  0.4930
15242W        W19642  17.660   6.377   1.086  0.0688 -0.0245  0.2364
15243W        W19643   8.122   1.438  31.784  0.0183 -0.2097 -0.2936
15244W        W19644  13.101   6.162  31.583 -0.0242 -0.1048  0.1478
15245W        W19645  10.826   2.150   7.061  0.1543 -0.0360  0.2254
15246W        W19646  19.920   3.721   1.350  0.1626  0.0851  0.4368
15247W        W19647  25.338   0.373  31.980 -0.1655 -0.1315 -0.1783
15248W        W19648  18.092   3.404  26.567 -0.2072 -0.1251  0.3597
15249W        W19649  17.953   1.864   0.968 -0.1401  0.1476 -0.0988
15250W        W19650   3.665   5.816   0.823  0.0201 -0.0055 -0.0299
15251W        W19651  15.786   2.493  35.274 -0.1232 -0.1601 -0.1729
15252W        W19652  22.571   4.604  10.635  0.0931  0.2677  0.1446
15253W        W19653   2.862   5.013  12.984 -0.3671 -0.4262  0.1855
15254W        W19654  13.994   1.103   0.024  0.0099 -0.0177 -0.1623
15255W        W19655  11.688   3.936   3.668 -0.0203 -0.1378  0.0777
15256W        W19656   2.489   1.929  11.165  0.1047  0.0516  0.0304
15257W        W19657   0.932   0.115   2.439  0.0639 -0.1072 -0.0623
15258W        W19658  24.650   2.275  24.266 -0.3760 -0.0499 -0.2180
15259W        W19659  22.082   4.591   3.341 -0.0718  0.0395  0.1071
15260W        W19660   8.631   1.212   5.237  0.0246  0.3429  0.0094
15261W        W19661  10.503   1.297  34.970  0.0487  0.1144  0.1015
15262W        W19662  21.898   2.974   2.596 -0.1159  0.1190  0.0360
15263W        W19663  18.305   4.783   4.905  0.0310 -0.0620 -0.1771
15264W        W19664   6.038   5.438  10.320 -0.0917  0.0102 -0.0278
15265W        W19665   2.690   3.816   8.898 -0.0760  0.1110  0.1888
15266W        W19666  22.955   6.570  23.896 -0.0856  0.0426  0.0022
15267W        W19667   2.656   0.645  27.832  0.1330 -0.3133  0.0537
15268W        W19668   7.958   6.208  20.494  0.2640  0.2137 -0.2758
15269W        W19669   7.415   4.181  35.240 -0.1118  0.1190  0.1488
15270W        W19670   2.651   2.535   0.561  0.2917 -0.0839  0.0839
15271W        W19671  11.905   6.333  10.969  0.0533  0.1112  0.1271
15272W        W19672  12.779   2.204  22.032 -0.1983  0.2858 -0.0553
15273W        W19673  21.176   0.631   0.274  0.1125  0.1012 -0.0143
15274W        W19674   1.471   2.288  22.858 -0.1105  0.1321  0.1275
15275W        W19675  21.885   4.512  13.128 -0.0679  0.4130  0.0692
15276W        W19676  14.474   2.724  24.062 -0.4216  0.2760 -0.0971
15277W        W19677   3.380   2.248  14.686  0.2260  0.1566  0.3217
15278W        W19678   0.068   4.990  10.717 -0.2266 -0.0301  0.1035
15279W        W19679   7.694   0.415  35.212 -0.1307  0.0722  0.0800
15280W        W19680  15.867   3.764   2.401 -0.0757  0.0898  0.0267
15281W        W19681   6.213   5.429  11.995  0.0921 -0.0440  0.0831
15282W        W19682  18.415   6.018  10.704 -0.1098  0.0663  0.1385
15283W        W19683   5.168   5.212  28.524 -0.1093 -0.0426  0.0661
15284W        W19684  13.776   2.763  29.112 -0.2347  0.0817  0.1282
15285W        W19685  23.814   6.582  23.878 -0.1160 -0.0814 -0.0661
15286W        W19686  12.183   5.954  10.712  0.1178  0.1810  0.1880
15287W        W19687   7.365   4.664  26.606  0.1807 -0.0790 -0.1277
15288W        W19688  17.885   0.904  21.254 -0.1878  0.1505  0.1173
15289W        W19689  21.735   3.514  21.306 -0.0092  0.0781 -0.2365
15290W        W19690  21.786   0.807   7.315 -0.0611 -0.1139  0.4630
15291W        W19691  24.322   4.242  21.139  0.1827 -0.0220  0.3563
15292W        W19692   9.598   3.793  24.256  0.0687  0.0098 -0.0909
15293W        W19693  25.220   3.980  11.830 -0.0713  0.0039 -0.1630
15294W        W19694   2.077   1.465   5.261  0.2811 -0.3071  0.0344
15295W        W19695  15.875   3.651  23.555 -0.0257 -0.0179  0.0504
15296W        W19696  23.312   0.313  26.671  0.1945 -0.3733  0.4442
15297W        W19697   9.671   6.166  31.174 -0.0615  0.0769  0.0201
15298W        W19698   6.100   6.560  29.338  0.0932  0.2650  0.1125
15299W        W19699  22.310   3.112  21.801 -0.1953 -0.2320 -0.1094
15300W        W19700  10.432   5.681  22.843  0.1189  0.0858  0.0542
15301W        W19701  14.390   6.330  15.270  0.1217  0.2863  0.0142
15302W        W19702  13.413   0.119  26.398 -0.0297  0.1398  0.3553
15303W        W19703   1.981   2.863   6.144 -0.1364 -0.0083  0.0004
15304W        W19704   3.231   4.129   7.651 -0.0052  0.1449 -0.5232
15305W        W19705  25.433   3.164   9.655  0.1908  0.0429 -0.1324
15306W        W19706  12.840   0.309   2.803  0.0460 -0.0812 -0.1368
15307W        W19707  20.280   0.625  26.616 -0.1853 -0.1182  0.0577
15308W        W19708  16.426   2.028  14.572  0.0050  0.0741 -0.0332
15309W        W19709  24.207   1.923   7.167  0.0758 -0.0061  0.1316
15310W        W19710   7.525   3.942  20.869  0.0859  0.0076 -0.1866
15311W        W19711  20.123   3.259  28.311 -0.3012  0.0221  0.0850
15312W        W19712  12.567   2.211   1.647 -0.1222 -0.0211 -0.1430
15313W        W19713  18.910   0.093  23.155  0.1511  0.1002 -0.0355
15314W        W19714   0.261   6.506  32.698  0.2747 -0.0153 -0.0180
15315W        W19715  17.658   1.302   6.065  0.0599 -0.1706  0.2021
15316W        W19716  23.523   5.199   6.959 -0.1253 -0.0930 -0.3040
15317W        W19717  25.560   4.770  23.622 -0.5635  0.1041  0.3362
15318W        W19718  18.924   5.971  28.233 -0.3493  0.0297  0.1620
15319W        W19719  21.409   0.593   7.646  0.0408 -0.0707 -0.1012
15320W        W19720  11.293   2.119   7.213 -0.2423 -0.0230  0.1505
15321W        W19721  11.930   2.736  16.123  0.1426  0.0915 -0.1724
15322W        W19722  20.090   4.946   6.919  0.1844  0.0701 -0.0367
15323W        W19723  25.787   3.941  13.994 -0.1458 -0.0192 -0.1390
15324W        W19724  13.437   1.136  13.981  0.1562  0.3148 -0.1289
15325W        W19725  17.533   2.137  12.522 -0.4766 -0.2509  0.0760
15326W        W19726   7.692   2.614   6.758 -0.0577 -0.2515 -0.2097
15327W        W19727  12.798   3.032  20.371 -0.0442 -0.0476  0.3637
15328W        W19728   9.435   0.992  29.080  0.2061  0.1882 -0.1587
15329W        W19729  21.349   6.086  32.133  0.1355  0.1223  0.2259
15330W        W19730   7.904   6.165   7.397  0.1031  0.1263 -0.3493
15331W        W19731  19.345   4.646   8.301 -0.3233  0.0428 -0.3257
15332W        W19732   9.258   0.502  28.968 -0.1378  0.0169 -0.2718
15333W        W19733  13.240   5.350  26.811 -0.0767  0.2004 -0.0856
15334W        W19734  10.361   6.019   1.179 -0.2561  0.0021 -0.2510
15335W        W19735  22.955   2.403  35.411  0.0562  0.0810  0.0972
15336W        W19736  15.147   0.772   0.849 -0.0923 -0.0700  0.1435
15337W        W19737   2.771   3.413   3.397 -0.1421  0.1547  0.2631
15338W        W19738   3.089   2.719  13.865  0.2681  0.0005  0.0430
15339W        W19739  11.752   3.318  31.339 -0.2320  0.1424 -0.1301
15340W        W19740  15.650   2.541  12.595  0.1318 -0.2058 -0.1033
15341W        W19741   5.408   2.026   4.921 -0.2421 -0.0833  0.2580
15342W        W19742   0.579   0.247  10.008  0.2646 -0.1540  0.1297
15343W        W19743   1.941   5.688   9.306 -0.1593 -0.2557  0.1069
15344W        W19744   0.265   6.283  36.028 -0.0576  0.5069  0.1947
15345W        W19745   4.031   3.205   1.520 -0.0183 -0.1608 -0.2917
15346W        W19746  13.951   3.011  23.228  0.1104  0.2836 -0.2550
15347W        W19747  23.493   3.335  10.756  0.0621 -0.0833 -0.1050
15348W        W19748  17.153   1.353  27.654 -0.2113 -0.0115  0.3399
15349W        W19749  12.357   2.996  33.114  0.0699 -0.2509  0.0463
15350W        W19750  24.076   2.115  27.279 -0.2082 -0.2091  0.1906
15351W        W19751   9.717   2.438   8.446 -0.0103 -0.0791 -0.1755
15352W        W19752  20.749   1.129  11.909 -0.1506 -0.1943  0.1615
15353W        W19753   4.382   0.329  13.752  0.2390  0.1750 -0.5045
15354W        W19754  18.978   2.017   6.771 -0.0117 -0.1707 -0.0535
15355W        W19755   4.923   2.961  14.124  0.1376 -0.1466  0.0130
15356W        W19756   3.954   6.465  28.627 -0.0999 -0.1290  0.3236
15357W        W19757   6.646   1.576  27.612 -0.4880 -0.0898  0.2092
15358W        W19758  11.007   1.172  10.044 -0.0509  0.1875 -0.0533
15359W        W19759   1.467   1.333   6.271  0.0353 -0.1285  0.2518
15360W        W19760  11.827   3.287  29.630 -0.1600  0.1922 -0.2067
15361W        W19761  22.516   5.436  11.265 -0.1187 -0.0092  0.1384
15362W        W19762   2.318   6.038  33.666  0.0345 -0.1899  0.0050
15363W        W19763  21.170   5.532   4.063 -0.1096  0.1574 -0.2073
15364W        W19764   4.974   4.771  27.220  0.1497 -0.0481 -0.1037
15365W        W19765   4.686   2.335  23.800 -0.0684  0.0166 -0.0849
15366W        W19766   2.295   4.844  31.435 -0.2958  0.0867  0.2618
15367W        W19767   1.905   0.927   4.105 -0.2051  0.1845 -0.0476
15368W        W19768   9.503   5.291  26.244  0.1009 -0.2282 -0.0310
15369W        W19769  10.923   2.165  25.668  0.2567 -0.0802  0.1832
15370W        W19770  14.837   4.230  27.674 -0.0131  0.0895 -0.1519
15371W        W19771   9.795   3.288  13.539 -0.2220 -0.1487  0.1891
15372W        W19772   2.502   1.711  10.703 -0.2974  0.0416 -0.1137
15373W        W19773  17.371   4.595  21.698 -0.1292  0.2591  0.5484
15374W        W19774   6.265   2.798  35.177  0.0018  0.0562 -0.3103
15375W        W19775  16.988   1.031  25.482  0.0986  0.3730 -0.0138
15376W        W19776  24.419   2.236  13.154  0.0500  0.0686  0.1945
15377W        W19777   8.754   6.253  15.441 -0.0617 -0.1072  0.1859
15378W        W19778   5.591   0.994  25.642  0.2062 -0.3513  0.0617
15379W        W19779   4.380   0.011  32.637  0.2085 -0.0101  0.3348
15380W        W19780  16.514   1.038  25.692  0.0682  0.1525 -0.3815
15381W        W19781  13.718   6.548   5.749 -0.3818 -0.0509 -0.2253
15382W        W19782  12.586   0.570   4.228 -0.2023 -0.0136  0.1144
15383W        W19783  24.288   2.321  29.215  0.2771  0.2051  0.0426
15384W        W19784   2.136   1.019  24.124  0.0104  0.2709 -0.1807
15385W        W19785  17.655   5.333   9.874 -0.3188 -0.1583 -0.2928
15386W        W19786  17.751   0.003  27.163  0.0779 -0.0895  0.2361
15387W        W19787   6.276   0.893  15.008 -0.1170 -0.0108  0.0649
15388W        W19788  17.229   5.445  15.140  0.0809 -0.2091  0.0836
15389W        W19789   1.854   6.180  31.091 -0.0686  0.1101 -0.0606
15390W        W19790  16.924   0.135  13.111 -0.2588 -0.2887 -0.1311
15391W        W19791  24.658   1.922  23.121  0.1077  0.0481 -0.1981
15392W        W19792  23.946   5.766   8.298 -0.0571 -0.0385  0.1555
15393W        W19793   1.390   0.801  29.182  0.1217  0.0519  0.0454
15394W        W19794   3.345   4.239  14.025 -0.0456 -0.0462  0.3118
15395W        W19795  22.144   2.820  31.650 -0.1162 -0.0995 -0.1189
15396W        W19796  12.777   0.733   9.474  0.0233  0.1511  0.1289
15397W        W19797  24.689   4.227  31.830 -0.1883 -0.2835  0.2167
15398W        W19798   8.023   3.339   9.386  0.2387 -0.1383 -0.0537
15399W        W19799   2.709   3.745  23.028 -0.0905  0.1177  0.0204
15400W        W19800   9.437   4.423  33.759 -0.0388 -0.3142 -0.1500
15401W        W19801   0.353   5.460   0.179 -0.1596 -0.0023 -0.0338
15402W        W19802  21.591   6.448  25.616 -0.1404  0.0200  0.3210
15403W        W19803  11.503   6.065  26.541  0.0297  0.2089  0.4067
15404W        W19804  12.797   2.446  21.120  0.2283  0.0370  0.0349
15405W        W19805  13.456   3.824  30.407  0.0419  0.0192  0.3296
15406W        W19806   4.548   3.334  15.407  0.4003 -0.1858  0.0670
15407W        W19807   1.900   3.021  27.732 -0.3533 -0.0854  0.2847
15408W        W19808  10.780   1.523   4.504 -0.1971 -0.1520 -0.0915
15409W        W19809  21.252   6.472  25.197 -0.1608  0.2544 -0.1764
15410W        W19810  13.451   6.225  14.843 -0.1861  0.1227 -0.1747
15411W        W19811   5.748   0.110   2.348 -0.1130 -0.1192 -0.0600
15412W        W19812   2.125   6.245  32.747 -0.0573 -0.0144  0.1619
15413W        W19813  13.631   6.471  35.940  0.0777 -0.3475 -0.4262
15414W        W19814   1.756   6.277   4.226  0.3211 -0.0424  0.0929
15415W        W19815   5.791   5.067  32.692  0.0554 -0.0623  0.0832
15416W        W19816  12.289   6.328   8.958 -0.1427  0.4056  0.0401
15417W        W19817   0.974   1.602   9.519  0.3041  0.0905  0.1422
15418W        W19818   1.344   1.097  22.415 -0.3498  0.0509  0.0448
15419W        W19819  23.237   4.655   4.739 -0.0453 -0.0280  0.0645
15420W        W19820  20.707   6.337  27.656  0.3124  0.1917  0.1867
15421W        W19821  18.032   4.887  26.420  0.0253  0.0513  0.1164
15422W        W19822   5.544   5.689   6.386  0.2521 -0.1778  0.0468
15423W        W19823  19.969   6.415  21.205 -0.0636 -0.3577  0.3634
15424W        W19824  25.949   1.420  32.487 -0.0743  0.0140  0.1301
15425W        W19825  14.398   4.477  22.564 -0.0288 -0.1082 -0.3260
15426W        W19826  12.599   3.007  14.256 -0.2052  0.2820  0.0102
15427W        W19827  13.765   2.021   9.524 -0.0450 -0.2231 -0.3453
15428W        W19828  15.622   3.195  15.116  0.1146  0.2018 -0.2961
15429W        W19829   0.330   5.322  34.795 -0.1054  0.4925 -0.2085
15430W        W19830  14.727   1.670  24.018  0.2615 -0.1513 -0.1303
15431W        W19831   8.177   4.719  12.324 -0.0897  0.2041  0.0368
15432W        W19832  23.807   6.127  11.317  0.0938  0.2878 -0.0328
15433W        W19833   4.869   2.505   6.871  0.2043 -0.1088 -0.1558
15434W        W19834  17.784   6.391  25.304 -0.1218 -0.0371 -0.1965
15435W        W19835  12.587   3.680  32.633 -0.0460 -0.1627 -0.0543
15436W        W19836  18.734   0.906  29.446  0.3403 -0.0168  0.1257
15437W        W19837  23.086   3.854  24.774 -0.1622  0.3428  0.1348
15438W        W19838   7.360   0.777   7.708  0.1324  0.2267  0.4741
15439W        W19839  15.688   2.579  10.841 -0.0443  0.3652  0.0530
15440W        W19840   4.861   5.064  33.784 -0.0058  0.3440 -0.1139
15441W        W19841   0.739   3.728  10.156  0.0713 -0.2283 -0.2133
15442W        W19842  11.229   6.107  20.833 -0.2097 -0.1366 -0.0490
15443W        W19843   1.745   2.342  28.642 -0.2737 -0.2676 -0.3024
15444W        W19844   9.087   0.510  33.241 -0.3775  0.2208  0.1785
15445W        W19845   9.763   4.392   0.154 -0.1287 -0.1329 -0.0142
15446W        W19846   0.498   4.253  24.261  0.2333 -0.0196  0.1742
15447W        W19847   3.942   3.349  22.550 -0.2907  0.0656  0.2107
15448W        W19848   6.747   1.432  22.541  0.1857 -0.1494 -0.0853
15449W        W19849  25.945   3.260  21.517  0.1832 -0.2179 -0.0038
15450W        W19850  11.924   0.461  35.608  0.0851 -0.3730 -0.1887
15451W        W19851   0.293   2.340   2.847  0.0653 -0.2645  0.1905
15452W        W19852   7.072   0.612   2.123 -0.3396 -0.4408 -0.1654
15453W        W19853   1.519   0.691   8.916  0.1159 -0.0113  0.0289
15454W        W19854   1.049   4.731  20.968 -0.1342 -0.3170  0.4049
15455W        W19855  15.259   4.717   4.196 -0.4597  0.2251  0.2476
15456W        W19856   2.347   1.417  12.044  0.2649 -0.0458 -0.0962
15457W        W19857   9.604   4.993  31.258 -0.0854  0.3226 -0.0595
15458W        W19858  18.932   4.972  35.713 -0.3072 -0.1242 -0.2376
15459W        W19859   6.754   2.048  20.444 -0.0794 -0.1018  0.1520
15460W        W19860  22.341   4.938  26.294 -0.2691  0.2700  0.1078
15461W        W19861  22.586   3.504  28.723  0.2218 -0.2017  0.2884
15462W        W19862  13.590   5.003  26.836  0.1724 -0.0557  0.3110
15463W        W19863   0.435   5.041  27.181  0.1500  0.2854 -0.0080
15464W        W19864   6.579   2.299  25.698  0.3399  0.0330  0.3156
15465W        W19865   1.107   3.518  12.168 -0.1454 -0.1499  0.4660
15466W        W19866  12.958   5.636   6.694  0.0813 -0.2255 -0.2267
15467W        W19867   8.292   5.726   1.580  0.2050 -0.2081 -0.3290
15468W        W19868  13.398   3.208  29.724  0.1076 -0.3469  0.2356
15469W        W19869   8.588   0.939  35.611 -0.2937  0.1028 -0.3732
15470W        W19870  12.920   4.577  11.993 -0.0440  0.1223 -0.1571
15471W        W19871   9.528   6.303  12.042 -0.0932 -0.3320 -0.0499
15472W        W19872  22.577   4.035   2.430  0.0515  0.2142  0.1711
15473W        W19873   1.281   2.115  30.299 -0.2347  0.0233  0.0362
15474W        W19874   4.619   5.759  14.578 -0.2808 -0.1425  0.2902
15475W        W19875  26.294   5.989  26.419 -0.3046  0.4491  0.0418
15476W        W19876   4.094   2.337   7.953 -0.0285 -0.0332  0.3357
15477W        W19877  10.106   4.259  12.318  0.2165 -0.0747 -0.3229
15478W        W19878   2.882   0.233  13.632  0.2084  0.0557  0.2578
15479W        W19879  14.883   3.312  28.658 -0.2015 -0.3177  0.0391
15480W        W19880  14.886   3.009  13.683  0.0582  0.2167 -0.2618
15481W        W19881  15.467   0.134   1.587 -0.0064  0.1917  0.1984
15482W        W19882   5.328   0.661   6.919 -0.0964  0.0754 -0.0895
15483W        W19883   3.779   5.781   9.926 -0.0511 -0.0330 -0.0198
15484W        W19884  24.894   3.771  28.843 -0.4162 -0.1778 -0.1057
15485W        W19885   6.916   2.168  23.980 -0.1742  0.0808 -0.2349
15486W        W19886  22.080   5.595  25.731  0.2041 -0.1607 -0.0845
15487W        W19887  13.536   1.246  22.960  0.0246  0.1791 -0.0553
15488W        W19888   1.176   0.342  28.384  0.2684 -0.0661 -0.2969
15489W        W19889   3.045   0.931  14.941 -0.2645  0.1079 -0.2307
15490W        W19890   2.892   0.405   3.226 -0.0454 -0.0797 -0.2334
15491W        W19891   0.255   0.385  20.908  0.3850 -0.0902 -0.0324
15492W        W19892   5.923   2.908   6.342 -0.1476 -0.1279 -0.0439
15493W        W19893   6.660   3.813  10.663 -0.2399  0.1588 -0.2427
15494W        W19894  22.253   3.935  32.177 -0.0919 -0.0891  0.0397
15495W        W19895  13.801   3.073   5.708  0.0323  0.1785  0.1047
15496W        W19896   3.004   0.991  27.318 -0.1568 -0.1044 -0.1759
15497W        W19897   1.980   0.772  14.359 -0.1962  0.2779  0.1179
15498W        W19898  22.169   0.241  12.228 -0.1289  0.1746 -0.0317
15499W        W19899  19.276   1.635   6.143 -0.2604  0.2174 -0.1998
15500W        W19900  16.406   5.439   6.931  0.0784  0.1920  0.2585
15501W        W19901  24.861   1.410  34.019  0.1065  0.1504  0.1347
15502W        W19902  21.833   3.488  21.807 -0.0671  0.0067 -0.1863
15503W        W19903   6.664   6.173  29.338  0.4731 -0.3886 -0.2958
15504W        W19904  23.975   0.050  31.574 -0.1097 -0.2767  0.1053
15505W        W19905  22.532   5.233  30.717  0.3539  0.0274  0.2205
15506W        W19906  12.618   5.313   8.460  0.2409  0.0047 -0.2706
15507W        W19907   9.514   4.750  20.840 -0.2093  0.0454  0.1790
15508W        W19908  12.189   1.931   7.155  0.1310 -0.1863  0.3154
15509W        W19909  18.949   3.432  24.988 -0.1233 -0.0288 -0.2311
15510W        W19910  16.735   4.648  11.522  0.2125  0.1424  0.1436
15511W        W19911   3.834   2.289  14.613 -0.1691  0.2209 -0.0980
15512W        W19912  20.720   2.383  12.407  0.3879  0.1729 -0.1130
15513W        W19913  22.729   5.622  12.802  0.1002 -0.4451 -0.3305
15514W        W19914   2.462   6.304   5.690 -0.0303 -0.0629 -0.0947
15515W        W19915  18.752   4.901  30.426 -0.0287 -0.2653  0.0734
15516W        W19916   1.550   4.340  26.301 -0.1585 -0.0151  0.1520
15517W        W19917  21.888   5.379   8.229  0.3189  0.2331  0.1893
15518W        W19918  20.221   6.295  23.866 -0.0999  0.0841 -0.0909
15519W        W19919  22.439   3.368   3.328  0.1366  0.0038  0.2039
15520W        W19920   5.564   5.531   2.217 -0.0379 -0.1283 -0.2363
15521W        W19921   9.934   0.562  21.944 -0.1608 -0.1490 -0.2634
15522W        W19922  18.809   1.275  22.614 -0.1309  0.0473 -0.2077
15523W        W19923  24.345   0.521   5.708 -0.0577 -0.0942  0.1796
15524W        W19924  15.528   4.943   3.417  0.2309  0.0049  0.2034
15525W        W19925  21.592   1.546  31.951  0.2415 -0.0808  0.1190
15526W        W19926   8.420   0.020   0.916 -0.1897 -0.1030  0.0160
15527W        W19927  24.701   0.073   3.630 -0.0796 -0.2125  0.3984
15528W        W19928  26.308   4.891  14.482  0.0103 -0.1173 -0.2599
15529W        W19929  12.942   2.877  25.977  0.0566  0.0278 -0.1442
15530W        W19930  22.562   3.061  33.180  0.0231 -0.0434  0.2497
15531W        W19931   7.347   1.793  30.364 -0.1615 -0.3662  0.1162
15532W        W19932  11.806   4.744  34.064 -0.1155  0.0363  0.0317
15533W        W19933   8.082   1.868   7.797  0.3523  0.3239  0.1497
15534W        W19934  24.751   4.936  25.690 -0.2430  0.0557  0.2180
15535W        W19935   8.390   2.256  15.418 -0.2681  0.1134 -0.1675
15536W        W19936  25.382   2.773   4.159  0.2457  0.0698  0.2652
15537W        W19937  22.825   1.998  32.036 -0.2649  0.3179 -0.0546
15538W        W19938  12.363   4.513   0.096  0.1880 -0.0220 -0.1035
15539W        W19939   7.000   4.836  25.045 -0.0370  0.1593  0.3077
15540W        W19940  23.969   3.590  23.029 -0.1459  0.2449 -0.2022
15541W        W19941  24.279   0.030  23.084 -0.0830 -0.1904 -0.2363
15542W        W19942  11.087   5.599  13.992 -0.0951  0.1787 -0.3048
15543W        W19943  25.863   2.846   6.781 -0.0857 -0.0495 -0.1518
15544W        W19944  21.277   1.154  33.380 -0.0661  0.1643 -0.3638
15545W        W19945   5.385   3.578  35.861  0.0186 -0.0790 -0.0635
15546W        W19946  21.432   5.374  28.631 -0.1373 -0.2533 -0.3843
15547W        W19947   9.692   0.789  35.330 -0.1658  0.1800  0.0575
15548W        W19948  21.994   2.116   5.854 -0.0669 -0.2324 -0.0528
15549W        W19949  24.488   0.315  33.531 -0.0593  0.1067  0.1263
15550W        W19950   4.708   0.879   2.628 -0.0372  0.1011 -0.1741
15551W        W19951  20.906   2.480  25.774  0.0806  0.1418  0.1525
15552W        W19952  13.506   3.787  33.816 -0.2018 -0.1003  0.0745
15553W        W19953  16.522   1.445  26.602 -0.1842 -0.0779 -0.0150
15554W        W19954  23.772   6.105  23.733  0.0885 -0.1083  0.2230
15555W        W19955   0.071   6.060   1.749  0.1737 -0.1493  0.1613
15556W        W19956  22.543   5.544  28.655  0.0330  0.2871 -0.0733
15557W        W19957   7.343   1.254  13.048  0.0640  0.0469 -0.0467
15558W        W19958  21.396   2.350   0.091  0.4702 -0.4528 -0.0406
15559W        W19959  21.549   3.530  26.083  0.3387  0.0178 -0.0012
15560W        W19960  13.580   4.396   3.715 -0.3151  0.3076  0.1944
15561W        W19961  24.173   5.103   2.997  0.0223 -0.1341  0.0413
15562W        W19962  17.864   5.080  21.483 -0.1898  0.1231 -0.1072
15563W        W19963   2.028   1.368  15.543  0.3064  0.0901 -0.1124
15564W        W19964   9.822   3.086  33.153  0.0292 -0.1279 -0.0331
15565W        W19965   9.329   6.029   5.567 -0.1270  0.1377  0.1873
15566W        W19966  15.432   3.366  28.793 -0.3460  0.0551  0.2336
15567W        W19967  13.999   3.854  29.567 -0.1878  0.3423 -0.1667
15568W        W19968  12.897   2.222   2.068 -0.0171 -0.0757 -0.4670
15569W        W19969  18.039   6.382   4.091  0.1517  0.1593 -0.1855
15570W        W19970  19.790   3.257   0.687  0.0416 -0.0365  0.0724
15571W        W19971   8.254   1.896  29.322  0.1345  0.1389  0.1597
15572W        W19972   1.407   1.188  21.353 -0.0605  0.0478  0.1664
15573W        W19973  16.440   6.326  31.805 -0.0149  0.1695  0.0696
15574W        W19974   5.704   0.990   1.694  0.0994 -0.2710  0.1585
15575W        W19975  14.099   1.680  14.042  0.0012 -0.1200  0.0780
15576W        W19976  12.851   3.950  31.066 -0.0809 -0.1686 -0.1067
15577W        W19977   3.387   4.523  12.880 -0.3199 -0.0360 -0.0305
15578W        W19978  11.202   3.135   3.289 -0.2187  0.3275 -0.0028
15579W        W19979  21.673   0.628  10.608  0.3079 -0.1158  0.0747
15580W        W19980  12.631   6.114  15.423 -0.1559 -0.0416 -0.0047
15581W        W19981   9.595   6.581   6.896  0.2318 -0.1878  0.0811
15582W        W19982  18.258   3.273   6.383  0.1875 -0.0435 -0.0087
15583W        W19983  13.575   4.468   2.601 -0.1587  0.0015 -0.2939
15584W        W19984   0.960   6.497  25.191  0.4282 -0.0390 -0.0008
15585W        W19985  11.776   1.664  21.389 -0.1069  0.0476 -0.0030
15586W        W19986  25.279   3.695  30.212  0.2773 -0.0622  0.0385
15587W        W19987   3.198   0.030  23.114  0.2564  0.0974 -0.0192
15588W        W19988  10.592   2.987  33.610  0.0819  0.0547  0.1835
15589W        W19989   1.403   5.129  10.332  0.0506 -0.1204  0.0241
15590W        W19990  10.084   2.715   0.838 -0.0130 -0.0937 -0.0582
15591W        W19991  23.802   0.483  30.078  0.0117  0.0922  0.0310
15592W        W19992  11.168   4.421   2.966 -0.2655  0.1847  0.0733
15593W        W19993   5.320   4.795  28.140  0.3030 -0.3442  0.0140
15594W        W19994  20.645   5.878   0.877  0.0289  0.0301 -0.0543
15595W        W19995  20.494   4.597  30.683 -0.1265  0.0496 -0.2347
15596W        W19996   2.845   4.668   2.791 -0.2057 -0.0269  0.0717
15597W        W19997  23.557   5.413  29.346 -0.1849 -0.1599  0.2058
15598W        W19998   7.286   2.103  33.184  0.2549  0.2750  0.1442
15599W        W19999  25.019   3.309  29.669 -0.1284 -0.1305 -0.1125
15600W        W20000  22.258   6.054  12.781 -0.0075  0.1067 -0.2294
15601W        W20001  21.880   1.360   8.691 -0.1677 -0.0729 -0.1001
15602W        W20002   2.520   4.154  21.599  0.0042  0.1734  0.0880
15603W        W20003  15.815   5.353   8.114  0.0568 -0.0700 -0.1441
15604W        W20004  24.798   5.580   4.623 -0.0422  0.1375 -0.1604
15605W        W20005  19.628   4.337  30.308 -0.1707 -0.1001  0.1067
15606W        W20006  25.587   5.376  14.124 -0.1647  0.3948 -0.4081
15607W        W20007   1.281   6.180   3.899 -0.0560 -0.6244  0.2489
15608W        W20008   4.196   5.423   7.834  0.2463  0.0451  0.1058
15609W        W20009  23.452   5.823  20.613 -0.1835 -0.0860 -0.0150
15610W        W20010  13.674   5.981  21.434  0.0906 -0.2379  0.1462
15611W        W20011   9.075   3.489  28.771  0.0878  0.0339 -0.3506
15612W        W20012  13.182   1.444  22.203 -0.2340 -0.1900 -0.0580
15613W        W20013  23.172   1.270  12.268  0.0660  0.0308  0.0446
15614W        W20014   7.147   1.335  35.447  0.0486 -0.3805  0.2215
15615W        W20015  21.838   4.562  35.695  0.3577 -0.0257  0.1307
15616W        W20016  19.788   0.778  33.001  0.2047  0.0592 -0.0438
15617W        W20017  24.861   4.286  28.619  0.2648 -0.3009 -0.1426
15618W        W20018   3.806   3.534   8.166 -0.1202 -0.0469 -0.0262
15619W        W20019  12.568   2.182  30.447 -0.3106  0.1665  0.1476
15620W        W20020  15.818   6.068   7.334 -0.2776  0.1003 -0.0556
15621W        W20021  18.271   5.073  34.563 -0.2441 -0.1697 -0.1507
15622W        W20022   6.197   6.302   0.321 -0.2082 -0.2252  0.6109
15623W        W20023   5.594   1.367   2.074  0.1582  0.0055  0.1130
15624W        W20024  21.044   6.525   8.855 -0.0228 -0.2621  0.1291
15625W        W20025  22.601   1.476  21.097 -0.0275  0.0210  0.1643
15626W        W20026  17.594   6.318   0.600  0.0249 -0.0743  0.3127
15627W        W20027  13.273   5.810   3.529 -0.3799  0.2018  0.2116
15628W        W20028   7.353   3.930  10.348  0.1513 -0.1468 -0.1366
15629W        W20029  15.140   6.050   9.287 -0.3307 -0.1056 -0.1024
15630W        W20030  13.690   6.245   6.196 -0.1272 -0.2068 -0.1034
15631W        W20031  25.290   4.193  23.723  0.0119 -0.0935  0.0085
15632W        W20032  17.020   3.593   4.065 -0.1471  0.1319  0.1026
15633W        W20033  18.011   3.915  27.927 -0.1026  0.0589  0.1841
15634W        W20034  17.267   1.438   0.867 -0.2784  0.2073  0.0124
15635W        W20035   5.106   5.563  33.142  0.0185 -0.2947 -0.0793
15636W        W20036  24.865   2.722  24.273  0.1490  0.0090  0.0829
15637W        W20037  11.629   3.691  27.958 -0.0970 -0.1512 -0.2154
15638W        W20038  23.070   6.133  34.392 -0.3408  0.2252 -0.0318
15639W        W20039   2.604   3.726  29.179  0.1985 -0.1119  0.0549
15640W        W20040   2.654   3.384  13.421 -0.0436 -0.2568 -0.1961
15641W        W20041  12.478   5.455  15.815 -0.3313 -0.1961 -0.1710
15642W        W20042   4.574   4.699  11.975  0.0824  0.1109  0.1176
15643W        W20043  25.601   0.605   2.005 -0.0114 -0.0764  0.0868
15644W        W20044   4.797   6.518  15.039 -0.0098 -0.2709 -0.1495
15645W        W20045  25.740   5.753   2.514 -0.0018 -0.0056  0.0313
15646W        W20046  11.548   5.166  26.836  0.1044  0.2716 -0.3055
15647W        W20047  18.861   6.329   9.022 -0.0257 -0.1865 -0.1502
15648W        W20048  17.958   3.408  33.295  0.2385 -0.2856  0.2568
15649W        W20049  24.038   5.696   9.334  0.0202 -0.0702  0.1131
15650W        W20050   9.801   0.542  10.866  0.3032 -0.0990 -0.0723
15651W        W20051  26.160   1.778  25.887 -0.3661  0.1617 -0.1189
15652W        W20052  13.129   3.861  24.227  0.0755 -0.1481  0.4076
15653W        W20053  20.875   4.736  30.156 -0.1150  0.1652 -0.0849
15654W        W20054   2.035   3.147  26.041  0.0185 -0.1367  0.0794
15655W        W20055  15.228   2.465  31.900 -0.2297 -0.1998  0.2023
15656W        W20056  23.462   4.416  29.851  0.0109 -0.0090 -0.1243
15657W        W20057  24.522   6.413   1.671  0.0547 -0.3717  0.0153
15658W        W20058  11.945   5.871  11.232  0.1868  0.0047  0.1095
15659W        W20059  16.600   4.242  27.769 -0.1411 -0.0775 -0.0829
15660W        W20060   6.556   3.706   4.610 -0.0911 -0.1991 -0.1155
15661W        W20061  19.417   0.489  26.859 -0.0081  0.1756  0.1315
15662W        W20062  16.786   4.407  12.390 -0.2172 -0.2342  0.1425
15663W        W20063  21.389   3.635  14.141 -0.2448  0.2101  0.1376
15664W        W20064  26.309   0.658  24.092  0.1692  0.0870  0.0444
15665W        W20065   2.708   2.939   3.305 -0.1644  0.1172 -0.3316
15666W        W20066  20.242   0.315  28.004  0.0125  0.1128  0.2613
15667W        W20067   5.701   5.990   8.733  0.2963 -0.1298  0.0673
15668W        W20068  20.882   1.042   9.433 -0.0791 -0.1021 -0.0643
15669W        W20069  20.176   2.567  35.004 -0.1776  0.0192 -0.1503
15670W        W20070  26.129   3.089   3.725 -0.1692  0.2055  0.3095
15671W        W20071  12.214   5.943   8.657 -0.3657  0.1091 -0.0070
15672W        W20072   0.178   3.357   9.189  0.2815  0.4186  0.0775
15673W        W20073   8.468   4.651  28.603 -0.1464 -0.1060 -0.0633
15674W        W20074   1.926   1.664  21.748 -0.0111 -0.1892  0.0167
15675W        W20075   0.788   0.516   4.728 -0.0251 -0.2684  0.0923
15676W        W20076  13.230   5.425  35.212  0.0920  0.2148  0.1243
15677W        W20077  21.001   1.263   8.931  0.1815 -0.0279  0.0531
15678W        W20078   2.898   5.514   0.016 -0.0199 -0.0199 -0.1530
15679W        W20079   2.311   5.352  32.522 -0.0095 -0.3975 -0.1078
15680W        W20080  15.461   6.455  32.155 -0.1157 -0.0414 -0.0970
15681W        W20081   3.940   4.814  13.695 -0.0735  0.3133  0.0782
15682W        W20082  12.602   3.124  12.947 -0.2658 -0.0836 -0.1815
15683W        W20083  15.214   5.650   6.878  0.0513 -0.0883 -0.2362
15684W        W20084   5.140   4.443  24.849 -0.1765  0.1116 -0.0175
15685W        W20085  19.497   4.230   9.780 -0.2253 -0.0480  0.3442
15686W        W20086  15.221   1.373  26.130 -0.1040  0.1268 -0.2916
15687W        W20087  14.930   1.872  28.803 -0.0137 -0.0421  0.2507
15688W        W20088  23.059   0.300   5.126  0.0256 -0.2046  0.0504
15689W        W20089  24.606   2.667  33.849 -0.1428  0.2162  0.2188
15690W        W20090   9.754   2.630  12.637  0.1250  0.1553  0.1856
15691W        W20091  24.787   4.056  26.824  0.4013  0.2564 -0.0083
15692W        W20092   7.086   0.104  23.030 -0.0763 -0.0460  0.1810
15693W        W20093  17.190   0.705  23.169 -0.0185  0.1136  0.2145
15694W        W20094  17.075   2.686  29.074  0.2383  0.2332  0.0111
15695W        W20095  13.544   4.810  12.778  0.3651  0.1285 -0.1396
15696W        W20096  15.749   2.772   2.894  0.2303  0.0031  0.2456
15697W        W20097  15.021   1.383   0.054 -0.4458  0.0336 -0.2666
15698W        W20098  20.970   6.202   6.516  0.0430 -0.0115 -0.2358
15699W        W20099  10.242   2.028  27.800  0.0184  0.0921  0.0103
15700W        W20100  23.935   5.449  30.867  0.1579 -0.1165 -0.0890
15701W        W20101   9.070   3.992  29.086 -0.0021  0.0356 -0.2216
15702W        W20102  22.035   1.819  28.860  0.2989  0.0028 -0.1668
15703W        W20103  21.820   5.707  30.468  0.0991 -0.0111  0.0395
15704W        W20104  24.544   0.522   8.711  0.1858 -0.2140 -0.2487
15705W        W20105   5.167   5.952   6.833 -0.0379  0.1297  0.0967
15706W        W20106  21.240   0.120  29.240  0.0427 -0.2223  0.0019
15707W        W20107   7.473   5.886  31.654  0.0196  0.0436  0.0390
15708W        W20108  16.803   5.400  35.761 -0.0073 -0.0066  0.1862
15709W        W20109  19.361   0.776  24.824 -0.1168 -0.0654 -0.4027
15710W        W20110   9.605   6.428   9.133 -0.4025 -0.0407  0.0384
15711W        W20111   3.964   4.321  23.676 -0.2650  0.0407  0.2625
15712W        W20112   8.137   2.963   2.798  0.2048  0.1067  0.0930
15713W        W20113  11.784   0.906  23.804  0.0141 -0.1545 -0.1131
15714W        W20114  17.760   5.088  13.343  0.0315 -0.5598 -0.0189
15715W        W20115  19.365   6.524   9.995 -0.1765 -0.1297  0.1707
15716W        W20116   2.159   2.618   8.546 -0.1314 -0.2487  0.0110
15717W        W20117  17.943   0.836  24.890  0.1336 -0.0011  0.2471
15718W        W20118  10.288   0.987  15.628 -0.0050 -0.2388 -0.0110
15719W        W20119  11.509   3.056  27.357  0.1520  0.2043  0.2001
15720W        W20120  14.091   6.034  13.017 -0.2312 -0.0995 -0.2601
15721W        W20121   0.940   5.891   5.766 -0.2099 -0.0176  0.1146
15722W        W20122   1.372   6.255  31.053 -0.1626 -0.0167  0.3117
15723W        W20123   5.376   4.250   3.273  0.1129  0.2122 -0.1961
15724W        W20124   3.687   6.131  22.515 -0.0329 -0.0232 -0.0066
15725W        W20125   5.178   3.789  23.626  0.1803  0.0579  0.2286
15726W        W20126   8.607   0.608   2.557 -0.0058  0.0211 -0.5106
15727W        W20127  21.661   1.486  29.003  0.1943  0.1314 -0.4139
15728W        W20128  16.112   1.715  20.876  0.3823  0.1373  0.1924
15729W        W20129   1.878   0.656  23.024  0.0926  0.1071  0.0604
15730W        W20130  19.959   1.680  11.637  0.0297  0.2048 -0.2075
15731W        W20131  24.932   6.317   4.004 -0.0857  0.1824 -0.1056
15732W        W20132   6.655   3.571   0.166 -0.1034 -0.2043  0.0658
15733W        W20133  19.604   2.959  30.386  0.1488 -0.2605  0.3500
15734W        W20134  17.341   3.510   0.822 -0.1775  0.3419  0.0358
15735W        W20135   9.754   2.148   7.564 -0.0201  0.0400  0.0705
15736W        W20136  17.187   3.733  11.664 -0.0568  0.0329 -0.2097
15737W        W20137   6.916   0.337  20.763 -0.2769  0.0836  0.2487
15738W        W20138  20.415   5.840  31.100  0.0804 -0.0155  0.5286
15739W        W20139  10.405   4.149  11.250 -0.0025 -0.0268  0.2361
15740W        W20140  24.038   0.036   2.896 -0.0152 -0.0006  0.0379
15741W        W20141   5.151   0.231  34.371 -0.1413 -0.2187  0.0257
15742W        W20142   5.640   5.419  12.730 -0.3123  0.0202 -0.0364
15743W        W20143  16.968   0.376  10.033 -0.3616  0.0852 -0.1114
15744W        W20144  10.289   1.758  20.999  0.1483 -0.1123 -0.1899
15745W        W20145   7.131   0.541   0.952 -0.2999  0.0803  0.0951
15746W        W20146   3.652   3.336  21.173 -0.0851 -0.0919  0.0676
15747W        W20147  25.354   3.081  12.370  0.0171  0.2404 -0.2261
15748W        W20148  23.686   2.171   6.567  0.1011  0.0218  0.1268
15749W        W20149   0.164   1.129   9.496 -0.0733 -0.1439 -0.0724
15750W        W20150  23.216   2.421   5.906  0.1937 -0.0119  0.1478
15751W        W20151   3.329   4.367  24.213  0.1992 -0.0540  0.1598
15752W        W20152   7.978   5.383   2.754 -0.0621 -0.1266 -0.3531
15753W        W20153  15.696   0.695  25.733 -0.0848 -0.0252  0.3241
15754W        W20154  24.829   3.542   6.404 -0.0195  0.2767 -0.0854
15755W        W20155   2.685   0.167  27.963 -0.3345 -0.0008 -0.0471
15756W        W20156   5.064   4.125   6.629  0.1062  0.2555 -0.3541
15757W        W20157  20.473   4.736   5.075  0.2039  0.1492 -0.1531
15758W        W20158  15.104   3.912  27.906 -0.2422  0.1868 -0.0391
15759W        W20159   9.163   0.988  10.515  0.0910 -0.0251  0.0598
15760W        W20160   0.288   1.560   1.131 -0.1588 -0.2315 -0.3371
15761W        W20161  10.070   2.406  21.830 -0.1066  0.3491 -0.3136
15762W        W20162   1.390   0.217  24.337  0.1091 -0.1115 -0.0601
15763W        W20163  17.355   1.953  20.714  0.0462  0.1999  0.2563
15764W        W20164  21.578   6.351   9.511 -0.2603 -0.1409 -0.2254
15765W        W20165  25.610   4.610  22.065  0.0790 -0.0206  0.1729
15766W        W20166   1.537   0.587  21.629  0.1988  0.0309  0.1247
15767W        W20167  25.488   1.402  24.187 -0.0473 -0.0990 -0.0731
15768W        W20168  16.141   1.603  30.839 -0.2173  0.0241  0.3415
15769W        W20169   5.312   3.365  33.960 -0.0901 -0.1901  0.1448
15770W        W20170  13.144   6.332  22.776  0.1912  0.2564 -0.0880
15771W        W20171   3.960   5.602  23.182 -0.2235 -0.1546 -0.2420
15772W        W20172  24.109   0.965   9.972  0.2553  0.2198 -0.2169
15773W        W20173   0.921   1.559  12.037  0.0685  0.0224  0.0661
15774W        W20174   6.708   2.338  30.869  0.0444  0.1012 -0.1614
15775W        W20175  15.197   3.391  13.675 -0.2398 -0.0466  0.1164
15776W        W20176  26.218   4.179  22.565 -0.2664 -0.0565  0.0762
15777W        W20177   1.282   5.300  11.067 -0.0624  0.2361 -0.0121
15778W        W20178  15.676   6.085   0.071  0.4996 -0.0110  0.0933
15779W        W20179  15.589   5.130  24.598  0.0436  0.0046 -0.2346
15780W        W20180   2.305   3.769  13.223  0.5193 -0.4156 -0.1970
15781W        W20181   6.265   4.446  24.865  0.1495 -0.1839  0.1529
15782W        W20182  14.608   0.722  15.726 -0.2358 -0.0850 -0.0079
15783W        W20183  16.961   6.327  26.862 -0.2253  0.3476  0.1876
15784W        W20184  17.026   5.615   8.733 -0.0715  0.2504 -0.4446
15785W        W20185  10.391   3.225  12.918 -0.3352  0.1725  0.0806
15786W        W20186  24.343   2.786  14.852  0.3109  0.2780  0.0298
15787W        W20187  18.236   2.244   8.375  0.0969 -0.3117  0.1454
15788W        W20188  20.818   4.115   6.005  0.2223 -0.0022 -0.1311
15789W        W20189   0.030   1.575  30.619 -0.2608  0.0718  0.0521
15790W        W20190  15.143   4.500   8.547  0.2169 -0.1414 -0.0094
15791W        W20191   4.073   3.611  32.844 -0.0513 -0.0027 -0.1338
15792W        W20192   9.840   2.131  30.333  0.0418 -0.1175  0.1386
15793W        W20193   2.549   1.221  27.141  0.0893 -0.2071  0.1005
15794W        W20194  14.439   3.574  22.802 -0.1118  0.0110  0.0139
15795W        W20195  20.187   2.530   6.323  0.1052 -0.1028  0.0600
15796W        W20196  11.429   5.085  15.532  0.2004 -0.0050  0.1823
15797W        W20197  16.617   5.032  23.034 -0.0853  0.2914  0.0517
15798W        W20198   9.243   5.245  14.362 -0.0641 -0.1254 -0.1727
15799W        W20199  13.450   3.508  15.129  0.3881 -0.4223 -0.2343
15800W        W20200   8.180   3.487   4.172  0.3022  0.2816 -0.3962
15801W        W20201   1.150   2.358  34.236 -0.0354 -0.1309 -0.0368
15802W        W20202   0.231   1.781   7.808 -0.0466 -0.0109 -0.0884
15803W        W20203  12.973   4.644   4.151  0.1116  0.1657 -0.0931
15804W        W20204   1.638   1.455  25.897 -0.0061 -0.1681  0.3226
15805W        W20205   2.244   6.222  20.620  0.0134 -0.0744  0.1391
15806W        W20206  26.038   1.925  30.862 -0.3776 -0.0643 -0.1095
15807W        W20207  24.928   6.396   9.665 -0.2882  0.2131 -0.1126
15808W        W20208  12.793   5.736  31.380  0.0773  0.1006 -0.2492
15809W        W20209  17.646   4.027  29.085  0.2542  0.3984  0.2238
15810W        W20210  19.993   5.129   0.878  0.0317 -0.1873 -0.3759
15811W        W20211  12.061   4.678   0.973 -0.0552  0.1679 -0.1464
15812W        W20212  21.281   1.034  27.740  0.0727  0.0131  0.0720
15813W        W20213   8.110   3.001  14.345  0.0502  0.1321  0.3720
15814W        W20214   6.998   2.160  15.977  0.2123 -0.0148  0.1274
15815W        W20215  26.045   2.237  31.955  0.0191 -0.1112  0.0087
15816W        W20216  15.565   4.076  29.588 -0.2800  0.1088  0.1626
15817W        W20217   2.425   4.248   6.444 -0.1277 -0.1000 -0.0427
15818W        W20218  16.571   0.196   4.613  0.0889  0.0763 -0.1675
15819W        W20219  25.979   0.248  24.186 -0.0059  0.0147  0.1061
15820W        W20220  11.922   3.663  22.141  0.0736 -0.0027  0.0584
15821W        W20221  24.831   0.826  27.694 -0.2475 -0.3155 -0.0131
15822W        W20222   2.966   1.549  24.631 -0.4493 -0.1959 -0.1539
15823W        W20223  24.383   6.035  33.837 -0.1105  0.0234 -0.0371
15824W        W20224  20.452   6.259   4.160 -0.1873  0.0549 -0.2767
15825W        W20225  18.447   1.836   8.033  0.1830  0.0567  0.3560
15826W        W20226  18.466   5.704  15.264 -0.0309  0.1552  0.1131
15827W        W20227  18.295   1.001  32.000  0.0829 -0.2586  0.3156
15828W        W20228  14.271   5.263  35.744 -0.0568 -0.0703 -0.0364
15829W        W20229  21.913   1.561   4.839  0.3235 -0.2233  0.1151
15830W        W20230   7.894   1.264   5.721  0.1551 -0.0042  0.0340
15831W        W20231   6.915   0.076  35.214  0.1933 -0.2375  0.0839
15832W        W20232  13.653   0.744  23.189 -0.0971 -0.1766  0.0486
15833W        W20233  12.384   4.104  35.217 -0.0542 -0.1785 -0.1925
15834W        W20234  22.229   5.139  11.894  0.0319  0.1496 -0.0231
15835W        W20235  15.338   4.011  25.998  0.1099  0.1152 -0.1023
15836W        W20236   6.571   4.537  26.382 -0.1532  0.1047 -0.1475
15837W        W20237  10.404   1.668  26.293 -0.2515 -0.1647 -0.1469
15838W        W20238   3.355   4.564  32.858  0.0669  0.2121 -0.1273
15839W        W20239   1.679   0.967  26.794  0.0351  0.4251  0.1032
15840W        W20240   3.415   2.325  31.641 -0.0010 -0.0593 -0.0392
15841W        W20241  10.833   5.609   6.854 -0.0135  0.2377 -0.1864
15842W        W20242  10.579   5.112   8.932 -0.3485  0.0667 -0.2381
15843W        W20243  24.057   4.586  25.147  0.0208  0.1641  0.0744
15844W        W20244  12.313   2.262  20.981 -0.1337 -0.2621 -0.2184
15845W        W20245   0.095   5.884  30.295  0.1796  0.1668 -0.0704
15846W        W20246  17.491   5.135   1.833  0.0974  0.3870 -0.4533
15847W        W20247  22.729   1.773  33.968  0.1127  0.2156  0.1258
15848W        W20248   7.264   3.293  32.019 -0.1411  0.3218 -0.0318
15849W        W20249  14.040   0.557   7.041  0.0631 -0.0305  0.0660
15850W        W20250  12.682   5.930   1.211 -0.2178 -0.1268 -0.0167
15851W        W20251   6.841   0.015   1.072 -0.1311  0.1854 -0.2224
15852W        W20252  24.197   4.607  31.956 -0.1944  0.2556  0.3766
15853W        W20253  18.746   5.901   5.327  0.1112  0.1772 -0.0950
15854W        W20254   6.252   1.292  33.831 -0.0608  0.0333 -0.1104
15855W        W20255  23.134   1.866   7.691 -0.1782  0.0363 -0.0477
15856W        W20256   5.851   3.269  28.242 -0.1433 -0.2085  0.1431
15857W        W20257  16.867   0.341  26.913  0.1946  0.2060  0.0528
15858W        W20258   7.584   4.910  33.549  0.0504 -0.0500 -0.1117
15859W        W20259   0.182   5.496   2.281  0.0570 -0.0136 -0.0960
15860W        W20260  23.095   5.521  15.136 -0.0642  0.0569 -0.0692
15861W        W20261  18.028   2.589  12.515 -0.1802 -0.0205  0.2139
15862W        W20262  11.097   0.429  22.528 -0.2644 -0.2847 -0.1073
15863W        W20263   4.628   4.471  28.314 -0.0061 -0.0148  0.0485
15864W        W20264  16.950   0.797  24.092 -0.1076 -0.0469 -0.1022
15865W        W20265  18.782   1.597  32.045  0.0944  0.0963  0.2484
15866W        W20266   9.970   1.696  35.865  0.4341  0.1304  0.1452
15867W        W20267  11.141   0.712  23.758  0.0471 -0.0492  0.2408
15868W        W20268  15.004   0.818  14.693 -0.1239  0.0056 -0.0714
15869W        W20269  25.890   4.344  20.815 -0.0095 -0.0654  0.1895
15870W        W20270   2.885   0.309  21.818 -0.2063  0.1558  0.1090
15871W        W20271  25.986   1.283   5.200  0.2818  0.1979  0.0600
15872W        W20272  24.979   4.741  24.622 -0.0967  0.0091 -0.3892
15873W        W20273   5.852   4.765   0.872 -0.1175  0.0178 -0.1407
15874W        W20274  10.249   1.804   0.853  0.2867 -0.1848 -0.0938
15875W        W20275   0.774   4.361  28.185 -0.0118 -0.0892 -0.1440
15876W        W20276   1.110   0.098  31.277  0.3079  0.0313 -0.0640
15877W        W20277   2.569   3.828  30.072 -0.2013  0.3997 -0.5092
15878W        W20278  13.203   2.548  21.939  0.1560  0.0152 -0.1813
15879W        W20279  25.449   1.411  22.746  0.2603 -0.1424 -0.0377
15880W        W20280   5.197   0.092  24.190  0.0566  0.1800  0.0164
15881W        W20281   3.296   2.800  31.773 -0.0502 -0.0654 -0.2485
15882W        W20282  20.571   3.408  27.916 -0.0875  0.0561  0.1129
15883W        W20283   6.856   5.267   3.136  0.0911 -0.3481 -0.1373
15884W        W20284  12.100   4.830  33.365  0.0174  0.0462 -0.2406
15885W        W20285  20.439   3.249  22.725 -0.0161 -0.3073 -0.0270
15886W        W20286   5.070   1.207  11.491 -0.1873 -0.1723 -0.0761
15887W        W20287  24.466   6.565  20.530  0.1115  0.1962  0.1307
15888W        W20288  11.577   5.196   1.756 -0.2786  0.2980 -0.1255
15889W        W20289  21.953   0.668  12.413 -0.2106  0.0815 -0.1860
15890W        W20290   8.238   2.300  14.970  0.0891 -0.1304  0.0980
15891W        W20291  21.253   2.063  10.312 -0.0640  0.0861  0.0953
15892W        W20292  22.459   0.402  20.752 -0.1503 -0.0367 -0.4267
15893W        W20293  16.449   3.121  21.842 -0.0486  0.2504 -0.1036
15894W        W20294   6.280   0.740  29.015 -0.0481 -0.2282  0.0028
15895W        W20295  16.751   5.049  20.680  0.0899  0.0053 -0.4656
15896W        W20296  22.867   2.257  25.612 -0.2873 -0.0918  0.0121
15897W        W20297  11.251   6.009  22.363 -0.1599 -0.1541  0.2725
15898W        W20298  24.720   0.524   7.384 -0.0458 -0.2851  0.2455
15899W        W20299   0.998   5.363  14.088  0.0610 -0.0803  0.2959
15900W        W20300   3.484   2.684  29.302 -0.3208  0.0444  0.1382
15901W        W20301  24.026   1.397   4.410  0.1033 -0.0107 -0.0365
15902W        W20302   7.071   2.505   4.193 -0.2373 -0.0005 -0.0551
15903W        W20303  14.365   5.044   1.824  0.3241 -0.2588  0.0236
15904W        W20304  19.202   6.327   7.946 -0.2763 -0.4279 -0.2983
15905W        W20305   3.500   2.556  33.628  0.2203  0.3130  0.0711
15906W        W20306   2.758   1.567  21.631 -0.2809  0.2280  0.0018
15907W        W20307  25.902   5.904  11.168 -0.0444  0.0655 -0.2489
15908W        W20308   7.583   6.135  34.458  0.0618  0.1901 -0.1121
15909W        W20309  22.356   6.552   0.253  0.0103 -0.0219 -0.1075
15910W        W20310   6.269   3.786  29.054 -0.1833  0.1527  0.3176
15911W        W20311  12.044   2.716   7.149 -0.0087 -0.2600  0.3508
15912W        W20312  12.585   4.267   7.253 -0.1976 -0.2156  0.2635
15913W        W20313  25.111   6.057  26.078 -0.0504  0.0304  0.0581
15914W        W20314  12.544   2.194   6.063 -0.0234  0.1549  0.0978
15915W        W20315   0.427   4.324  22.646 -0.1278 -0.2501  0.0624
15916W        W20316  15.340   6.081   6.533 -0.1523  0.0913  0.0164
15917W        W20317   1.846   2.168  21.883  0.2045 -0.1762 -0.0170
15918W        W20318   8.041   5.581  21.625  0.0570 -0.1369 -0.1333
15919W        W20319   4.017   4.030  22.658 -0.1860 -0.1065 -0.0417
15920W        W20320  12.326   4.810  28.179  0.0654 -0.2503 -0.1170
15921W        W20321   7.792   2.421   4.490 -0.1703  0.0316  0.2827
15922W        W20322  12.154   0.952  35.662 -0.1032 -0.0046 -0.4005
15923W        W20323  11.377   4.717  21.632 -0.0661  0.2809  0.2270
15924W        W20324   3.837   1.406   7.562  0.2435 -0.0962 -0.1404
15925W        W20325  18.644   2.039  10.501  0.0313  0.1089 -0.0028
15926W        W20326  15.341   0.510  21.797  0.0263 -0.3413 -0.3613
15927W        W20327  20.994   5.177  23.584  0.3735 -0.0325 -0.2624
15928W        W20328   8.393   2.937  33.025 -0.0790 -0.1856  0.2912
15929W        W20329  11.371   4.993  13.455  0.0685  0.1187 -0.0247
15930W        W20330   3.038   4.106  23.839  0.1887 -0.0892 -0.5465
15931W        W20331   1.745   1.952   2.567  0.0932  0.0384 -0.1561
15932W        W20332  22.806   5.665  10.021 -0.1250  0.3211  0.1580
15933W        W20333  26.082   4.858  35.986 -0.1284  0.1963 -0.1318
15934W        W20334   3.140   2.518  24.727 -0.2666 -0.0164 -0.0260
15935W        W20335   2.467   0.947  12.239  0.0139 -0.4665  0.1011
15936W        W20336  12.127   2.322  12.581 -0.0304  0.2798  0.1835
15937W        W20337  21.752   4.833  35.108  0.2467  0.0557  0.1857
15938W        W20338  25.584   5.844  19.978  0.1929  0.0390 -0.1559
15939W        W20339   9.776   6.219   0.650 -0.1853  0.0767  0.4030
15940W        W20340  20.374   2.132   9.061 -0.3732  0.3353  0.1232
15941W        W20341  19.483   4.207   4.176 -0.1183 -0.0838 -0.2146
15942W        W20342   7.053   3.260   9.468 -0.1870  0.0259 -0.2102
15943W        W20343   6.126   3.385  33.169 -0.1231  0.2376 -0.0901
15944W        W20344  16.345   3.714  31.875 -0.1759 -0.2162  0.1522
15945W        W20345  16.025   2.915   1.462  0.1218 -0.3275  0.2814
15946W        W20346   7.794   4.289  32.959 -0.1351  0.2383  0.1779
15947W        W20347   5.507   5.309  33.007  0.1332  0.2191 -0.0384
15948W        W20348   2.472   1.882  26.295  0.1419 -0.3294 -0.5153
15949W        W20349  24.182   1.869   9.386  0.2307  0.0121 -0.1541
15950W        W20350  14.323   4.500  13.696 -0.0964  0.0423 -0.2594
15951W        W20351  11.670   5.653  14.109 -0.2119 -0.1495  0.2088
15952W        W20352  22.962   2.726  29.251  0.3935  0.0258 -0.1510
15953W        W20353   3.571   1.201   6.775  0.3387 -0.1298  0.0753
15954W        W20354  26.209   3.588   3.781 -0.0882 -0.3567  0.0766
15955W        W20355  10.642   5.398  27.971  0.1157  0.0982 -0.0244
15956W        W20356  24.059   3.295  23.509  0.1349  0.3008 -0.0702
15957W        W20357  11.725   3.811   7.117  0.1364  0.4005  0.1324
15958W        W20358  24.505   1.600  10.050 -0.2084  0.2124 -0.4280
15959W        W20359  17.211   3.448  22.122 -0.4610  0.1714 -0.0312
15960W        W20360  19.814   3.805   0.865 -0.3701  0.1583 -0.0051
15961W        W20361   1.516   2.724  34.395  0.2889  0.2402  0.0120
15962W        W20362   0.788   6.509  13.286 -0.0049  0.1478 -0.1592
15963W        W20363   3.034   4.350  27.271  0.0068  0.4141  0.2285
15964W        W20364  13.577   0.655   4.218  0.1053 -0.0799  0.0689
15965W        W20365  17.782   1.276   8.530  0.0755  0.1695 -0.0116
15966W        W20366   2.611   3.167  35.801  0.0042  0.0055  0.0018
15967W        W20367  10.766   3.017   5.478 -0.0670 -0.3001 -0.0207
15968W        W20368  21.174   0.872  11.780  0.0020 -0.0104 -0.2484
15969W        W20369  25.667   4.374  29.438  0.1699 -0.0166  0.1055
15970W        W20370  14.592   4.789  31.534  0.2381 -0.0637 -0.0730
15971W        W20371  21.532   0.435   6.525  0.2069 -0.2158 -0.3616
15972W        W20372  22.034   6.294  34.248  0.1625 -0.0245  0.1358
15973W        W20373   3.437   6.010  28.049  0.0642 -0.1695  0.1567
15974W        W20374   3.533   0.411  29.896 -0.0308  0.0703 -0.0308
15975W        W20375  21.806   5.721  31.190  0.3560  0.0809 -0.1050
15976W        W20376  15.250   6.420   1.226 -0.0388  0.0742 -0.0587
15977W        W20377  13.319   3.309   9.315 -0.2424  0.4450  0.0462
15978W        W20378   1.815   1.623  24.614 -0.0442 -0.2112  0.1216
15979W        W20379  13.989   0.743  10.852  0.3301 -0.2186 -0.1043
15980W        W20380  19.929   2.402   1.037 -0.3744 -0.0366 -0.0387
15981W        W20381   1.805   5.465  25.352 -0.0038 -0.1080 -0.2677
15982W        W20382  12.498   2.298  12.232 -0.1686  0.2243 -0.2652
15983W        W20383   0.408   5.503  13.401 -0.0533  0.0056  0.0429
15984W        W20384   9.976   1.821   7.901 -0.2594  0.1132 -0.0443
15985W        W20385   5.408   0.710   5.654  0.0410  0.2217 -0.2559
15986W        W20386   2.687   5.125  26.897 -0.1685  0.0234  0.1898
15987W        W20387   9.463   6.482   8.228  0.1356 -0.2327  0.1362
15988W        W20388  10.643   5.771  34.379  0.2041  0.0674 -0.2218
15989W        W20389   4.996   4.461   4.549 -0.0774 -0.0196 -0.0219
15990W        W20390   1.968   5.742  32.612 -0.0196 -0.2746  0.1824
15991W        W20391   7.119   1.217  25.021 -0.1608  0.0547  0.1020
15992W        W20392  19.119   1.450  22.232  0.1812 -0.0523 -0.2149
15993W        W20393   9.854   1.166  29.351  0.3816 -0.1834  0.0512
15994W        W20394  17.669   6.022   1.897  0.1401 -0.2195 -0.1591
15995W        W20395   6.630   3.405   6.301  0.0366 -0.1962  0.0557
15996W        W20396  13.479   0.214  29.912 -0.1161  0.1161 -0.1885
15997W        W20397  12.977   2.763  12.853 -0.0061  0.4580 -0.2578
15998W        W20398  10.778   6.274   7.658  0.0155  0.0404 -0.2710
15999W        W20399  22.554   5.409   2.196 -0.0768  0.3036 -0.1128
16000W        W20400  16.673   5.303  21.154  0.1178 -0.0088  0.2355
16001W        W20401   4.979   3.697  23.119  0.1068 -0.0454  0.2337
16002W        W20402  18.327   0.922   1.180  0.1041  0.0217 -0.1705
16003W        W20403  16.943   3.196  20.892  0.0411  0.3700 -0.1489
16004W        W20404  23.403   4.014   7.507 -0.2143  0.0096 -0.0731
16005W        W20405  15.733   0.256  33.029  0.1032 -0.5141  0.0156
16006W        W20406  23.868   5.962  26.075 -0.1367  0.2602 -0.0536
16007W        W20407  13.169   5.799  30.951  0.1188  0.0601  0.2029
16008W        W20408  17.442   1.743   5.913  0.0472  0.0736 -0.2440
16009W        W20409  25.701   6.287   5.119 -0.1869 -0.2298  0.0920
16010W        W20410  12.708   6.522   1.504  0.0385  0.0492  0.3346
16011W        W20411  15.514   6.406  23.491  0.1310  0.0080  0.2669
16012W        W20412   3.781   1.083  35.608  0.2201  0.6293 -0.0643
16013W        W20413  12.945   0.018  31.356 -0.0505 -0.1764 -0.2149
16014W        W20414  17.094   2.740  25.470 -0.0942  0.3132  0.1288
16015W        W20415  13.349   5.848   7.857  0.0613  0.1724  0.0377
16016W        W20416  23.765   6.045   6.661  0.0355  0.0433  0.2551
16017W        W20417   3.801   6.441   3.481  0.1757  0.3085  0.0412
16018W        W20418  23.448   5.484  21.053  0.2428  0.2221 -0.0017
16019W        W20419   5.812   1.788  25.903  0.1495  0.0008 -0.0713
16020W        W20420  13.305   5.935   6.101  0.0468 -0.2758 -0.0217
16021W        W20421   0.124   2.503  12.402  0.1303  0.0861  0.0164
16022W        W20422  13.305   1.700  22.688 -0.2666 -0.0377  0.3061
16023W        W20423   6.191   5.943  11.241  0.2976 -0.0075 -0.1708
16024W        W20424  17.344   1.219  14.946 -0.0394 -0.0111  0.0322
16025W        W20425  13.160   1.573   1.200  0.0285 -0.1005  0.2743
16026W        W20426  21.607   2.183  31.890 -0.0945 -0.1290 -0.1611
16027W        W20427   0.395   0.553   7.228  0.1181 -0.1259 -0.1393
16028W        W20428  21.706   3.195  11.119 -0.0073  0.0606  0.1180
16029W        W20429   4.258   5.640  21.380 -0.0668 -0.0701 -0.2557
16030W        W20430   1.436   1.157  24.643  0.1673 -0.1431  0.2639
16031W        W20431  11.524   1.652  34.070  0.1874 -0.2965 -0.0205
16032W        W20432   3.405   0.728   0.916  0.0613 -0.0373  0.0992
16033W        W20433  14.444   1.170   2.740 -0.1060  0.2175  0.1133
16034W        W20434   7.405   5.065  28.327 -0.0524  0.0975  0.0669
16035W        W20435  18.922   4.692  29.441  0.1424  0.2288  0.0969
16036W        W20436  13.061   5.847  21.109 -0.0576 -0.2040  0.1027
16037W        W20437  24.092   3.232  29.070 -0.0985  0.1336 -0.4209
16038W        W20438  12.221   4.046   2.187 -0.1504 -0.2540  0.0433
16039W        W20439  23.218   2.009  23.092  0.1045 -0.4666 -0.4898
16040W        W20440  15.934   2.444   3.190 -0.3750  0.1427 -0.0349
16041W        W20441  14.984   2.723  20.609 -0.1467 -0.0774  0.1499
16042W        W20442  10.896   5.316  31.645  0.0418  0.2347  0.0917
16043W        W20443   6.507   4.315   7.976  0.0002  0.0861 -0.1434
16044W        W20444  16.274   2.150  32.009  0.0799  0.2347  0.2931
16045W        W20445   3.179   2.646   8.189 -0.1478  0.1217  0.0169
16046W        W20446  24.731   5.334  15.510  0.1573  0.0979 -0.2486
16047W        W20447   7.643   1.197  10.001 -0.1503 -0.2922 -0.0931
16048W        W20448   5.835   2.553  35.037 -0.0094 -0.0197 -0.3634
16049W        W20449   1.974   5.500   6.198  0.0757  0.0767 -0.0661
16050W        W20450   3.755   1.154  13.523  0.1207 -0.1235  0.0989
16051W        W20451  25.306   5.142   9.513  0.0134 -0.0426  0.0750
16052W        W20452  21.156   2.773  33.144  0.2608 -0.0651 -0.1797
16053W        W20453  12.263   2.892  26.507 -0.1742  0.0205  0.0722
16054W        W20454   8.755   6.251  24.665 -0.0288 -0.1766  0.0566
16055W        W20455  20.776   0.657  14.716  0.2601 -0.0315 -0.2682
16056W        W20456   0.715   4.020  11.563  0.0825  0.2188  0.0479
16057W        W20457   5.061   2.015  10.251 -0.1291 -0.0949 -0.3195
16058W        W20458  13.715   6.332  27.221 -0.0479  0.2459  0.0329
16059W        W20459   0.677   5.735  33.241 -0.0919  0.0493 -0.0197
16060W        W20460   7.731   0.416   5.127  0.0447 -0.3825  0.0072
16061W        W20461   0.325   5.603  22.328 -0.2310 -0.0955  0.0435
16062W        W20462  19.828   3.559   7.744  0.0265  0.0831  0.2072
16063W        W20463   0.627   4.011  34.919  0.0564  0.0380 -0.1868
16064W        W20464   7.401   1.924  22.591  0.1866 -0.1298  0.2246
16065W        W20465  25.210   5.615  12.709 -0.1654 -0.1210 -0.1984
16066W        W20466  19.882   1.194  21.183 -0.0709 -0.5288  0.0063
16067W        W20467   4.483   0.821  26.118  0.2579 -0.0768  0.0999
16068W        W20468   7.754   5.873   0.661 -0.1985  0.1530 -0.1045
16069W        W20469   9.395   3.764   3.097  0.1758 -0.1446  0.2351
16070W        W20470   9.520   4.457  11.136  0.1244  0.4658 -0.1402
16071W        W20471   6.428   6.381   5.241  0.3173  0.2266 -0.2118
16072W        W20472  20.196   0.178  23.690  0.0623 -0.1159  0.3259
16073W        W20473  11.819   3.148  26.389  0.4273 -0.0642 -0.2182
16074W        W20474  12.603   3.560  28.817 -0.1041 -0.2734  0.1186
16075W        W20475  14.416   4.032  11.064 -0.1106  0.0779 -0.1280
16076W        W20476  16.673   2.842   0.300 -0.4883  0.1129 -0.1993
16077W        W20477   4.333   2.620  28.559  0.2621  0.1435 -0.0071
16078W        W20478  22.775   4.162  14.136  0.0388 -0.1570  0.1199
16079W        W20479  18.647   3.109  22.152 -0.0195  0.1464 -0.0534
16080W        W20480  17.118   3.488  20.395 -0.4744  0.0861 -0.0412
16081W        W20481  26.194   5.159  24.682 -0.0087  0.0550  0.3344
16082W        W20482  25.038   1.100   3.592 -0.2352  0.3839  0.0265
16083W        W20483   8.996   2.382  26.729 -0.0413  0.0069  0.0135
16084W        W20484   8.475   4.746  34.927  0.0078 -0.0110  0.0066
16085W        W20485  20.235   1.828  12.066 -0.1054 -0.1530 -0.0193
16086W        W20486  15.985   5.704  28.585 -0.1707 -0.0799  0.0462
16087W        W20487  25.897   1.105  21.352  0.0780  0.0226 -0.0684
16088W        W20488  23.894   0.449  21.734  0.2627 -0.2316 -0.1191
16089W        W20489  19.084   2.324  21.259 -0.0766  0.0879  0.0324
16090W        W20490  26.371   5.754  33.260 -0.3531 -0.2612 -0.0318
16091W        W20491   8.154   3.391  13.649 -0.4637  0.2241 -0.1895
16092W        W20492   1.892   2.277   2.197 -0.0099  0.0877  0.3656
16093W        W20493  17.676   3.498  11.480  0.1577 -0.1944  0.0556
16094W        W20494   9.340   1.541   8.713 -0.0461  0.2545  0.0185
16095W        W20495  23.614   5.795   9.145  0.0998  0.0814  0.1503
16096W        W20496  23.363   1.352  35.202 -0.3264 -0.0722 -0.1283
16097W        W20497  18.759   5.458  29.148 -0.1063  0.0468  0.0793
16098W        W20498   1.420   4.245   1.552  0.2401  0.2250  0.0928
16099W        W20499   6.117   2.712  21.709 -0.1809 -0.3646 -0.0060
16100W        W20500  10.092   0.205  33.763 -0.2025  0.1344 -0.1222
16101W        W20501   0.023   1.231   1.838 -0.0693  0.2587 -0.0318
16102W        W20502  13.154   1.896  21.253  0.0191  0.0860 -0.2557
16103W        W20503  15.651   0.727   3.080 -0.1212  0.2155  0.0152
16104W        W20504  16.273   0.906  33.046 -0.0888  0.2995 -0.1840
16105W        W20505   2.542   0.014   4.882 -0.3074  0.1347 -0.3355
16106W        W20506  25.999   3.322   8.400  0.0131  0.1387 -0.2449
16107W        W20507  12.653   3.596  12.561 -0.0656 -0.1003  0.1469
16108W        W20508   8.545   4.499  33.970 -0.0893 -0.0623  0.0804
16109W        W20509  17.107   6.356  14.719  0.5317  0.1485 -0.0029
16110W        W20510  18.838   0.639   1.513  0.6017  0.1230  0.4026
16111W        W20511  11.352   4.134  31.498  0.3432 -0.0009  0.0853
16112W        W20512   1.036   3.074   3.889 -0.2008 -0.1615  0.2435
16113W        W20513   5.715   1.040  14.772  0.0178 -0.0634 -0.1643
16114W        W20514  13.779   1.572   9.340 -0.1419  0.1212  0.1915
16115W        W20515  22.934   1.927  23.503  0.0178  0.2523  0.1185
16116W        W20516  11.969   1.053   4.333  0.2759  0.0769  0.0315
16117W        W20517   5.686   1.175   8.906 -0.1099  0.0152 -0.2595
16118W        W20518   5.740   0.955  13.901 -0.2850 -0.1136 -0.3349
16119W        W20519  19.927   5.230  34.934 -0.0548  0.0547 -0.1421
16120W        W20520  10.700   6.341  26.595  0.1173  0.1114  0.1105
16121W        W20521  11.432   3.575   4.657  0.0791 -0.0399 -0.0367
16122W        W20522  24.526   2.726  29.085  0.2522  0.0056  0.0179
16123W        W20523   2.540   3.510  10.205 -0.0960  0.0519  0.0153
16124W        W20524   9.565   3.295   9.385 -0.0224  0.0439 -0.0885
16125W        W20525  18.354   3.108  11.985  0.1557  0.1231 -0.0596
16126W        W20526  22.313   5.522  33.419 -0.1335 -0.1956 -0.0392
16127W        W20527   5.894   3.880  32.572 -0.2744 -0.3297 -0.1968
16128W        W20528  12.493   1.250   1.982  0.3432  0.4210 -0.3699
16129W        W20529  16.644   2.322  28.170 -0.0274 -0.2186  0.1043
16130W        W20530   2.727   5.855   0.391 -0.0823 -0.1899 -0.0895
16131W        W20531   5.205   4.575  14.173 -0.0681 -0.3926  0.1147
16132W        W20532   7.605   3.016  31.732  0.1829 -0.0193  0.0387
16133W        W20533  14.024   2.356  10.301  0.1177  0.0905 -0.0350
16134W        W20534  14.714   5.534  15.563 -0.0523  0.2585  0.1504
16135W        W20535  18.610   1.751   2.546  0.1410 -0.0793  0.0290
16136W        W20536  13.385   2.125  11.293  0.1908 -0.0481 -0.1726
16137W        W20537  20.175   4.398  11.179 -0.1395 -0.0717  0.2488
16138W        W20538   9.355   3.540  23.279  0.4255  0.0939 -0.0209
16139W        W20539  25.090   0.910  35.175 -0.3975  0.1925 -0.1001
16140W        W20540  15.727   5.268   4.733  0.0517 -0.0602  0.0153
16141W        W20541  20.748   1.199   2.319  0.0189  0.1129  0.1619
16142W        W20542   2.242   2.564  23.780 -0.0960 -0.2813  0.0311
16143W        W20543   2.802   2.299  13.660  0.0611 -0.1328 -0.3241
16144W        W20544   3.292   4.409  33.916 -0.0714 -0.0862  0.2034
16145W        W20545   3.189   0.360   1.906  0.1832  0.2008  0.0633
16146W        W20546  10.978   5.337  11.152 -0.1276 -0.1144  0.1392
16147W        W20547   3.305   3.950   9.522 -0.3397  0.0480  0.2673
16148W        W20548  12.022   1.249   0.346  0.1428  0.2820  0.1480
16149W        W20549   4.041   6.118  26.372  0.1356 -0.0094  0.1483
16150W        W20550  15.770   2.493  13.542  0.0708  0.1116 -0.0075
16151W        W20551  18.481   4.634  27.371 -0.0828  0.2683  0.0121
16152W        W20552  16.372   0.153  15.004 -0.1101  0.1791 -0.0780
16153W        W20553   0.805   2.426   0.961  0.0521  0.0799 -0.1773
16154W        W20554  10.965   5.532  12.449  0.1773  0.0514  0.2006
16155W        W20555   7.225   5.993  27.363  0.2044 -0.1108  0.1664
16156W        W20556  13.868   2.361  32.470 -0.0057 -0.2249 -0.0661
16157W        W20557   1.557   1.985  21.521  0.0267  0.2967  0.0120
16158W        W20558   2.661   0.557  22.300  0.1765  0.1635 -0.1142
16159W        W20559  20.615   2.270   3.841  0.0120  0.2319  0.1102
16160W        W20560  13.808   1.442   3.026  0.3765  0.0203 -0.0189
16161W        W20561  14.364   4.998  26.221 -0.1184 -0.0305 -0.0764
16162W        W20562  11.971   4.206   8.730  0.0044  0.0030  0.3026
16163W        W20563   6.796   2.775  29.876 -0.0984  0.4621  0.2634
16164W        W20564   4.523   1.066  32.887  0.0607  0.0321  0.1501
16165W        W20565  14.310   0.957   0.482 -0.0631  0.2076  0.0043
16166W        W20566  19.268   0.765  12.427 -0.0581  0.0428  0.1913
16167W        W20567   3.682   0.697  30.906 -0.2746  0.0383  0.0238
16168W        W20568  20.647   1.209  29.074  0.0175  0.0058  0.0489
16169W        W20569  15.746   2.037  13.677  0.2069  0.1043  0.0755
16170W        W20570  13.119   2.029   4.806  0.1232 -0.1786  0.0070
16171W        W20571   7.092   6.590   4.734 -0.1434  0.1190 -0.0061
16172W        W20572  20.333   1.900  28.641  0.0550  0.4110 -0.2865
16173W        W20573  20.804   1.901   3.024 -0.1347 -0.0506 -0.1071
16174W        W20574   6.438   4.504  21.522  0.0368  0.0491  0.2840
16175W        W20575  25.038   2.936  20.363  0.1362 -0.0601  0.1686
16176W        W20576   1.705   5.108  32.822 -0.0080 -0.0561 -0.3074
16177W        W20577  17.913   0.074   7.199 -0.2622  0.1366 -0.1569
16178W        W20578  13.315   5.597   1.426 -0.2093 -0.3312  0.3446
16179W        W20579  21.834   2.915  11.506 -0.0222 -0.3004  0.0828
16180W        W20580  18.175   1.789   3.767 -0.1191 -0.0480 -0.0423
16181W        W20581  10.047   0.448  14.951 -0.1896  0.1706  0.3284
16182W        W20582   6.988   5.630  33.225  0.0894  0.0361 -0.1351
16183W        W20583   1.490   2.027  31.533 -0.0722 -0.1281 -0.1457
16184W        W20584  23.004   5.144   6.819 -0.3445  0.1487 -0.0016
16185W        W20585  20.290   4.098  16.030  0.0775 -0.1581  0.0878
16186W        W20586  18.949   0.052  13.042 -0.0113 -0.1359  0.1408
16187W        W20587   7.825   0.534  25.430 -0.1051  0.1465  0.3653
16188W        W20588  10.922   1.155   3.037 -0.3016 -0.3901 -0.1720
16189W        W20589   3.144   2.301   8.588  0.1058  0.1786 -0.2425
16190W        W20590  13.305   3.612   2.620 -0.0341 -0.2849  0.1155
16191W        W20591  14.257   2.658   0.929  0.2233  0.3271  0.1633
16192W        W20592  15.541   5.561  30.618  0.0602 -0.1981 -0.0075
16193W        W20593   4.377   0.931  10.236 -0.4421 -0.1867  0.1124
16194W        W20594   0.348   0.705  13.582  0.1429  0.0628 -0.1231
16195W        W20595   1.188   0.054  36.041 -0.1065 -0.0250 -0.2234
16196W        W20596  24.730   4.586  10.391 -0.1214  0.1218  0.1443
16197W        W20597  26.339   2.270  25.927 -0.0753  0.2141  0.1222
16198W        W20598  19.798   0.656  25.080  0.1488  0.1342  0.0620
16199W        W20599  10.250   1.325  27.499  0.0561  0.0117 -0.1315
16200W        W20600  11.020   5.873  26.597 -0.2372 -0.2031 -0.1366
16201W        W20601  14.893   5.924  23.387  0.0554 -0.0430  0.1291
16202W        W20602   2.110   1.793  27.170  0.2007 -0.2875  0.1951
16203W        W20603   3.089   3.976  36.023 -0.2902 -0.1581 -0.1834
16204W        W20604   3.929   5.876  29.877 -0.0439 -0.2516  0.1238
16205W        W20605   6.543   6.288  26.818 -0.2555 -0.0161 -0.0208
16206W        W20606  24.230   5.562   1.446 -0.1581  0.0032  0.1055
16207W        W20607  20.199   0.294  21.227 -0.0023  0.0840 -0.0840
16208W        W20608  17.332   2.219  13.932 -0.1640 -0.1822  0.0890
16209W        W20609  24.357   0.233   7.162  0.0354  0.2862 -0.1368
16210W        W20610   0.432   0.644  22.692 -0.0358  0.4039 -0.1664
16211W        W20611   6.314   0.729  13.031 -0.1018 -0.0940  0.0108
16212W        W20612  12.662   1.705   3.551  0.0473 -0.0655  0.1755
16213W        W20613  20.839   1.631   2.128 -0.0394 -0.0531  0.2742
16214W        W20614  17.562   5.882  11.578 -0.0040  0.1001 -0.0429
16215W        W20615  14.565   3.157  30.406 -0.0504 -0.2690  0.2286
16216W        W20616  12.969   2.034   9.197 -0.1443  0.2665  0.2691
16217W        W20617  17.820   0.156   0.785 -0.2741 -0.2176  0.1630
16218W        W20618   9.069   0.805  32.670 -0.0499  0.2657 -0.1126
16219W        W20619  13.873   1.414   8.291  0.2052 -0.1398 -0.1475
16220W        W20620  23.713   0.133   9.662 -0.1279 -0.3892 -0.0793
16221W        W20621   1.147   4.146   8.548  0.3970  0.2389  0.1790
16222W        W20622  11.216   1.529  23.921  0.0154  0.0784 -0.3149
16223W        W20623  13.097   3.904  31.907  0.3660 -0.0846  0.0458
16224W        W20624  21.482   6.103  14.642  0.0512  0.1128  0.2363
16225W        W20625  23.760   2.700   9.094  0.1547 -0.0103  0.2256
16226W        W20626   0.354   4.589  28.314  0.2200  0.3159  0.1383
16227W        W20627  12.676   0.804  20.895 -0.2027  0.0531  0.1992
16228W        W20628   0.037   0.649   1.547 -0.3996 -0.2438 -0.1396
16229W        W20629  10.853   1.224  23.041  0.0089 -0.0539  0.1106
16230W        W20630   6.679   0.674  22.966 -0.2118 -0.0656 -0.0731
16231W        W20631  21.868   6.596  11.829 -0.2357 -0.0634  0.2756
16232W        W20632  18.070   4.268  30.826 -0.0430 -0.2290 -0.0355
16233W        W20633   8.859   2.645  35.000  0.2633 -0.1502  0.3152
16234W        W20634   1.548   3.668  26.776 -0.1166 -0.3063 -0.0164
16235W        W20635   5.283   0.612   3.398  0.1931 -0.1975  0.1257
16236W        W20636   7.442   0.960  31.936 -0.0164  0.0063 -0.1230
16237W        W20637  26.000   2.744  33.769  0.2801 -0.2171 -0.1195
16238W        W20638  20.422   4.870  34.757  0.2760  0.0108  0.1687
16239W        W20639   8.226   3.646  26.842 -0.0914 -0.2124 -0.1338
16240W        W20640  15.310   0.280   1.129 -0.1865  0.0220 -0.0533
16241W        W20641   5.926   0.011   0.737  0.0708 -0.1453  0.0578
16242W        W20642   7.975   1.731  35.393 -0.1553 -0.1439 -0.3153
16243W        W20643  19.099   1.693  11.372  0.0046  0.3528  0.1908
16244W        W20644  23.271   5.507  24.070 -0.1719  0.0060 -0.0809
16245W        W20645  15.392   4.936   8.896  0.3303  0.1192  0.0333
16246W        W20646   5.833   2.512  10.529  0.1714 -0.2267 -0.0310
16247W        W20647  24.249   5.430   4.942  0.0705 -0.0987  0.1382
16248W        W20648  12.139   3.156  25.975 -0.1599 -0.0339  0.1365
16249W        W20649  10.119   6.477   4.953  0.3778  0.0509  0.0956
16250W        W20650  24.936   0.937   0.753 -0.2941  0.1287  0.1126
16251W        W20651  14.259   3.841   6.020  0.0597 -0.4145  0.2011
16252W        W20652   5.700   1.454   7.292 -0.0626 -0.3313  0.2776
16253W        W20653  21.867   0.842   4.236 -0.1068  0.0352 -0.2567
16254W        W20654  15.467   3.638  13.311 -0.1649 -0.1075  0.2415
16255W        W20655  11.464   0.477  34.558 -0.1041 -0.0380 -0.0579
16256W        W20656   8.194   6.057  12.662 -0.2841 -0.1087  0.1803
16257W        W20657   1.555   4.506  24.037 -0.0297  0.0172  0.0447
16258W        W20658   5.964   6.150   1.154  0.2712  0.0170 -0.2420
16259W        W20659   8.077   5.443   4.300 -0.1885 -0.0136  0.0202
16260W        W20660   2.236   4.903  27.048 -0.1065 -0.0051  0.2266
16261W        W20661   6.893   0.962  12.817  0.2132  0.1491  0.0757
16262W        W20662   9.707   4.556   5.753  0.0754  0.2615  0.0684
16263W        W20663  10.030   6.054   8.630 -0.0961  0.2189  0.3082
16264W        W20664   7.886   6.413  14.924  0.1651 -0.1205  0.0889
16265W        W20665   3.282   2.177   0.717  0.4390 -0.0993 -0.0965
16266W        W20666  12.544   1.265  33.885  0.3471 -0.0655  0.1097
16267W        W20667   4.744   6.522  26.987 -0.2743 -0.2299  0.0343
16268W        W20668   2.716   6.531   0.681  0.1262 -0.0574  0.2226
16269W        W20669  12.542   1.412   7.625  0.0146  0.0491 -0.2211
16270W        W20670   1.252   5.523   5.605 -0.0074 -0.0396  0.0697
16271W        W20671  19.026   3.261   6.200  0.3047 -0.1811  0.0434
16272W        W20672  21.344   3.736   7.783 -0.0651 -0.2155 -0.1535
16273W        W20673   3.694   4.669  25.649  0.3588  0.1109 -0.0041
16274W        W20674  15.354   4.729   9.387  0.0463 -0.0328  0.1536
16275W        W20675  18.868   0.424  20.732 -0.0661  0.0801 -0.1265
16276W        W20676  22.776   3.261   1.299 -0.1109 -0.1057  0.1054
16277W        W20677   7.216   4.393   3.917 -0.0770  0.1601  0.2375
16278W        W20678  19.813   3.725  11.560  0.0319  0.0373 -0.0224
16279W        W20679   8.628   4.081  33.677 -0.2281  0.2240 -0.1584
16280W        W20680   7.586   4.301  28.308  0.0233  0.0670 -0.0505
16281W        W20681  15.296   5.596  34.956 -0.0224  0.2245 -0.0751
16282W        W20682   7.844   2.752  13.974 -0.0776  0.0438 -0.0263
16283W        W20683  20.867   6.421  21.080  0.1143  0.2760 -0.0282
16284W        W20684  16.394   0.579  10.709 -0.0338 -0.0140 -0.1077
16285W        W20685  22.636   3.298   2.871  0.1198 -0.1410  0.0104
16286W        W20686  23.117   5.722  25.013 -0.0613 -0.0266  0.0309
16287W        W20687   6.636   2.241  11.064  0.0013  0.1000 -0.0513
16288W        W20688  22.208   1.694   4.113  0.0956  0.2995  0.0047
16289W        W20689   7.073   5.935  22.757  0.2413  0.1236  0.2646
16290W        W20690   7.842   0.343   5.633  0.1376 -0.2073 -0.3628
16291W        W20691  15.675   6.050  14.881 -0.0965  0.2118 -0.3260
16292W        W20692   0.020   2.927  10.975 -0.1595 -0.0275  0.0104
16293W        W20693  22.561   4.376  23.368 -0.1333  0.4563 -0.2412
16294W        W20694   3.843   4.402   0.717  0.0575  0.3348 -0.1449
16295W        W20695   9.710   3.930   4.375  0.0586 -0.1229  0.1395
16296W        W20696  19.792   5.543  13.216  0.1278  0.0008 -0.1375
16297W        W20697  19.864   3.139   5.164 -0.0953  0.0640 -0.2694
16298W        W20698  21.420   5.731  14.981  0.2778 -0.0379 -0.2231
16299W        W20699  22.225   4.855   0.954  0.2916 -0.0129 -0.0448
16300W        W20700  11.444   0.253   9.199 -0.0446 -0.0609  0.1474
16301W        W20701  11.202   0.426  21.983 -0.0129 -0.0081 -0.0003
16302W        W20702   0.969   4.435  22.578  0.0756  0.1432  0.0089
16303W        W20703  23.719   6.225  28.455 -0.0143 -0.0865 -0.0560
16304W        W20704  20.898   5.515  33.247 -0.1446  0.2634 -0.0910
16305W        W20705  19.519   3.735   5.612 -0.2458  0.2170  0.0335
16306W        W20706  20.679   1.747   5.950  0.1003 -0.0971 -0.3304
16307W        W20707   6.351   3.362  14.797  0.0263 -0.0214  0.1229
16308W        W20708  15.384   3.741  25.010  0.1562 -0.0991  0.0617
16309W        W20709  17.433   0.913   1.991  0.1504  0.2188 -0.2600
16310W        W20710  20.754   3.955  28.604  0.0892 -0.0489  0.2894
16311W        W20711  20.379   2.574  34.180 -0.2777  0.2637 -0.1341
16312W        W20712   0.395   5.364  31.587 -0.3650 -0.0088 -0.0467
16313W        W20713  24.125   0.077  21.526  0.2446  0.1152  0.3645
16314W        W20714  20.896   1.486  21.827 -0.1265 -0.1750 -0.2515
16315W        W20715   8.044   4.940  33.823  0.1098  0.0264 -0.0423
16316W        W20716  17.633   4.591   5.025 -0.1773  0.0074 -0.1925
16317W        W20717  22.049   0.570  36.069  0.2646  0.1621  0.0366
16318W        W20718  11.358   6.035   3.568  0.4126 -0.0564 -0.0872
16319W        W20719  21.928   3.989  24.600  0.2427 -0.3926 -0.0967
16320W        W20720  22.494   0.426  23.158 -0.1023  0.0287  0.0319
16321W        W20721   5.321   6.050  15.174 -0.1296  0.0491  0.0025
16322W        W20722  14.726   1.593  14.642  0.0855  0.0847  0.2323
16323W        W20723   6.988   1.730   6.829  0.1932 -0.2831  0.1883
16324W        W20724  11.016   5.173  34.765 -0.3821 -0.0070 -0.1729
16325W        W20725   1.256   3.347  31.196  0.0595 -0.0141  0.1818
16326W        W20726  13.294   6.491  34.002  0.1615 -0.0086 -0.1374
16327W        W20727  17.234   0.750   2.431 -0.0904  0.1944 -0.2407
16328W        W20728   5.476   3.687   1.621 -0.0617 -0.3812  0.1528
16329W        W20729  14.106   1.582  31.471  0.0097 -0.2469 -0.1001
16330W        W20730  23.265   4.841  23.932 -0.0989 -0.0864  0.0201
16331W        W20731   7.669   5.187   1.782 -0.0800 -0.1000  0.3662
16332W        W20732  10.091   4.484   4.731 -0.1814  0.2645 -0.0248
16333W        W20733  15.056   0.571   7.971 -0.0354 -0.2512 -0.0607
16334W        W20734  23.058   0.746  12.214 -0.1301  0.1453 -0.2374
16335W        W20735  22.295   3.929  23.803  0.2179  0.0352  0.0417
16336W        W20736  24.130   2.454  32.047 -0.0782 -0.2288  0.1046
16337W        W20737  19.764   4.067  27.152 -0.1263 -0.0157  0.0449
16338W        W20738  26.316   0.260   5.525 -0.1901  0.0696  0.0650
16339W        W20739  14.846   5.960   5.265  0.2636  0.1753  0.2858
16340W        W20740  12.847   5.260  14.523 -0.0689 -0.0818 -0.1386
16341W        W20741  15.993   1.701   3.700 -0.0512 -0.0741  0.1373
16342W        W20742   5.846   2.581  12.796 -0.1722  0.0617  0.0634
16343W        W20743  18.610   0.255  21.655  0.1088 -0.0166  0.0676
16344W        W20744  25.030   2.481  27.269 -0.0638  0.0893 -0.2794
16345W        W20745  11.083   0.976  14.068 -0.2624  0.0019  0.2237
16346W        W20746   4.769   6.434   6.246 -0.2203  0.0290  0.1014
16347W        W20747   2.257   3.547   1.484  0.1763 -0.2311  0.0935
16348W        W20748   2.082   4.592  14.854 -0.0429 -0.3484 -0.1915
16349W        W20749  16.884   4.546  16.000 -0.0346  0.0100  0.2464
16350W        W20750  18.108   1.556   0.612  0.1963  0.2407 -0.1454
16351W        W20751  25.913   5.357   2.862  0.0765  0.3814 -0.1491
16352W        W20752  14.474   0.230  30.454 -0.1368  0.0808  0.1240
16353W        W20753  13.102   2.849  35.786 -0.1390  0.2191  0.0030
16354W        W20754   6.767   3.457  21.076  0.2098 -0.0598 -0.2824
16355W        W20755   9.100   5.161  25.321  0.0300 -0.2469 -0.0294
16356W        W20756   7.863   3.555  24.016  0.2062 -0.0841  0.0205
16357W        W20757  22.476   6.381   8.426  0.1701  0.2819  0.3230
16358W        W20758  24.736   2.346  13.586 -0.1534 -0.2214 -0.0420
16359W        W20759  25.246   1.988  27.428  0.4383 -0.0928 -0.2095
16360W        W20760  17.940   4.752  31.062  0.0382  0.2149 -0.1152
16361W        W20761  24.580   0.292  32.988  0.0117 -0.3176 -0.2484
16362W        W20762   1.313   5.448   3.442 -0.0117  0.0035  0.1396
16363W        W20763  13.917   0.770   4.671 -0.0654 -0.0491 -0.2017
16364W        W20764   5.555   3.997  33.427  0.1170  0.1163 -0.2411
16365W        W20765  22.605   4.837  27.394  0.0329 -0.2218 -0.1349
16366W        W20766  20.513   5.022   3.958 -0.1024  0.0634 -0.0321
16367W        W20767   8.404   3.647  35.131 -0.0288 -0.0046  0.1856
16368W        W20768   8.814   6.404  28.303 -0.0374  0.1346 -0.0943
16369W        W20769  16.537   3.079  10.733  0.1640  0.0044 -0.2533
16370W        W20770  24.673   3.984   6.186  0.0135 -0.0308  0.1248
16371W        W20771  21.060   5.945   8.122  0.0505 -0.5307 -0.0663
16372W        W20772   3.699   2.704   8.078  0.0533 -0.1844 -0.0132
16373W        W20773   6.386   3.146  21.911 -0.2556 -0.4842  0.0759
16374W        W20774   0.103   0.912   2.579  0.5231  0.2497  0.0584
16375W        W20775   3.915   1.733  27.777  0.1222  0.0298 -0.1324
16376W        W20776  18.862   3.926  11.242  0.1709  0.0201  0.0263
16377W        W20777   8.568   1.676  13.593  0.0772 -0.0965 -0.2840
16378W        W20778  21.255   2.742  25.380 -0.1428 -0.1834 -0.0896
16379W        W20779  13.846   6.507  23.319  0.1492  0.0840 -0.0456
16380W        W20780   8.024   2.560  30.603  0.1624  0.1427 -0.0213
16381W        W20781  11.997   2.043   7.680 -0.0339 -0.1116  0.0493
16382W        W20782  20.427   5.306  31.121  0.0934 -0.0174  0.2408
16383W        W20783   3.534   4.987  30.499 -0.0651 -0.4192  0.2252
16384W        W20784  18.886   5.533   1.516  0.3276  0.0774  0.1326
16385W        W20785   6.925   1.952   9.267  0.2445 -0.1799 -0.0999
16386W        W20786   9.902   4.090  26.115 -0.0043  0.2402  0.1141
16387W        W20787  10.386   0.078   6.149  0.1424  0.1336 -0.3623
16388W        W20788  22.379   2.198  32.366 -0.0593  0.5074 -0.0337
16389W        W20789   4.811   0.376  28.430  0.0742  0.0314 -0.0460
16390W        W20790   7.997   2.485  35.635  0.0887  0.0744  0.2059
16391W        W20791  13.442   5.060  33.437  0.0567  0.2948  0.1760
16392W        W20792   6.473   4.621   0.006  0.3082 -0.2683 -0.0747
16393W        W20793  25.976   0.285   1.924  0.0537 -0.1717 -0.1519
16394W        W20794  20.682   3.654  13.669  0.4159 -0.0865 -0.1642
16395W        W20795  12.753   5.488   2.178 -0.3008 -0.1571 -0.1696
16396W        W20796  13.057   1.507   4.573 -0.0395  0.3037 -0.2394
16397W        W20797  15.889   6.435   7.677 -0.0329 -0.2231 -0.2032
16398W        W20798  25.676   5.666  13.267  0.1191 -0.0300 -0.0481
16399W        W20799   3.314   2.695  23.986 -0.2260  0.2147 -0.1810
16400W        W20800  15.761   2.193  15.354 -0.1392 -0.3599  0.2926
16401W        W20801  20.859   6.541  35.063 -0.0511 -0.0648  0.0497
16402W        W20802   4.171   2.802  27.450 -0.0018 -0.2415  0.0570
16403W        W20803  14.805   4.791  32.503  0.1865 -0.1602 -0.2276
16404W        W20804  25.841   5.348   1.914  0.1742 -0.2033 -0.0344
16405W        W20805   2.522   6.470  35.162  0.0084  0.4349  0.0052
16406W        W20806  11.057   0.491  21.058  0.0849  0.1448 -0.0424
16407W        W20807  10.250   0.006  13.277 -0.0270  0.0403  0.1948
16408W        W20808   1.695   3.522  33.891 -0.1004 -0.2259  0.1835
16409W        W20809  21.820   1.414  22.136  0.3407  0.0187 -0.1985
16410W        W20810   0.235   2.865   2.774 -0.0882  0.0160  0.1673
16411W        W20811   8.274   5.194  30.044 -0.2882  0.0429 -0.2834
16412W        W20812   2.902   3.519  14.293  0.0606  0.2206  0.0729
16413W        W20813   4.694   5.137  25.064  0.3454 -0.2113  0.0147
16414W        W20814   2.235   0.605   7.829  0.2711  0.0131 -0.1642
16415W        W20815   8.453   0.266  21.440 -0.2166  0.1313 -0.2020
16416W        W20816  20.781   0.913  33.404  0.3873 -0.0447  0.3750
16417W        W20817   8.796   0.161   2.412  0.1045 -0.4849  0.1876
16418W        W20818   5.429   5.222   7.909 -0.1211 -0.2110 -0.1663
16419W        W20819   6.404   6.456  31.631  0.1213 -0.1261 -0.3402
16420W        W20820  20.234   3.345  28.805 -0.0891 -0.1867 -0.1584
16421W        W20821  17.626   0.396  21.217 -0.1066  0.0129  0.2948
16422W        W20822  13.842   4.966  25.857 -0.0695  0.3139 -0.0550
16423W        W20823  24.060   1.713  16.042 -0.0520 -0.1421 -0.0456
16424W        W20824  18.256   3.081   8.342  0.0950  0.1390  0.1110
16425W        W20825  16.774   1.504  28.482  0.1431  0.2265  0.3273
16426W        W20826   1.119   2.760   3.061 -0.2582 -0.0898 -0.0305
16427W        W20827  24.004   0.854  30.981 -0.1487  0.3364 -0.2069
16428W        W20828  19.361   2.137  25.155  0.0436 -0.1176 -0.2592
16429W        W20829  11.192   5.195   5.171 -0.1524 -0.3594  0.0210
16430W        W20830   1.627   0.144  28.452 -0.1690 -0.0191  0.0179
16431W        W20831  21.512   1.361   1.557 -0.2632  0.0862 -0.0389
16432W        W20832  20.481   3.292   2.347 -0.1512  0.1789  0.2353
16433W        W20833  17.806   4.566  15.618 -0.1929 -0.3171 -0.0370
16434W        W20834  13.413   5.606  25.208  0.0376 -0.0579 -0.1857
16435W        W20835  25.708   1.996   7.896 -0.2615 -0.1435 -0.0587
16436W        W20836  17.632   1.745  23.534  0.0974 -0.0194  0.3237
16437W        W20837  15.388   1.721  32.632 -0.3403  0.2408 -0.1118
16438W        W20838  13.160   6.120  25.014  0.0991  0.0311 -0.2660
16439W        W20839  24.343   4.220  26.162 -0.0204  0.1234 -0.4215
16440W        W20840   2.263   2.711  25.891 -0.1959 -0.1972 -0.2722
16441W        W20841  14.405   0.714  35.858  0.0613 -0.1970 -0.2880
16442W        W20842   7.619   0.552  31.008  0.1274 -0.3381  0.0338
16443W        W20843  12.119   5.020  28.747 -0.1378  0.2192  0.0822
16444W        W20844  20.859   1.729  12.574 -0.0958 -0.0623 -0.0739
16445W        W20845  24.298   6.572   4.776 -0.0362  0.0701  0.0501
16446W        W20846  21.378   0.851  35.243 -0.1021  0.0345 -0.5093
16447W        W20847   1.070   0.461  20.727 -0.3275 -0.1075  0.0654
16448W        W20848  10.080   2.864  12.985  0.0252 -0.0236  0.0270
16449W        W20849  13.220   0.523  31.421  0.0735  0.2021 -0.0393
16450W        W20850   2.880   0.498   7.815 -0.2803  0.0160 -0.3370
16451W        W20851   8.058   6.465  32.854  0.1709 -0.1381 -0.3374
16452W        W20852  24.422   0.513  30.722  0.2882  0.1849 -0.2899
16453W        W20853  21.808   4.704  30.371  0.3150  0.0597 -0.1087
16454W        W20854  15.980   3.236  35.811  0.0206  0.5235  0.0634
16455W        W20855   8.079   2.382   3.418  0.0931 -0.0039 -0.0103
16456W        W20856   1.079   5.853  29.130  0.1852 -0.0763 -0.0992
16457W        W20857  25.960   4.613  34.718  0.0389  0.3565 -0.3461
16458W        W20858   3.434   5.853  32.174 -0.0553 -0.1103 -0.1380
16459W        W20859  18.078   2.150   8.837 -0.0480  0.1943 -0.0206
16460W        W20860  11.198   1.366  31.478  0.1067  0.0029 -0.1055
16461W        W20861  26.119   6.318  12.099  0.2738  0.1518 -0.0185
16462W        W20862  23.514   2.845  27.320  0.2042 -0.0013 -0.1462
16463W        W20863   7.276   2.092   5.115 -0.1359 -0.2781 -0.0805
16464W        W20864   1.237   5.535  25.414  0.0265 -0.0883  0.1023
16465W        W20865   6.242   6.423  13.949  0.3078  0.0847 -0.0319
16466W        W20866  21.485   6.011   7.372 -0.1177 -0.0569 -0.1973
16467W        W20867  20.306   0.698   1.423  0.0753  0.1630  0.2121
16468W        W20868   9.793   6.400   4.293 -0.0327 -0.1980  0.1421
16469W        W20869  19.340   4.756  35.925  0.0074  0.0824  0.2739
16470W        W20870  18.067   5.148  35.917  0.0270 -0.1456  0.2162
16471W        W20871  12.468   0.005  21.229  0.0379 -0.0331  0.0707
16472W        W20872  24.608   2.108  32.864  0.0076  0.0151 -0.0024
16473W        W20873  17.890   2.992  28.229  0.0364  0.1052  0.1504
16474W        W20874  17.848   5.424   5.692  0.1720 -0.0680  0.1323
16475W        W20875   8.994   6.514  11.081  0.1289  0.2071 -0.0089
16476W        W20876   1.070   5.523   0.656 -0.0680 -0.1716 -0.1852
16477W        W20877   4.717   0.500   6.737  0.1235 -0.0534  0.3077
16478W        W20878   3.215   3.044  27.883 -0.2431 -0.1587  0.3000
16479W        W20879   8.171   6.365   4.062 -0.0557 -0.0430 -0.1102
16480W        W20880  17.398   0.317  27.581 -0.1760  0.1324 -0.0597
16481W        W20881   6.092   6.139   9.155 -0.0510 -0.0821 -0.1589
16482W        W20882  13.909   0.376  27.678  0.1576 -0.0581 -0.1863
16483W        W20883  19.815   5.276  24.403 -0.4762 -0.2171 -0.0352
16484W        W20884  16.391   5.428  21.565  0.0251  0.0571  0.3577
16485W        W20885  23.299   4.837  20.803 -0.0544  0.0674 -0.0580
16486W        W20886  15.529   0.624  30.057 -0.0985 -0.1863 -0.1501
16487W        W20887   6.440   0.710  22.212  0.1669  0.0864  0.2645
16488W        W20888  21.823   6.473  22.667 -0.3515 -0.0204  0.2321
16489W        W20889  19.254   4.029   3.627 -0.1900  0.1033 -0.1009
16490W        W20890  18.742   5.440  23.185 -0.1598 -0.0028  0.2769
16491W        W20891  21.350   5.928  26.671  0.2496  0.2991 -0.0256
16492W        W20892  15.716   2.789  13.104 -0.0090 -0.0320 -0.1589
16493W        W20893  18.564   0.079  22.128  0.0701 -0.4066  0.0036
16494W        W20894  15.343   5.015  28.554 -0.0776  0.1755 -0.1566
16495W        W20895   2.390   2.667   9.523  0.1219 -0.1426 -0.1014
16496W        W20896  10.098   6.151  28.606  0.0268 -0.0638  0.2122
16497W        W20897  23.716   2.693  25.783  0.3145 -0.2798 -0.0450
16498W        W20898  25.098   4.740  33.462 -0.0218  0.3063 -0.2261
16499W        W20899   1.044   2.617   5.772  0.2150  0.0697  0.0081
16500W        W20900  11.365   3.749  34.507  0.2100 -0.4603 -0.1038
16501W        W20901   4.163   1.563  10.062 -0.2056 -0.2041  0.2203
16502W        W20902  18.665   3.155   3.779 -0.0741 -0.1347  0.0852
16503W        W20903  10.590   1.537  13.097  0.0834 -0.1614  0.1133
16504W        W20904   9.277   5.265  33.936 -0.1036 -0.0741 -0.0137
16505W        W20905  26.283   5.271  21.604 -0.0359 -0.3889 -0.0603
16506W        W20906  19.122   0.172   9.184 -0.0727  0.1659  0.0877
16507W        W20907  18.290   2.574  23.000 -0.2567  0.0012 -0.0823
16508W        W20908  20.817   4.488  20.969 -0.0298  0.4463  0.3324
16509W        W20909  13.106   4.825  24.105  0.1066 -0.0459 -0.0662
16510W        W20910  12.272   5.985  32.737  0.2035  0.0964  0.2600
16511W        W20911  15.852   3.664  29.015 -0.0278 -0.2080 -0.2382
16512W        W20912   7.064   0.160  27.433  0.2670 -0.0940  0.0177
16513W        W20913   8.641   3.512  36.038 -0.1653  0.1212 -0.0361
16514W        W20914  16.132   3.216  33.372 -0.1159 -0.3003  0.0823
16515W        W20915  15.050   1.749  30.681  0.1318 -0.0623  0.0062
16516W        W20916  10.903   2.384  30.963  0.3043 -0.1444 -0.0619
16517W        W20917  23.111   3.921  24.259 -0.3849  0.0729  0.0938
16518W        W20918  22.299   3.496  25.890 -0.1121 -0.0976 -0.0973
16519W        W20919  14.357   5.417   2.840 -0.0928 -0.0337 -0.0280
16520W        W20920  20.988   5.021  26.924 -0.4830  0.0625  0.0382
16521W        W20921   3.818   4.841  32.856 -0.1393  0.3530  0.1004
16522W        W20922   9.701   2.817   4.335  0.0782  0.0939  0.0037
16523W        W20923  17.567   1.551   6.908 -0.0037  0.1105  0.0021
16524W        W20924   8.748   2.644  34.020  0.0270 -0.1118  0.4131
16525W        W20925  24.432   4.570  11.264 -0.2926  0.2662  0.1150
16526W        W20926   6.758   0.821  21.463 -0.1700  0.0336  0.2029
16527W        W20927   7.250   1.318  28.165  0.2847  0.2378  0.1445
16528W        W20928   0.202   1.218  28.958  0.1785 -0.1145 -0.1796
16529W        W20929   6.051   5.893   0.001 -0.0303 -0.2632  0.1745
16530W        W20930  14.165   6.582  22.920 -0.2277  0.0230 -0.1888
16531W        W20931   3.500   6.303  27.651 -0.3172  0.1948 -0.0448
16532W        W20932  17.475   1.560  15.426  0.1313  0.0390  0.1206
16533W        W20933   4.891   3.202  13.372  0.0589 -0.0735  0.0463
16534W        W20934  22.906   0.552  20.984  0.0594  0.2913 -0.0040
16535W        W20935  12.825   6.059  26.992 -0.1523  0.0974  0.0130
16536W        W20936  20.104   4.992   8.405  0.0125 -0.1637 -0.1575
16537W        W20937  10.727   5.488   9.848 -0.0614 -0.0547  0.0463
16538W        W20938   6.020   4.987  21.204 -0.0668  0.3386  0.0054
16539W        W20939   5.040   6.376   4.913 -0.0722 -0.0976  0.1582
16540W        W20940  24.861   1.451  33.462  0.2604  0.2359  0.2894
16541W        W20941  21.639   0.336   3.441  0.1897 -0.1866  0.2079
16542W        W20942  18.851   4.674   0.110  0.0671 -0.1829 -0.1045
16543W        W20943  14.896   5.802   8.377 -0.1461 -0.2978  0.0313
16544W        W20944  16.435   2.883  35.804  0.1374 -0.1234 -0.1706
16545W        W20945  24.397   3.611  12.246 -0.0307 -0.0786 -0.1877
16546W        W20946   6.849   3.087  26.148 -0.1751  0.2224  0.1569
16547W        W20947  17.251   2.493  35.407 -0.2203  0.2078 -0.2914
16548W        W20948  22.827   1.849  11.638 -0.0343 -0.0967 -0.3726
16549W        W20949  10.387   2.396  14.531 -0.1168  0.1273 -0.0712
16550W        W20950  15.541   4.531  24.457  0.1004  0.0454  0.2140
16551W        W20951  19.902   0.331  26.769 -0.2095  0.1905  0.0397
16552W        W20952  23.860   6.489  29.351 -0.3085  0.0294 -0.0956
16553W        W20953   0.325   2.187  33.197  0.2361  0.3101 -0.0347
16554W        W20954   6.576   2.477  27.891  0.1107  0.2515 -0.2599
16555W        W20955  25.920   2.721  26.355 -0.4161 -0.0391 -0.1506
16556W        W20956   5.037   2.157  31.848 -0.0475  0.1684 -0.0752
16557W        W20957  16.023   3.424   1.261  0.1111 -0.0279  0.2186
16558W        W20958  13.210   2.471  21.424  0.0190 -0.2893  0.2423
16559W        W20959  10.411   3.744   8.342  0.0094 -0.0922 -0.0647
16560W        W20960  19.266   4.869  23.651  0.0579 -0.2272 -0.0601
16561W        W20961  15.896   2.539  22.663  0.1007 -0.0463  0.0199
16562W        W20962  17.046   1.393  32.896  0.1004 -0.0034 -0.1039
16563W        W20963   2.808   4.501  22.598 -0.1475  0.0351  0.0130
16564W        W20964   8.159   2.555  32.413  0.1725 -0.1463  0.1078
16565W        W20965  24.616   5.733  11.378 -0.0589  0.0080 -0.2287
16566W        W20966   2.164   0.003  20.926 -0.3811 -0.1843  0.1300
16567W        W20967  22.934   1.417   8.541  0.3504 -0.3597  0.0643
16568W        W20968  20.965   1.922  10.764 -0.1517  0.2168 -0.0888
16569W        W20969  15.971   0.050   9.559 -0.0642  0.1755  0.0634
16570W        W20970  14.715   0.161   8.101  0.0122  0.3983  0.1390
16571W        W20971   4.506   3.775  35.021  0.1508 -0.1691 -0.2735
16572W        W20972  23.531   3.731  27.402  0.2104 -0.0710 -0.0015
16573W        W20973   3.258   1.103  23.178  0.0259 -0.1921  0.0305
16574W        W20974  13.848   0.968  24.958 -0.1545  0.0976 -0.1825
16575W        W20975   8.141   2.744   6.850 -0.0009 -0.0685  0.2299
16576W        W20976  19.580   0.834   8.005 -0.1822  0.0137 -0.0698
16577W        W20977   4.953   3.765  13.231  0.0474 -0.1118 -0.0654
16578W        W20978  20.743   4.585  26.812 -0.0350 -0.1099  0.0274
16579W        W20979  19.756   2.766  27.023 -0.0815  0.1920  0.1179
16580W        W20980  13.821   1.621   5.186  0.3257 -0.1457  0.3636
16581W        W20981  14.748   0.076  24.413  0.3353 -0.0161  0.2413
16582W        W20982  10.761   0.595   1.721  0.0093 -0.1063  0.0677
16583W        W20983   9.986   3.537  31.482  0.1766  0.0129 -0.1487
16584W        W20984  22.133   2.461   4.497  0.1882 -0.0170 -0.1382
16585W        W20985   4.492   4.892  24.211 -0.1995 -0.2594  0.1308
16586W        W20986  21.262   3.748   2.827 -0.0833  0.0019 -0.0445
16587W        W20987  18.621   2.945  35.469  0.0637 -0.0084 -0.1429
16588W        W20988  19.885   4.238  14.562  0.5355  0.2055  0.3033
16589W        W20989   9.464   2.715   2.977  0.0917 -0.0036 -0.0246
16590W        W20990  22.293   2.699  21.440 -0.0865  0.2768  0.0328
16591W        W20991  20.450   5.049   2.672  0.1564 -0.1389  0.1943
16592W        W20992   0.590   2.006  26.277 -0.1608  0.0165 -0.0405
16593W        W20993  18.922   1.558   5.360 -0.1412  0.2015  0.1451
16594W        W20994  25.730   0.544  26.778 -0.0195  0.1596  0.0044
16595W        W20995  10.068   5.263   1.126  0.0064  0.0513 -0.0996
16596W        W20996   3.928   2.779  26.651 -0.0871 -0.2169  0.0958
16597W        W20997   8.131   4.954  33.301 -0.5070  0.1769 -0.3629
16598W        W20998  11.451   2.362  23.791 -0.0640  0.2854 -0.3164
16599W        W20999  15.193   5.944  24.888 -0.1556 -0.0228  0.4028
16600W        W21000  11.681   2.662   6.025  0.1472 -0.0848 -0.1801
16601W        W21001  25.512   1.369  21.534 -0.1649 -0.0512  0.1003
16602W        W21002  18.885   4.641  21.626 -0.0314  0.2598 -0.1570
16603W        W21003  11.848   3.766   8.378 -0.2908 -0.0689 -0.1038
16604W        W21004  15.770   5.779   2.559  0.1062 -0.0187  0.0699
16605W        W21005  23.527   0.609  25.740  0.3271  0.1453  0.0837
16606W        W21006  13.149   5.474   9.245 -0.1230 -0.0542 -0.0178
16607W        W21007   6.755   2.931   4.137 -0.1604 -0.3275  0.0822
16608W        W21008   0.108   2.789  25.843  0.1975  0.0021  0.0617
16609W        W21009   6.302   3.577   5.857  0.2314  0.1893 -0.1448
16610W        W21010  16.041   3.889  12.360 -0.3178 -0.1369  0.0624
16611W        W21011   3.396   1.982  15.625 -0.2622 -0.1291 -0.5549
16612W        W21012   2.693   3.603  32.283 -0.0106  0.2585 -0.0496
16613W        W21013  23.703   3.867  33.580 -0.4105 -0.2927  0.1157
16614W        W21014  16.333   4.145  31.578 -0.0885  0.2601 -0.2391
16615W        W21015  15.748   2.719  15.348 -0.0224 -0.3011  0.0304
16616W        W21016  10.885   2.462  24.857  0.2972 -0.1620  0.0685
16617W        W21017  12.024   1.883  22.697 -0.0338 -0.2525 -0.1470
16618W        W21018   1.884   0.332   5.266  0.1870 -0.0863 -0.1862
16619W        W21019   7.732   3.750  32.997 -0.2545  0.0090  0.1963
16620W        W21020   0.949   4.105  22.927 -0.0208 -0.0010 -0.1051
16621W        W21021  15.869   2.760   9.664 -0.1852 -0.0251 -0.0113
16622W        W21022   8.585   2.240   0.536  0.1596 -0.1239 -0.2643
16623W        W21023   0.379   5.198  10.408 -0.0551 -0.2420  0.2511
16624W        W21024   3.899   2.962  34.065 -0.0948 -0.2287  0.0556
16625W        W21025   3.991   4.833  30.793  0.0767 -0.0182  0.1361
16626W        W21026  23.064   4.081  12.258 -0.2620  0.0410 -0.0990
16627W        W21027  16.542   1.215  21.424 -0.0445  0.1516 -0.1563
16628W        W21028   2.841   6.406  13.867 -0.5043 -0.0655 -0.1199
16629W        W21029  17.050   3.221   5.615  0.0256  0.1975  0.1971
16630W        W21030  13.194   0.884   9.769  0.1223 -0.0366  0.1444
16631W        W21031  20.323   5.967  29.710  0.0808  0.0929 -0.2694
16632W        W21032  21.925   0.724   6.844 -0.0286  0.0217  0.0216
16633W        W21033  23.409   1.973  29.465  0.2656 -0.0801  0.1659
16634W        W21034   2.401   3.005   2.161  0.1973 -0.3212  0.2208
16635W        W21035  13.233   4.840   7.111  0.2798 -0.0489 -0.1724
16636W        W21036  15.954   6.476  27.792 -0.0552 -0.3740  0.1424
16637W        W21037   0.229   3.189   6.246  0.1560  0.2755 -0.3433
16638W        W21038   0.694   0.183  30.945  0.1872  0.0050  0.0854
16639W        W21039   4.875   0.778   9.534 -0.1690 -0.0845  0.5388
16640W        W21040   1.992   0.113   3.445  0.4286 -0.0256 -0.0279
16641W        W21041   2.726   2.489  25.923  0.0647  0.3432  0.3808
16642W        W21042   5.937   2.709  28.286 -0.0230  0.1238 -0.0047
16643W        W21043   8.686   2.360   4.085 -0.2203  0.1999 -0.0421
16644W        W21044   8.276   1.417  28.482  0.0474  0.0001 -0.0065
16645W        W21045   8.850   3.899  26.324 -0.2445  0.1610  0.0956
16646W        W21046  16.139   1.646  26.885 -0.1660 -0.0713 -0.2469
16647W        W21047   0.440   0.390   5.650 -0.3666 -0.1684 -0.3445
16648W        W21048  13.302   3.008  34.223  0.0224  0.0646  0.0546
16649W        W21049   8.647   3.719  29.098 -0.0701 -0.1515  0.0303
16650W        W21050   3.822   5.182  21.727 -0.4051  0.0951 -0.2836
16651W        W21051  22.551   0.822  12.649  0.1581  0.2019  0.0199
16652W        W21052  24.981   3.326   4.116 -0.0797 -0.1146  0.2046
16653W        W21053   2.356   4.948  34.826 -0.1596  0.0863  0.0827
16654W        W21054   7.511   5.609  25.131 -0.2680 -0.3364 -0.0032
16655W        W21055   9.846   1.919   5.608 -0.3064 -0.0652 -0.1118
16656W        W21056   4.720   1.801  10.627  0.1190 -0.1358 -0.3523
16657W        W21057  19.227   6.136  10.307  0.1295  0.0130 -0.0490
16658W        W21058  16.311   5.331   7.965 -0.1021 -0.1756  0.0155
16659W        W21059  18.406   0.979  35.089 -0.0008 -0.2359 -0.0588
16660W        W21060  13.312   5.612  21.445  0.1822 -0.2756 -0.1811
16661W        W21061  16.874   4.492  35.834  0.1104 -0.0819 -0.3225
16662W        W21062   8.717   3.070  11.194  0.2725  0.3947 -0.0066
16663W        W21063   6.529   6.205   9.890  0.0224  0.1833  0.0819
16664W        W21064   3.455   1.099  29.722 -0.0753 -0.0546  0.0178
16665W        W21065  15.865   1.512   5.549 -0.0926  0.3243 -0.0562
16666W        W21066   6.696   3.539  14.287  0.1506 -0.0861 -0.0163
16667W        W21067  14.834   6.578  13.935  0.2833 -0.0331  0.4260
16668W        W21068  22.221   3.741   5.976 -0.2677  0.2309 -0.0538
16669W        W21069  23.695   1.434  24.061 -0.0333 -0.1171 -0.3544
16670W        W21070   7.550   1.473  25.055  0.4150 -0.2562  0.1143
16671W        W21071   5.496   0.320  23.193 -0.1818 -0.2098  0.1223
16672W        W21072  20.951   1.211  32.460  0.1736  0.1727 -0.0904
16673W        W21073  23.828   3.542   1.343  0.1353  0.0625  0.0342
16674W        W21074   7.023   2.764   6.659 -0.0353  0.0525  0.1624
16675W        W21075  15.440   5.159  15.163  0.0423  0.4616  0.0158
16676W        W21076  18.421   4.623  30.911 -0.0626  0.2646  0.0985
16677W        W21077   0.185   4.901  22.011 -0.0692  0.1258  0.1186
16678W        W21078   1.361   6.507   3.509  0.1055  0.1256 -0.3780
16679W        W21079  14.450   0.113  26.666 -0.5552  0.0295 -0.0553
16680W        W21080   1.451   2.265   7.147 -0.0020  0.1157 -0.0613
16681W        W21081  10.164   1.453  21.853 -0.1843  0.0624 -0.0493
16682W        W21082  14.653   1.816  34.584  0.0904 -0.1457 -0.1671
16683W        W21083   9.434   1.179   6.859 -0.0268  0.2932  0.2533
16684W        W21084  11.452   5.895  13.044 -0.0249  0.0109  0.0493
16685W        W21085  15.385   3.513  33.900  0.3595  0.2298  0.0554
16686W        W21086   8.197   5.914   5.742  0.2590 -0.1360 -0.0459
16687W        W21087   4.161   4.861   4.814 -0.1104  0.1912  0.0687
16688W        W21088  22.936   5.218  28.622  0.1008 -0.1038  0.0802
16689W        W21089   7.413   0.347   8.180  0.0366  0.0821 -0.1287
16690W        W21090  20.384   2.209   7.338 -0.2805 -0.0898  0.0654
16691W        W21091  20.127   6.015   9.873 -0.0566  0.0570  0.0373
16692W        W21092  24.906   2.327  10.248 -0.0357 -0.0827  0.1890
16693W        W21093  14.864   0.041  11.872  0.0709 -0.0554  0.0267
16694W        W21094  14.485   4.009  33.009 -0.0546 -0.1405 -0.1524
16695W        W21095  17.121   0.399  13.555  0.0810 -0.0239 -0.1517
16696W        W21096  15.448   2.364  11.903 -0.2203 -0.0010  0.1970
16697W        W21097  10.290   5.807  27.274  0.0614  0.1629  0.2183
16698W        W21098  15.159   0.625  25.808 -0.1591  0.1171  0.4964
16699W        W21099  15.826   5.072   5.826  0.1990 -0.1162 -0.0774
16700W        W21100   9.320   6.355  28.426 -0.3064  0.5229  0.0245
16701W        W21101  19.340   4.333  29.882 -0.3125 -0.2486  0.0556
16702W        W21102  10.139   4.404  25.098  0.1070  0.0300  0.0241
16703W        W21103   6.050   3.234  27.764  0.1591 -0.1327  0.2777
16704W        W21104  17.359   1.461  20.792 -0.1000 -0.1238 -0.0694
16705W        W21105   5.080   3.844   2.135 -0.0160  0.1617  0.0633
16706W        W21106  10.084   5.977  35.891  0.0660 -0.0483  0.1746
16707W        W21107  18.692   1.304  13.531 -0.0565  0.3231  0.2526
16708W        W21108  19.028   3.563  31.894  0.2448 -0.3238  0.1375
16709W        W21109  12.184   5.243  30.198  0.1645  0.0800  0.3476
16710W        W21110   0.858   6.260  33.254 -0.0806 -0.0522 -0.1232
16711W        W21111  11.805   6.416   7.204 -0.2730  0.1595  0.1842
16712W        W21112  21.328   1.394  29.371 -0.0835  0.0218  0.1040
16713W        W21113  12.582   5.658   5.562  0.4052 -0.1875  0.0037
16714W        W21114  16.079   4.723   0.283 -0.2125 -0.1120  0.2295
16715W        W21115  25.897   5.931  26.687 -0.0559 -0.1412  0.0853
16716W        W21116  14.348   2.121  31.642  0.2161  0.2540  0.0848
16717W        W21117  25.730   3.988  22.926 -0.0095  0.2179  0.0938
16718W        W21118   5.119   2.813  23.221  0.0024  0.0196  0.0389
16719W        W21119  15.426   4.182   8.285 -0.1072  0.1361  0.0808
16720W        W21120  24.775   1.833   4.501 -0.1381  0.1393 -0.0325
16721W        W21121  21.174   3.018  30.459 -0.1138 -0.2191  0.3726
16722W        W21122   6.346   5.227  14.425 -0.2303 -0.0333 -0.1315
16723W        W21123  24.827   5.835  24.243  0.2810  0.1937 -0.1520
16724W        W21124   2.583   6.293   1.123  0.0523 -0.0559  0.0752
16725W        W21125   2.431   2.615  34.609  0.1011  0.1673  0.4076
16726W        W21126  24.163   2.488  34.042  0.0890  0.1121 -0.1023
16727W        W21127  14.480   2.628  12.039  0.2331 -0.2057 -0.2138
16728W        W21128  26.407   4.948  34.755  0.3215  0.1507  0.0569
16729W        W21129  13.925   2.205  14.472  0.1080  0.0514  0.2347
16730W        W21130  21.712   3.065  26.191  0.3856 -0.0673 -0.4408
16731W        W21131  20.736   2.186   0.886  0.1965  0.1509  0.1354
16732W        W21132   3.454   6.545  35.662  0.1645  0.2574 -0.0015
16733W        W21133  14.019   1.912   8.391  0.0806  0.2085  0.0630
16734W        W21134  10.585   6.317  28.960  0.0666  0.1920  0.1958
16735W        W21135  18.488   2.273   3.779 -0.2721 -0.0798  0.0783
16736W        W21136  18.004   2.901   6.112 -0.1732 -0.2339 -0.1457
16737W        W21137  18.083   6.084   8.597 -0.1113  0.0842  0.3431
16738W        W21138  18.895   4.437   7.150  0.0072 -0.1671 -0.1289
16739W        W21139  18.434   4.259  13.821  0.0049 -0.2957  0.0027
16740W        W21140  20.931   0.392   6.430  0.0550  0.3447 -0.0955
16741W        W21141   2.576   1.990  25.446  0.2173  0.0693  0.1062
16742W        W21142   5.864   6.188  23.011  0.0736  0.1251  0.0036
16743W        W21143  13.539   4.749   7.528 -0.1043  0.2633 -0.1768
16744W        W21144  10.552   3.079  15.244  0.0665  0.0551  0.3478
16745W        W21145  20.805   3.247  12.395  0.0071  0.1502 -0.2326
16746W        W21146   9.914   4.077   5.674 -0.1756  0.0975 -0.1952
16747W        W21147   8.895   6.500   0.987  0.2247  0.1434  0.0129
16748W        W21148   1.962   2.127  26.301 -0.1661 -0.1672 -0.0614
16749W        W21149  22.890   4.284  24.490 -0.2686  0.0234  0.0660
16750W        W21150  25.490   5.807  21.390 -0.1613 -0.0824  0.1009
16751W        W21151  19.302   4.448  34.999 -0.1289 -0.1216 -0.3101
16752W        W21152  10.876   1.339  10.938  0.0156  0.0727  0.0918
16753W        W21153   7.137   0.103  25.316 -0.0095 -0.2829 -0.0497
16754W        W21154   3.719   5.667   2.059 -0.1232 -0.0405  0.0963
16755W        W21155   8.360   2.630   1.402 -0.0351 -0.0410  0.0932
16756W        W21156  14.743   1.469   6.652 -0.0776  0.1119 -0.0620
16757W        W21157   2.300   5.709  13.526  0.0429  0.2797 -0.1114
16758W        W21158  12.400   5.582   1.751  0.0452  0.0805 -0.0355
16759W        W21159  16.926   3.314  11.494  0.0989 -0.0211  0.0658
16760W        W21160   0.354   1.042  10.614  0.3821 -0.2637 -0.2144
16761W        W21161  17.996   5.981  23.587 -0.1434 -0.2665  0.1916
16762W        W21162   7.417   5.093   4.958  0.2104 -0.1915  0.2107
16763W        W21163   3.515   3.819   3.711 -0.1223  0.1222 -0.1224
16764W        W21164  11.337   5.109   2.418 -0.0251  0.3200  0.0724
16765W        W21165  22.115   0.215  14.413  0.3235 -0.0992 -0.0155
16766W        W21166   6.167   5.417  12.765 -0.2658  0.0094 -0.2987
16767W        W21167   4.317   6.117  21.393  0.0525 -0.0001  0.3872
16768W        W21168  22.326   3.415  22.685 -0.0142 -0.0719  0.2389
16769W        W21169  24.918   2.513  30.647  0.2191 -0.0010  0.3441
16770W        W21170  24.170   2.354   4.073  0.0262 -0.0483 -0.2409
16771W        W21171   5.748   4.944   8.212 -0.2729  0.0514  0.0082
16772W        W21172  24.511   2.151   7.958 -0.2166 -0.0443 -0.1633
16773W        W21173   7.863   4.377   7.320 -0.2761  0.0318  0.1954
16774W        W21174   8.641   0.676  24.440 -0.4356 -0.3302  0.0500
16775W        W21175  15.289   4.326   6.446  0.1938  0.1839 -0.0430
16776W        W21176  19.325   4.587  11.406  0.1306 -0.0754  0.0895
16777W        W21177   9.039   1.944   1.264 -0.0084  0.2716 -0.0142
16778W        W21178  13.315   5.696  12.624  0.1289 -0.0631  0.1586
16779W        W21179  11.678   0.275  33.523 -0.0383 -0.1914 -0.1349
16780W        W21180   3.403   0.418  13.479  0.0871 -0.3498 -0.2480
16781W        W21181  23.608   4.563  21.622  0.1532 -0.0708  0.2639
16782W        W21182  16.887   2.980  11.065  0.0442 -0.1410  0.1164
16783W        W21183  11.918   3.681  35.972 -0.0745  0.1311  0.1606
16784W        W21184  21.268   6.251  34.161 -0.1179 -0.0464 -0.0703
16785W        W21185   4.620   1.981   2.947  0.0325  0.2070  0.0803
16786W        W21186  19.847   1.914  12.759 -0.2046  0.4222  0.1817
16787W        W21187   7.481   4.734  27.968  0.0466  0.1019 -0.2491
16788W        W21188   3.659   3.446   3.021 -0.1790  0.0665 -0.1360
16789W        W21189  22.605   5.409  11.766 -0.0825 -0.1090  0.1233
16790W        W21190  19.721   4.570  11.051  0.0261  0.5440  0.0266
16791W        W21191  14.146   0.516  20.708 -0.6749 -0.0948  0.3862
16792W        W21192  20.545   1.830  33.817  0.0055  0.1391  0.1575
16793W        W21193   4.111   1.843  31.863 -0.0265 -0.2441 -0.1738
16794W        W21194  13.069   4.689   9.469 -0.2283  0.2073 -0.1377
16795W        W21195   2.038   1.778  10.338 -0.0335 -0.1348  0.3176
16796W        W21196  19.799   1.673   4.169  0.4111  0.0433  0.0692
16797W        W21197   6.423   4.041  11.052 -0.3507 -0.1922  0.3950
16798W        W21198  24.434   5.052  21.655 -0.3689  0.2227 -0.0783
16799W        W21199   3.680   3.479  28.911  0.2211 -0.0070  0.0236
16800W        W21200   3.470   0.266  30.413  0.2685  0.1082 -0.0917
16801W        W21201   6.914   2.017  23.416  0.1007 -0.0991 -0.0660
16802W        W21202  21.605   5.691  29.506  0.2253  0.1141 -0.4213
16803W        W21203  25.574   4.439  30.705  0.1895 -0.0738  0.1403
16804W        W21204   5.608   2.193   4.469  0.2612  0.0860  0.0931
16805W        W21205   5.800   2.489  23.876  0.1827  0.0135  0.0356
16806W        W21206   3.251   3.186  36.000  0.0617  0.1053 -0.0226
16807W        W21207   5.315   0.233  12.243  0.3371  0.0256  0.2562
16808W        W21208   3.975   3.768   4.385 -0.0995  0.2303 -0.1852
16809W        W21209   8.849   0.858  33.630  0.0821  0.3755  0.1434
16810W        W21210   9.098   3.273  34.323  0.1118 -0.0965  0.2394
16811W        W21211  10.586   3.212  12.320  0.2589 -0.2137 -0.0650
16812W        W21212  16.832   4.342  13.985 -0.1037 -0.0306  0.3524
16813W        W21213  19.534   5.513  30.771 -0.2084 -0.1333  0.0658
16814W        W21214  18.757   0.863  13.768 -0.0186  0.0310 -0.0593
16815W        W21215  13.095   0.070  26.959  0.0765 -0.0348  0.0030
16816W        W21216  19.326   5.009  32.870  0.0552  0.0028  0.2968
16817W        W21217  13.837   1.110  13.034  0.0213 -0.1311 -0.1749
16818W        W21218   2.815   1.668  30.634 -0.2272  0.3234  0.1636
16819W        W21219  10.349   2.272  15.042  0.4184  0.2341  0.2380
16820W        W21220   6.340   0.280   4.545  0.2378 -0.2930 -0.2385
16821W        W21221  25.307   6.181  27.349 -0.4331  0.2742 -0.0841
16822W        W21222  18.948   1.699   0.114  0.0540 -0.2483 -0.0329
16823W        W21223   6.341   5.221   9.148 -0.3092  0.0570 -0.0643
16824W        W21224  20.124   0.598  10.407  0.3713 -0.0344 -0.1445
16825W        W21225   7.168   2.011  13.822  0.1974 -0.0393  0.0211
16826W        W21226   5.525   0.970  32.625  0.1548 -0.1684 -0.0467
16827W        W21227  26.283   6.338  13.178  0.0335 -0.0418 -0.0074
16828W        W21228  11.740   5.812  15.342  0.0087  0.2456  0.0189
16829W        W21229   1.738   3.913  11.251 -0.0105  0.3736 -0.2255
16830W        W21230  22.902   6.124  26.328 -0.1594 -0.0424  0.1328
16831W        W21231  23.828   1.021   4.907 -0.2828  0.4773 -0.2538
16832W        W21232  12.485   2.997   8.689 -0.0941  0.1452  0.1682
16833W        W21233   2.121   3.939   0.181 -0.1301  0.1727  0.2029
16834W        W21234   5.546   4.035   3.787  0.1333  0.0611 -0.0034
16835W        W21235   6.916   1.567   2.833  0.1351  0.4487 -0.1187
16836W        W21236  12.283   4.622  32.543 -0.1882 -0.1492 -0.0286
16837W        W21237  21.522   2.702  32.706  0.0562  0.1337  0.1082
16838W        W21238  17.161   0.898   0.896  0.0036 -0.1602 -0.0800
16839W        W21239  19.729   6.097  12.265  0.2416  0.0975 -0.1790
16840W        W21240  14.106   5.911   8.197 -0.3894  0.1537 -0.0510
16841W        W21241   1.738   2.267   9.776  0.2421 -0.4366  0.2416
16842W        W21242  24.599   5.897  23.078 -0.4018  0.1880 -0.0894
16843W        W21243   9.784   4.828  35.354 -0.2664 -0.1397 -0.1315
16844W        W21244  24.116   3.747  33.934  0.1644  0.1832 -0.0911
16845W        W21245  11.308   4.250  26.761  0.3547  0.0572  0.1472
16846W        W21246  22.601   6.529  13.735 -0.0375 -0.1848  0.1034
16847W        W21247   0.758   2.035  35.834 -0.1679 -0.0812 -0.1440
16848W        W21248  16.948   0.781  12.601  0.0053  0.0104 -0.0201
16849W        W21249  22.899   6.562  35.104 -0.1390  0.0549  0.0546
16850W        W21250   8.790   4.656  11.568 -0.3225  0.4603 -0.0635
16851W        W21251  11.022   5.155  10.139  0.2885 -0.1232 -0.1008
16852W        W21252   7.597   5.176  30.343 -0.1077 -0.0860 -0.0335
16853W        W21253  25.429   3.922  24.676  0.0050 -0.0067  0.1568
16854W        W21254  18.518   4.838   7.685 -0.0421  0.0831 -0.1674
16855W        W21255   7.056   3.184  13.596  0.0079  0.0612  0.0605
16856W        W21256   5.583   6.441   8.053 -0.3920  0.0591 -0.3568
16857W        W21257  24.271   4.567  24.698 -0.2046 -0.0205  0.3782
16858W        W21258  23.595   0.217  29.641 -0.0658 -0.1459 -0.4419
16859W        W21259  10.209   0.581   2.687 -0.2551  0.1929 -0.0108
16860W        W21260  11.818   5.537  34.434 -0.0813 -0.0818  0.1147
16861W        W21261  21.842   0.551   5.167  0.0339 -0.0482 -0.2674
16862W        W21262  12.284   3.677   6.900 -0.1742  0.3005 -0.0313
16863W        W21263  13.115   5.364  31.218 -0.3162 -0.1840 -0.1378
16864W        W21264   7.342   4.450   6.525 -0.1882 -0.0413 -0.2433
16865W        W21265  12.870   5.087  29.272  0.0193 -0.0232  0.0226
16866W        W21266   3.695   0.742  30.252  0.1832  0.2275  0.2232
16867W        W21267   9.125   3.244  22.884 -0.1483  0.2666  0.1452
16868W        W21268  16.092   6.010  20.910  0.1025  0.2129  0.0351
16869W        W21269  18.583   4.079   9.711  0.1620 -0.2943 -0.4524
16870W        W21270  25.975   0.519  32.409  0.0489  0.0108 -0.2028
16871W        W21271   5.569   6.460   7.548 -0.0154 -0.0282 -0.2866
16872W        W21272   5.256   6.399   2.267 -0.1584 -0.1011 -0.2243
16873W        W21273  25.781   2.418  20.723 -0.0927 -0.2806 -0.3447
16874W        W21274  19.304   4.347  21.603 -0.0193 -0.0477 -0.1702
16875W        W21275  14.984   6.546  29.586  0.1729 -0.3044  0.1391
16876W        W21276  16.179   2.234   6.257 -0.0227 -0.0747  0.1242
16877W        W21277  10.900   4.135  30.916  0.3159 -0.0411 -0.0873
16878W        W21278   2.760   2.110  23.399 -0.1261 -0.0516 -0.3490
16879W        W21279  12.617   4.350   7.742  0.0530  0.1312  0.2103
16880W        W21280   0.803   6.226   4.837  0.0890  0.3586 -0.2149
16881W        W21281  25.377   4.562   0.077 -0.1000 -0.0535  0.2480
16882W        W21282   8.618   1.262  35.265 -0.0406 -0.3714 -0.0998
16883W        W21283  19.808   6.285  33.087  0.0603 -0.2452 -0.1129
16884W        W21284  19.656   0.473  29.466  0.0717 -0.0952  0.6440
16885W        W21285  10.399   3.814   4.642  0.1152 -0.3313  0.0930
16886W        W21286  24.854   6.371   9.008 -0.2469 -0.0028  0.2704
16887W        W21287  24.588   2.900   9.628  0.0112 -0.0977  0.1146
16888W        W21288  13.505   2.449  35.851 -0.2065  0.1304 -0.0219
16889W        W21289   4.583   0.881   7.824 -0.0494 -0.0549  0.0117
16890W        W21290  18.635   4.907  10.770  0.4130  0.1392  0.1214
16891W        W21291   3.702   3.328  31.655 -0.0017 -0.0418  0.1058
16892W        W21292   6.533   0.844   0.493 -0.1616 -0.1239  0.3574
16893W        W21293  10.488   0.949   3.898  0.1008 -0.0656 -0.2658
16894W        W21294  19.274   0.354  14.250 -0.0415 -0.1360  0.0720
16895W        W21295   8.383   3.280  31.404 -0.2336  0.2218  0.0521
16896W        W21296  19.950   1.269   5.860 -0.0606  0.2029  0.0427
16897W        W21297  20.184   1.531   7.691  0.1296 -0.0017 -0.2512
16898W        W21298  13.972   2.388  35.699  0.0925 -0.0210  0.0615
16899W        W21299   9.467   4.915  24.845  0.1970 -0.1651 -0.1120
16900W        W21300  19.334   1.966  29.682 -0.2613  0.0626  0.0168
16901W        W21301  12.606   2.348  10.700 -0.0847 -0.1935  0.0904
16902W        W21302   3.695   0.396   4.300  0.5069  0.0358 -0.0374
16903W        W21303  25.232   4.864  23.295  0.0762  0.0200  0.0199
16904W        W21304  26.386   3.809  10.061  0.2178 -0.1798  0.0896
16905W        W21305   0.035   1.395  11.073  0.4195  0.3048 -0.0794
16906W        W21306  15.850   6.467   6.220  0.0167 -0.0582  0.0558
16907W        W21307  21.588   4.817  23.025  0.1273  0.3467 -0.0207
16908W        W21308  12.483   5.157  15.418 -0.0091  0.2790  0.0390
16909W        W21309   4.011   4.677   2.236 -0.1480 -0.0805  0.1069
16910W        W21310  16.732   1.151  34.811 -0.2038 -0.1694 -0.0784
16911W        W21311  22.496   2.657  15.155  0.0005 -0.3017 -0.2630
16912W        W21312   8.895   0.057  28.747  0.0392  0.2032 -0.2618
16913W        W21313  22.090   1.322  31.840 -0.1578  0.0449 -0.3019
16914W        W21314  20.859   6.235   1.169  0.2295  0.2674 -0.0433
16915W        W21315   7.210   4.362  35.657  0.1708  0.4494  0.1368
16916W        W21316  24.099   1.905   1.268 -0.1732  0.1544  0.0425
16917W        W21317   3.176   2.835   3.618 -0.0692  0.1492 -0.0857
16918W        W21318  14.864   6.199   1.653 -0.1267  0.2017 -0.1018
16919W        W21319  14.966   3.220   5.720  0.1428  0.1425 -0.1608
16920W        W21320   7.231   5.901  34.173  0.0897  0.0396 -0.0001
16921W        W21321  16.439   3.118   6.307 -0.2581  0.4566  0.1023
16922W        W21322  23.322   4.723  33.939 -0.1009 -0.0938 -0.2123
16923W        W21323  17.162   1.199  34.526 -0.0745 -0.3034  0.1150
16924W        W21324  15.411   5.241  23.403  0.1645 -0.3336  0.1322
16925W        W21325  25.773   6.592   4.725  0.1922 -0.0160  0.0496
16926W        W21326  24.755   2.559   8.131 -0.1472  0.1670  0.0589
16927W        W21327   1.500   2.362   2.793  0.1849  0.3444 -0.2056
16928W        W21328  13.388   3.866   3.970 -0.3282  0.1879  0.1889
16929W        W21329   5.963   1.176   3.300 -0.3502 -0.0692  0.3529
16930W        W21330   8.330   2.665   0.086 -0.0301 -0.2103  0.2836
16931W        W21331   7.806   2.671  12.718  0.2520 -0.0893  0.2604
16932W        W21332  11.571   6.501  25.735  0.1828 -0.0498 -0.0264
16933W        W21333  14.076   6.089  21.749 -0.1832  0.0850  0.1062
16934W        W21334  10.891   4.344   6.136 -0.0479 -0.0724 -0.1035
16935W        W21335   4.711   1.729   8.042  0.0586  0.0133 -0.0670
16936W        W21336  12.616   0.464  22.328 -0.0965  0.2905 -0.0978
16937W        W21337   6.115   1.270   6.964  0.1367 -0.3924 -0.2365
16938W        W21338  25.029   0.034  31.461  0.1120  0.0837  0.1100
16939W        W21339   9.354   5.603   3.880 -0.0186  0.1071 -0.2612
16940W        W21340  18.578   2.005  24.388  0.2263  0.1199  0.4821
16941W        W21341   2.636   5.069   1.757 -0.1285  0.0942 -0.1188
16942W        W21342  18.221   1.024   2.562 -0.0496 -0.0607  0.4417
16943W        W21343  22.205   0.910  12.987  0.2706 -0.2458 -0.0987
16944W        W21344   3.865   6.512  32.723 -0.0508 -0.0687  0.2401
16945W        W21345   7.577   4.289  12.171  0.0368  0.1018 -0.3903
16946W        W21346  11.814   6.067   3.399  0.0584  0.0308 -0.3434
16947W        W21347  13.987   5.410  13.912  0.1411 -0.0353 -0.0386
16948W        W21348  24.822   6.181  31.950  0.1495 -0.0030  0.1022
16949W        W21349  20.466   2.941  28.612  0.0432 -0.2699 -0.2222
16950W        W21350   7.981   1.502   8.707 -0.1973  0.0632  0.3302
16951W        W21351  18.036   2.580   1.493  0.0125  0.3993 -0.1500
16952W        W21352  17.098   5.053  10.167 -0.0030 -0.0369 -0.0353
16953W        W21353  25.775   0.222  13.881  0.4071 -0.3732 -0.2196
16954W        W21354  19.558   4.122   0.436  0.3342 -0.0749  0.0864
16955W        W21355   8.573   1.420  34.244  0.1177 -0.0537 -0.0853
16956W        W21356  21.292   4.190  29.541 -0.0552 -0.0925  0.1732
16957W        W21357  21.062   1.457   5.905  0.0362  0.0852 -0.0312
16958W        W21358   2.103   5.257  13.672 -0.0277  0.1956 -0.1563
16959W        W21359  21.157   0.842   6.555  0.1584 -0.0244 -0.0162
16960W        W21360   5.073   2.134  25.824  0.1679  0.2430 -0.0273
16961W        W21361   7.503   4.139   9.489 -0.0596 -0.2573  0.0082
16962W        W21362   2.913   3.855   5.284 -0.1182 -0.1185 -0.1475
16963W        W21363   6.152   4.710  30.745 -0.0460  0.0170  0.0477
16964W        W21364  17.000   5.051   8.557 -0.2265 -0.0099  0.1052
16965W        W21365   6.682   3.624   5.362  0.0513 -0.1693 -0.0664
16966W        W21366  14.839   0.368  22.580 -0.1152 -0.0302  0.0309
16967W        W21367  15.256   0.071  30.881  0.3204  0.1176 -0.0665
16968W        W21368   1.076   5.391  14.935  0.0611  0.1901  0.1107
16969W        W21369   7.065   3.753  13.479  0.0933 -0.0817  0.0945
16970W        W21370  18.862   1.996  30.498 -0.2861  0.1135  0.1466
16971W        W21371  24.333   6.433  34.311  0.0120  0.2450  0.0726
16972W        W21372   7.040   3.037  25.194  0.1148 -0.0035 -0.1269
16973W        W21373  15.799   1.890   1.787  0.2251 -0.0015 -0.1299
16974W        W21374   0.411   3.457  12.923 -0.2565 -0.0730 -0.0372
16975W        W21375  22.399   2.949  34.210 -0.2003 -0.0452 -0.0138
16976W        W21376  13.229   0.699   9.219 -0.0789  0.0834 -0.0306
16977W        W21377  24.949   2.140  28.276 -0.1958  0.0028 -0.3116
16978W        W21378   8.753   4.129   1.709 -0.2135 -0.0352  0.1483
16979W        W21379   7.616   2.550  32.420 -0.0237  0.1189  0.0793
16980W        W21380  20.158   6.074  35.267  0.2323  0.0129  0.0311
16981W        W21381  13.243   0.687   1.710  0.3637 -0.1839 -0.0972
16982W        W21382  24.258   0.572   9.074 -0.0782 -0.1134  0.2057
16983W        W21383   0.854   2.102   6.019 -0.1600  0.1658  0.0498
16984W        W21384   8.048   1.942  11.161  0.0153 -0.0113  0.0142
16985W        W21385   4.835   1.292   1.019  0.0283 -0.0975  0.1734
16986W        W21386   6.581   5.245  30.062  0.3312  0.1698  0.1994
16987W        W21387  18.174   4.880   8.113  0.0200  0.0502  0.0034
16988W        W21388  17.866   4.838  29.350  0.1487  0.4376  0.1237
16989W        W21389  26.102   3.597   0.150  0.2083  0.0990  0.0984
16990W        W21390   4.121   4.589   6.281  0.1366 -0.0831  0.2290
16991W        W21391  22.764   5.373  35.669  0.1106  0.2910  0.0623
16992W        W21392  20.487   1.624  24.121  0.1628  0.5150  0.1002
16993W        W21393   6.134   5.636   5.447 -0.1699  0.0700  0.2298
16994W        W21394  11.363   6.529  34.466  0.3682  0.1570 -0.0739
16995W        W21395   2.622   6.494   8.278  0.3187  0.2363 -0.2387
16996W        W21396   5.276   5.116   3.025 -0.3874 -0.2111  0.0732
16997W        W21397  23.567   1.768   3.291 -0.1661 -0.2550  0.2276
16998W        W21398   5.962   2.137  25.530 -0.0282 -0.0803  0.0746
16999W        W21399  20.411   5.519   8.574  0.1570 -0.3184  0.0814
17000W        W21400  16.487   4.958  14.741  0.0730  0.1027  0.3070
17001W        W21401  21.768   2.669   7.502 -0.1375  0.2247 -0.0857
17002W        W21402   3.394   4.027  13.079  0.0352  0.0039 -0.1518
17003W        W21403   0.188   3.383  32.517 -0.0411 -0.0173  0.2299
17004W        W21404  16.572   0.787  28.919 -0.0032  0.1627  0.0148
17005W        W21405   6.194   3.326   3.034 -0.1458  0.1319 -0.0449
17006W        W21406   3.326   4.348  11.107  0.2367  0.0388  0.0809
17007W        W21407  18.253   4.901  14.324  0.0820  0.1677 -0.0578
17008W        W21408   3.821   0.669  32.143  0.0034 -0.0598  0.2552
17009W        W21409  16.836   0.560  22.879 -0.0185 -0.4235  0.1186
17010W        W21410  22.835   6.579  10.179 -0.2138  0.3909  0.2619
17011W        W21411  24.633   1.861  34.220 -0.0411 -0.1043 -0.1396
17012W        W21412  11.159   6.458  30.568 -0.1805  0.3294  0.0210
17013W        W21413  10.527   6.464   1.046  0.0909  0.3114 -0.1519
17014W        W21414  14.433   3.262  27.962 -0.2489 -0.1279  0.0069
17015W        W21415   3.853   2.015   8.619 -0.1936 -0.2619 -0.0829
17016W        W21416  16.690   5.932  24.319 -0.4295 -0.0293 -0.0429
17017W        W21417  22.398   2.637  24.616  0.0157 -0.3250  0.0013
17018W        W21418  12.270   5.259   9.290 -0.1947 -0.0161  0.1591
17019W        W21419  25.989   4.891  32.012  0.1277 -0.1993 -0.1399
17020W        W21420   9.308   1.082   0.306 -0.2026 -0.0831  0.1903
17021W        W21421   2.064   5.823   1.807 -0.2528  0.1986 -0.1933
17022W        W21422   3.263   3.417   1.614 -0.3627 -0.2223  0.0978
17023W        W21423  21.696   1.317  30.455 -0.3675 -0.0997  0.0015
17024W        W21424   9.180   5.281   0.442 -0.1834  0.1806  0.0545
17025W        W21425  14.787   6.121  13.155 -0.1406 -0.0457 -0.1953
17026W        W21426  22.597   5.603  32.277  0.1957 -0.3305 -0.1431
17027W        W21427   4.190   6.141  11.804 -0.0537  0.0463  0.2079
17028W        W21428  12.845   1.620   2.769  0.1479 -0.1092  0.1671
17029W        W21429   0.055   2.870   5.150  0.1338  0.1483  0.3665
17030W        W21430  19.736   5.506  27.970 -0.3759 -0.3015  0.0054
17031W        W21431  20.102   2.150   4.979 -0.2053 -0.0644  0.1347
17032W        W21432  21.024   0.197  11.870  0.2390  0.0939 -0.3696
17033W        W21433   0.941   1.331   3.507  0.1168 -0.0227  0.0031
17034W        W21434   0.990   5.001   8.767 -0.0892  0.0550  0.1243
17035W        W21435  16.969   2.028  22.233  0.1890 -0.1422 -0.3107
17036W        W21436  16.441   5.609  30.523 -0.0479  0.1014  0.1956
17037W        W21437   8.692   1.399   6.150  0.0593 -0.1211  0.1571
17038W        W21438  14.933   6.337  12.656  0.0051  0.1450  0.0831
17039W        W21439   3.974   1.463  32.805  0.0128  0.1104  0.0413
17040W        W21440  15.948   4.425   4.232  0.1221  0.0986 -0.3250
17041W        W21441  25.967   4.263  32.695  0.3443  0.3689 -0.0062
17042W        W21442  15.147   1.018  29.344  0.1212  0.1274  0.0627
17043W        W21443  15.164   2.906   5.349  0.0301 -0.0872 -0.1287
17044W        W21444  26.375   3.732  29.313 -0.0540  0.0447  0.2302
17045W        W21445  14.318   6.354   8.124  0.0785 -0.0797 -0.0220
17046W        W21446  18.528   5.118   1.399 -0.1696 -0.1972  0.0713
17047W        W21447  20.663   5.004  11.874 -0.0690  0.0100  0.0327
17048W        W21448   4.233   5.281  30.623  0.1753 -0.1144  0.2178
17049W        W21449   2.672   2.094  29.717 -0.1372  0.0027  0.0142
17050W        W21450  25.815   5.872   1.970 -0.1559 -0.0342  0.0589
17051W        W21451   7.735   0.569  28.284 -0.0713 -0.0018 -0.0330
17052W        W21452   9.734   1.422   1.200  0.1178  0.0906  0.1150
17053W        W21453   2.387   4.413  11.741 -0.3078  0.0508  0.0920
17054W        W21454  12.563   6.520  25.145  0.1402 -0.2023 -0.1169
17055W        W21455  12.575   0.185  11.224 -0.1476  0.1380  0.1492
17056W        W21456  13.984   2.566  26.175 -0.0162  0.2533 -0.0163
17057W        W21457  18.853   0.859  24.153 -0.0101  0.1122  0.1568
17058W        W21458  19.824   6.286   8.034  0.0857 -0.1332  0.0112
17059W        W21459   0.785   6.437   6.198  0.2013 -0.2459  0.0789
17060W        W21460  21.206   3.310  33.255  0.1152 -0.1384  0.0279
17061W        W21461   7.658   4.577   1.850  0.0919 -0.1210  0.1388
17062W        W21462  15.678   5.956  29.652 -0.2232 -0.4147  0.0979
17063W        W21463  23.957   5.337  26.831  0.2196  0.1183 -0.0392
17064W        W21464   3.255   6.359  32.004  0.1688  0.0427  0.2056
17065W        W21465  20.151   3.949  10.334  0.0864 -0.3027  0.4053
17066W        W21466  11.157   5.642  34.814 -0.0445  0.1111 -0.3209
17067W        W21467   7.901   0.344  35.740 -0.0269 -0.2491  0.1604
17068W        W21468  18.756   1.470   7.832 -0.0318 -0.0651 -0.3445
17069W        W21469   7.788   0.826  30.623  0.2100 -0.1705  0.1134
17070W        W21470   9.850   4.112  31.114  0.0010 -0.1104  0.1690
17071W        W21471  13.474   1.921   9.085 -0.0355 -0.0553 -0.2272
17072W        W21472  25.284   0.857  20.428  0.0440 -0.3227 -0.0235
17073W        W21473  21.001   3.963  25.414 -0.2157  0.3716 -0.0633
17074W        W21474   7.380   1.966   6.082 -0.3805 -0.0193 -0.2514
17075W        W21475  14.359   2.835  24.535  0.0910 -0.0741  0.1167
17076W        W21476   6.413   0.254   8.158 -0.0539 -0.2045  0.0739
17077W        W21477  22.778   4.836  28.889  0.1311  0.1987 -0.1642
17078W        W21478   8.841   2.957   4.768  0.3373  0.0112  0.2875
17079W        W21479  20.264   5.838  31.976  0.1503 -0.1145  0.1797
17080W        W21480   9.287   2.396  30.356 -0.0144  0.0234  0.2717
17081W        W21481  16.866   2.551  11.320  0.7945 -0.2438  0.1356
17082W        W21482  21.717   1.608   4.025 -0.0423 -0.2896 -0.1229
17083W        W21483  20.897   6.154  33.838 -0.1561 -0.1177 -0.2389
17084W        W21484  22.418   4.303   4.943  0.2576 -0.0520  0.0448
17085W        W21485   5.167   4.877  31.879  0.2390  0.0120 -0.1105
17086W        W21486  21.909   1.244  27.694 -0.0413  0.1523  0.0486
17087W        W21487   4.025   6.093   7.387 -0.0697  0.2844  0.1462
17088W        W21488  21.043   3.293   7.963  0.1255  0.1407  0.0015
17089W        W21489  24.527   3.288  25.228  0.0051 -0.0385  0.0319
17090W        W21490  24.139   1.055  12.566  0.2099  0.0291 -0.2266
17091W        W21491  24.240   5.131  22.610  0.0589  0.3239 -0.3000
17092W        W21492  14.110   5.107  23.968  0.2357 -0.1824  0.0334
17093W        W21493   2.856   1.966  22.031  0.3802 -0.2371 -0.0907
17094W        W21494   4.444   4.631  15.444 -0.4505 -0.0463 -0.2795
17095W        W21495   1.351   6.014   4.392 -0.2893 -0.4090 -0.0814
17096W        W21496   7.618   1.036  15.346  0.2689 -0.1760 -0.0527
17097W        W21497  25.690   4.838   3.249 -0.1425  0.0089 -0.0978
17098W        W21498  25.195   4.628   0.534  0.1167 -0.0240  0.0821
17099W        W21499  13.068   5.237  30.717 -0.2888  0.0766 -0.4364
17100W        W21500   4.678   3.750   3.399  0.2184 -0.3322  0.0032
17101W        W21501  10.691   2.937   4.847  0.1082 -0.1895 -0.1804
17102W        W21502  14.686   4.956  30.587 -0.0435 -0.1173 -0.2716
17103W        W21503  13.432   0.408   6.736 -0.0544  0.0514 -0.1547
17104W        W21504  15.290   0.587  28.626 -0.0067 -0.2134 -0.2246
17105W        W21505  13.612   1.578   4.027 -0.1092  0.0939  0.2715
17106W        W21506   2.275   4.669   0.957 -0.0373 -0.0359 -0.1236
17107W        W21507   4.495   1.225  28.625 -0.0679  0.0640 -0.1303
17108W        W21508   6.676   3.622   1.002 -0.1728 -0.1495 -0.0286
17109W        W21509   8.547   2.550   9.527  0.0722  0.1726 -0.0770
17110W        W21510   6.805   6.352   8.889 -0.1495  0.1270  0.0888
17111W        W21511   3.009   5.234  11.308 -0.1255 -0.3023  0.1909
17112W        W21512   1.839   4.812   2.644 -0.1309  0.2499  0.2579
17113W        W21513  17.200   0.369  33.938 -0.3016 -0.0493 -0.2204
17114W        W21514  21.742   0.020   2.379 -0.1420 -0.0027 -0.0010
17115W        W21515   4.219   3.975   9.008 -0.0393  0.1862 -0.1389
17116W        W21516   3.548   6.126  29.667  0.0441  0.1734  0.1420
17117W        W21517   2.871   3.144  22.997  0.1793  0.1573  0.2701
17118W        W21518   7.249   0.069  32.995  0.1848  0.2133 -0.3671
17119W        W21519   3.079   3.151  25.647  0.0114 -0.2587  0.1736
17120W        W21520  16.551   2.252  22.122  0.0225  0.3539  0.0658
17121W        W21521   8.913   0.188  30.618  0.1875  0.1302  0.1305
17122W        W21522  10.176   0.467  15.548 -0.1601  0.0261  0.1351
17123W        W21523  23.541   4.029  30.430  0.1851 -0.3068 -0.0580
17124W        W21524   2.558   5.351  13.820  0.3987  0.1774 -0.1100
17125W        W21525   5.329   0.707   2.086 -0.2071  0.1091  0.0853
17126W        W21526   5.294   1.489   4.847 -0.1199  0.1510  0.0572
17127W        W21527   0.450   2.354  21.559 -0.1900  0.1493 -0.2390
17128W        W21528  13.928   1.673  27.936  0.1263 -0.1404 -0.2336
17129W        W21529   0.505   4.453   2.398 -0.1455 -0.1790 -0.0284
17130W        W21530  19.003   0.768  26.056 -0.1457  0.2198  0.0382
17131W        W21531   5.965   4.850   6.393  0.1216  0.0787 -0.0780
17132W        W21532   8.632   3.681   4.642 -0.2502  0.0418  0.1793
17133W        W21533   8.970   5.972   5.906  0.3583 -0.0399 -0.0281
17134W        W21534  16.908   3.260   6.565  0.2139  0.1270 -0.1160
17135W        W21535  20.447   4.368   1.106 -0.1207  0.0472  0.0701
17136W        W21536   0.915   3.514  20.690 -0.0270  0.0206  0.4312
17137W        W21537  23.425   5.957  24.372 -0.0040  0.0635  0.1309
17138W        W21538  16.999   3.715  24.533  0.2083 -0.0278  0.1887
17139W        W21539  17.337   3.549   1.348 -0.0537 -0.1507  0.2371
17140W        W21540   2.697   2.163  15.530 -0.2833  0.2678 -0.0231
17141W        W21541  18.199   0.299  24.140 -0.0250  0.0114 -0.2655
17142W        W21542   8.636   5.697   4.485 -0.1326 -0.1804  0.0541
17143W        W21543   7.222   5.511  15.882 -0.0160 -0.1255  0.1694
17144W        W21544  19.838   3.811  26.235 -0.2000  0.0413  0.0029
17145W        W21545   8.403   5.069   9.582  0.0866 -0.1188  0.0421
17146W        W21546   4.582   4.323   7.870  0.0461  0.3757  0.1901
17147W        W21547  22.940   3.975  10.344 -0.0201 -0.0881  0.0430
17148W        W21548  20.667   4.588  14.383  0.0917 -0.0539 -0.1448
17149W        W21549  23.926   1.243  20.076  0.3773 -0.1264  0.2010
17150W        W21550  12.079   4.453   3.572  0.5199  0.0720 -0.1941
17151W        W21551  20.889   3.443  20.825 -0.1666 -0.1690 -0.1330
17152W        W21552   4.369   1.658   2.092 -0.0202  0.1917 -0.1131
17153W        W21553   8.892   0.461  21.588 -0.0982 -0.0113  0.1560
17154W        W21554  21.770   2.725   3.784 -0.3401 -0.2446 -0.0529
17155W        W21555  17.849   5.831   6.446 -0.0213 -0.2883 -0.0935
17156W        W21556  23.383   5.664   4.617  0.1441  0.2474  0.1322
17157W        W21557  23.739   1.286  26.100  0.0174 -0.1799 -0.1042
17158W        W21558  15.994   2.323  24.053 -0.1847  0.0195  0.0956
17159W        W21559   5.254   0.166   4.543 -0.1737  0.0566 -0.0012
17160W        W21560  20.879   2.451  15.191 -0.0822 -0.0335  0.0566
17161W        W21561  10.772   5.593   1.712  0.2983  0.1022  0.1569
17162W        W21562  13.190   3.016   7.563  0.0018  0.0874  0.1075
17163W        W21563   1.611   6.516  22.131 -0.0984  0.2838  0.1359
17164W        W21564  16.339   2.412  22.928 -0.3169 -0.0248  0.0013
17165W        W21565  25.484   0.913  25.866 -0.1444  0.0817  0.1036
17166W        W21566  13.822   1.980  29.738  0.0186  0.0440  0.2014
17167W        W21567   6.927   2.304  12.376 -0.0128 -0.3830  0.2975
17168W        W21568  21.570   6.223  11.046 -0.2638 -0.0821 -0.1314
17169W        W21569  13.662   2.682   1.491 -0.0398  0.0056 -0.3217
17170W        W21570   8.007   4.231   3.629 -0.2724  0.2256 -0.1899
17171W        W21571  19.163   2.211  27.097 -0.2601  0.0552  0.3162
17172W        W21572   9.325   4.816  12.495  0.0282 -0.1154 -0.0668
17173W        W21573  24.753   4.419   0.703  0.1572 -0.0711 -0.0032
17174W        W21574  18.181   0.273  26.140 -0.0811  0.0467 -0.1318
17175W        W21575   1.225   0.861  28.181 -0.0533  0.5384 -0.0606
17176W        W21576  24.987   3.375  24.920  0.0937  0.3672 -0.1297
17177W        W21577   6.880   4.093  33.404  0.0176 -0.0046  0.1825
17178W        W21578   4.160   5.293   8.670 -0.2724 -0.1077 -0.2388
17179W        W21579   9.324   3.829  15.030 -0.1713  0.1325  0.1900
17180W        W21580  13.652   2.155  27.232 -0.1849  0.0530  0.2660
17181W        W21581  10.375   5.429   2.921 -0.0435 -0.2461  0.2130
17182W        W21582  14.460   2.339   4.972  0.0642  0.0487  0.0195
17183W        W21583  17.206   5.272  33.254  0.1522  0.0213  0.0047
17184W        W21584  10.497   5.952   9.683 -0.3150  0.0757 -0.0430
17185W        W21585   5.482   0.862  35.132 -0.2179 -0.4901 -0.2456
17186W        W21586   4.615   5.630  31.722 -0.0180  0.0943  0.1636
17187W        W21587   1.202   5.538  32.402  0.0117  0.0711 -0.2897
17188W        W21588  11.031   2.572   7.179 -0.0219  0.0657  0.5077
17189W        W21589  15.384   6.580  21.779  0.1269 -0.0980 -0.0247
17190W        W21590   5.030   3.153  35.925 -0.0826 -0.0752 -0.1049
17191W        W21591  24.549   5.004   2.706 -0.2777 -0.2962  0.3259
17192W        W21592   9.189   3.047  25.357 -0.2117  0.1689 -0.0172
17193W        W21593   3.638   5.915  15.483  0.1737 -0.1215 -0.0158
17194W        W21594   4.366   1.880   1.615 -0.2764  0.0237 -0.2115
17195W        W21595  25.934   2.399   7.569  0.0825  0.0655  0.2227
17196W        W21596  14.461   2.367  15.197  0.1974  0.1023 -0.1503
17197W        W21597  18.241   1.412   8.787 -0.2729  0.2498 -0.3925
17198W        W21598   1.436   0.317  33.339 -0.2522  0.2586  0.0867
17199W        W21599  11.377   1.255  27.775  0.0616 -0.0652  0.0815
17200W        W21600  21.506   6.301  35.948 -0.1608  0.1571 -0.0784
17201W        W21601  23.835   1.021  11.940 -0.0097 -0.1216 -0.0458
17202W        W21602  23.815   5.978  21.056 -0.2952 -0.0200  0.0663
17203W        W21603   8.185   6.469  21.342  0.1764  0.0290 -0.0129
17204W        W21604  19.196   3.463  20.559 -0.0545 -0.1098 -0.0297
17205W        W21605   6.180   4.234  13.153 -0.0592 -0.0846  0.1483
17206W        W21606  15.130   4.876  35.507 -0.0605 -0.2260 -0.0096
17207W        W21607  24.979   4.380   6.104  0.3732 -0.0926 -0.2298
17208W        W21608  14.882   5.102   2.103  0.0221  0.2838  0.0627
17209W        W21609   3.505   4.075  21.583 -0.2423 -0.2897 -0.0172
17210W        W21610  25.253   3.666   9.525  0.0512  0.1208 -0.2449
17211W        W21611   2.370   5.717  15.497  0.3718 -0.2099 -0.1440
17212W        W21612   0.385   1.058  28.391 -0.0474  0.1050 -0.1800
17213W        W21613  25.766   5.861   8.248  0.3038  0.1894  0.2327
17214W        W21614   1.764   3.359   3.354  0.1110  0.2734  0.0129
17215W        W21615  13.720   3.336   3.521 -0.1291  0.3653  0.1343
17216W        W21616   0.687   5.406   6.879  0.0364 -0.0693  0.1588
17217W        W21617  25.179   5.330  31.173  0.0831 -0.1393 -0.2354
17218W        W21618   6.570   3.929  14.074 -0.1660  0.1150  0.0862
17219W        W21619  13.651   3.396   6.069  0.0128  0.1519  0.0071
17220W        W21620   6.105   1.334  31.832  0.1652 -0.0867  0.1223
17221W        W21621  16.021   5.437  25.980  0.1723  0.0121 -0.0747
17222W        W21622  17.785   6.390   3.114  0.1785 -0.0148  0.0110
17223W        W21623  18.906   4.109   2.175  0.0020  0.5587 -0.2066
17224W        W21624   1.277   2.085  28.074  0.0205 -0.2451 -0.0278
17225W        W21625  18.065   4.881  28.156 -0.0298  0.0382  0.1560
17226W        W21626  23.966   5.798  25.100  0.2422  0.0564 -0.1594
17227W        W21627  23.001   5.524   0.058  0.3498  0.1794 -0.2242
17228W        W21628  12.990   3.386  20.692  0.0698 -0.2331 -0.0340
17229W        W21629  19.704   1.951  20.607 -0.1480 -0.2136  0.1248
17230W        W21630  25.125   2.732  32.853 -0.1173  0.0783  0.1444
17231W        W21631   4.439   0.766   2.242  0.1811  0.0692  0.1672
17232W        W21632   9.992   1.009  11.942 -0.1576 -0.1114  0.0587
17233W        W21633   8.217   2.615   0.613 -0.2615  0.0395 -0.1687
17234W        W21634  20.711   4.646  29.523 -0.3124 -0.2971  0.0517
17235W        W21635   4.875   4.598  25.702 -0.1598  0.1816 -0.1297
17236W        W21636   9.526   2.718  14.632  0.3442 -0.1244 -0.0523
17237W        W21637   1.711   6.044  22.192  0.1124 -0.4745 -0.0109
17238W        W21638   5.377   1.079   1.301 -0.1401  0.0099 -0.3738
17239W        W21639   9.535   4.103  34.528  0.1016 -0.0997  0.0360
17240W        W21640  11.833   4.298  29.836  0.1791 -0.0861 -0.1114
17241W        W21641   9.584   2.806  25.671 -0.1554  0.0895 -0.0431
17242W        W21642  25.856   0.825   6.360 -0.2626  0.2247 -0.0757
17243W        W21643   7.017   6.217   8.438 -0.5026 -0.2498  0.2158
17244W        W21644  12.917   0.891  12.398  0.1912 -0.0076 -0.1533
17245W        W21645   2.484   5.873   1.435  0.1111  0.1663 -0.1512
17246W        W21646   9.937   1.035  11.179  0.2508 -0.0722 -0.2962
17247W        W21647  23.632   5.479  32.361  0.1505  0.2575  0.0019
17248W        W21648  18.158   2.782   2.427 -0.0277 -0.2279  0.0073
17249W        W21649  10.847   6.026  14.201  0.0174  0.1011 -0.0918
17250W        W21650   0.621   5.885  12.442  0.0244  0.0995 -0.1762
17251W        W21651  17.497   4.784   5.534  0.0823 -0.2017  0.3466
17252W        W21652  22.082   4.464  29.997 -0.3657  0.0431 -0.2204
17253W        W21653  23.632   1.146  11.394  0.1972  0.0109  0.0241
17254W        W21654  16.806   5.904   9.743 -0.1071 -0.0560 -0.2438
17255W        W21655  19.462   0.349   0.083  0.0307 -0.0148 -0.2261
17256W        W21656  18.547   0.735   8.937 -0.0127  0.0779 -0.1131
17257W        W21657  26.370   3.696  25.222 -0.0516 -0.0691 -0.0850
17258W        W21658   7.345   0.782   5.190  0.1796 -0.2439 -0.0477
17259W        W21659  17.999   1.656  33.567  0.1659  0.0501 -0.1720
17260W        W21660  22.782   5.440   8.458  0.3317 -0.1918 -0.0258
17261W        W21661  15.393   2.603  10.337  0.0409 -0.1543  0.4007
17262W        W21662  24.647   3.937   2.159  0.0713 -0.0679 -0.0784
17263W        W21663  14.797   6.238  34.729 -0.3184 -0.4803  0.0035
17264W        W21664   9.882   6.122   8.047  0.4363  0.0829 -0.0587
17265W        W21665  16.848   5.057  15.101 -0.1667  0.0294 -0.0109
17266W        W21666   5.194   0.001  14.282  0.2958  0.0904  0.0417
17267W        W21667   5.579   5.880  21.564  0.1819  0.1481  0.0146
17268W        W21668   7.872   2.326   7.738 -0.2864  0.2702 -0.0602
17269W        W21669  16.127   1.065   4.793 -0.3142  0.0085  0.0270
17270W        W21670  24.536   1.970  35.403 -0.0994  0.1125  0.1023
17271W        W21671  14.878   4.704   5.541 -0.2987 -0.1693  0.0503
17272W        W21672  12.651   3.565  35.367 -0.1162  0.2465 -0.2731
17273W        W21673  16.142   0.094  22.983 -0.0113  0.1160 -0.1152
17274W        W21674  21.630   3.014   3.342  0.1518  0.3432  0.0709
17275W        W21675   4.311   1.709  29.305 -0.1963 -0.1105 -0.1106
17276W        W21676  16.848   1.686   0.851 -0.2830 -0.0154 -0.1215
17277W        W21677  10.418   4.389  31.769 -0.1946  0.1029  0.1959
17278W        W21678  22.935   1.706   5.446  0.1109 -0.1217 -0.2497
17279W        W21679  18.433   5.518  35.879 -0.0895  0.3811 -0.1557
17280W        W21680  23.975   0.609   5.330 -0.0415 -0.1495 -0.0533
17281W        W21681   6.148   2.971  20.459 -0.2943 -0.0273  0.2547
17282W        W21682   9.800   0.092  25.382  0.0391 -0.2149 -0.3002
17283W        W21683  13.333   0.757  24.296  0.1021  0.1508  0.0209
17284W        W21684  22.102   0.950   4.869  0.0133  0.1393  0.1803
17285W        W21685  20.526   3.391   0.117  0.1508  0.0483  0.1646
17286W        W21686  12.752   5.022  15.907  0.1025  0.2276  0.0233
17287W        W21687  10.014   2.155  12.951 -0.0315  0.1540 -0.0758
17288W        W21688   9.113   1.540   3.665  0.1868  0.1623 -0.0488
17289W        W21689   0.540   3.173   0.040  0.0332  0.1596 -0.0188
17290W        W21690   0.305   1.677  29.156 -0.1417  0.1859  0.2225
17291W        W21691  18.266   3.147  27.440  0.1076 -0.1556 -0.2388
17292W        W21692  18.007   6.453  23.179  0.0138 -0.0925 -0.3810
17293W        W21693   7.385   1.002  30.068  0.2346  0.0264 -0.1941
17294W        W21694  14.465   1.897  14.312 -0.1697  0.1044  0.1470
17295W        W21695   3.896   3.834   0.591  0.1421  0.0671 -0.1455
17296W        W21696   3.213   1.631   0.680  0.1163 -0.0330  0.0289
17297W        W21697   9.008   0.585   8.922 -0.0445  0.2322  0.2507
17298W        W21698   4.093   0.005  12.023 -0.2341  0.0804  0.1380
17299W        W21699  12.864   5.400  15.052  0.1630 -0.1147  0.2061
17300W        W21700   1.739   4.882  13.845  0.0764 -0.1890  0.0459
17301W        W21701   1.358   4.556  22.269  0.0128  0.0607 -0.0242
17302W        W21702  25.047   1.042  24.085 -0.2214  0.0694  0.1614
17303W        W21703  14.030   3.998  26.032 -0.0805  0.1524 -0.0038
17304W        W21704  23.137   5.646  27.853 -0.0867 -0.0725  0.1021
17305W        W21705   5.956   4.512  21.514  0.2478 -0.1795 -0.1210
17306W        W21706   0.495   0.170   7.915 -0.0229  0.1641  0.1245
17307W        W21707  20.220   0.413   3.831  0.1055 -0.0502  0.1778
17308W        W21708  22.490   1.404   3.876 -0.1621  0.0456  0.2760
17309W        W21709   1.801   5.459  30.090 -0.0326  0.4235 -0.0511
17310W        W21710   6.120   1.984   6.052  0.0628  0.1988  0.1064
17311W        W21711  10.625   5.820  27.626 -0.0119 -0.2490 -0.2694
17312W        W21712  25.247   1.463  27.439  0.0510 -0.0430  0.0208
17313W        W21713   7.738   0.567  31.732  0.0704 -0.1531  0.0580
17314W        W21714   6.181   6.531  33.983 -0.0069  0.0733 -0.0817
17315W        W21715  11.967   4.219  35.906 -0.1491  0.1134  0.0342
17316W        W21716  21.240   2.825   8.943  0.2510 -0.1979 -0.0150
17317W        W21717  14.870   4.442   9.549  0.0495  0.1235  0.1370
17318W        W21718  19.784   4.522  28.703  0.1397 -0.0764 -0.2398
17319W        W21719  26.295   2.897  31.285 -0.1155 -0.1870  0.2456
17320W        W21720  21.144   6.441   2.502 -0.2161  0.0077 -0.2877
17321W        W21721  26.394   2.150   7.375  0.2351 -0.1839  0.2115
17322W        W21722   3.120   2.874  30.899  0.1640 -0.1466 -0.2185
17323W        W21723  14.236   2.546  29.186  0.0438  0.0277  0.1981
17324W        W21724   4.426   5.796  14.149 -0.0508 -0.0280 -0.0398
17325W        W21725  21.692   1.517  31.479 -0.1548 -0.0323  0.0193
17326W        W21726   5.954   1.956  29.311 -0.2383 -0.0096  0.1185
17327W        W21727  10.634   2.730  24.396  0.0063 -0.0655 -0.0231
17328W        W21728  19.038   4.246   0.303 -0.1752  0.0077 -0.0070
17329W        W21729  15.895   6.037  33.731 -0.0005 -0.1002  0.0757
17330W        W21730  12.756   1.886  25.844 -0.0313  0.0941 -0.1365
17331W        W21731  13.992   3.426   2.205  0.1929 -0.1157 -0.1389
17332W        W21732  24.887   3.081  28.299 -0.1458 -0.1044  0.1244
17333W        W21733   6.045   4.300  32.066 -0.1403  0.0756 -0.0666
17334W        W21734  18.437   6.440  34.004  0.1327 -0.1431 -0.0391
17335W        W21735  16.000   4.017  28.726  0.4551  0.0005  0.2117
17336W        W21736   7.378   6.288   8.823  0.0033 -0.0481 -0.1220
17337W        W21737  25.290   2.180   9.882  0.0641  0.0214 -0.1692
17338W        W21738   1.557   5.478   7.030  0.0860  0.2370 -0.0866
17339W        W21739  14.404   1.772  33.681  0.0969  0.1926  0.2692
17340W        W21740  18.161   1.523  11.167 -0.0689 -0.0235  0.0832
17341W        W21741  18.885   3.514   7.115 -0.0922  0.2574  0.1486
17342W        W21742  16.633   2.426  31.070 -0.2472  0.0390 -0.1371
17343W        W21743   1.974   2.946   7.420  0.2649 -0.0743  0.1770
17344W        W21744   3.638   3.750  34.321 -0.1429  0.2664 -0.1739
17345W        W21745   8.601   1.030   2.307  0.1383  0.0024  0.1009
17346W        W21746  21.506   5.141   4.122 -0.2565  0.3682  0.0953
17347W        W21747   6.595   3.567  31.270  0.0565 -0.2799 -0.0628
17348W        W21748  22.059   2.011  35.186  0.1251 -0.0179  0.0112
17349W        W21749  12.543   0.666  32.669  0.0504 -0.3027  0.0500
17350W        W21750  10.364   0.350   1.773  0.1693 -0.0064  0.0375
17351W        W21751   9.178   0.605   3.144  0.0290  0.0755 -0.2322
17352W        W21752   2.713   0.651   2.124  0.3318 -0.1434  0.1047
17353W        W21753   5.911   3.567   8.713  0.2173 -0.2355 -0.1625
17354W        W21754   6.666   0.712  31.957  0.1146  0.0133  0.3528
17355W        W21755   2.019   6.542  31.430  0.0669 -0.0594  0.2965
17356W        W21756  12.169   0.518  25.262 -0.0156 -0.2537 -0.0876
17357W        W21757  18.159   4.371  14.291 -0.2006  0.1484  0.0812
17358W        W21758   6.533   6.535   4.239 -0.1116  0.0744  0.1113
17359W        W21759   9.519   2.274  32.306  0.2734  0.2326 -0.1051
17360W        W21760   2.345   3.570  30.977 -0.0388  0.4232  0.1352
17361W        W21761   5.082   1.769   4.393  0.1344 -0.0842  0.0472
17362W        W21762  12.244   5.942   3.662 -0.1577  0.2460 -0.1833
17363W        W21763  13.931   5.548  14.436  0.2892  0.0140 -0.0482
17364W        W21764   2.206   5.736  25.462 -0.2078  0.1283  0.1152
17365W        W21765  17.504   6.568  35.684 -0.1680  0.2006 -0.1422
17366W        W21766   9.426   3.613  32.393 -0.2447 -0.0568  0.0404
17367W        W21767  13.209   6.229  28.058  0.1926  0.0103 -0.2425
17368W        W21768   5.514   0.791  33.144  0.2153  0.0384 -0.0219
17369W        W21769  21.490   5.034   7.292 -0.1247 -0.1329  0.0907
17370W        W21770   1.671   6.453   9.698  0.1966 -0.0723  0.1001
17371W        W21771  14.707   6.105  27.651  0.0458 -0.2454  0.1038
17372W        W21772  18.143   3.054   4.679  0.1779 -0.3951  0.0798
17373W        W21773  19.135   4.988  26.331  0.2427 -0.0479 -0.0344
17374W        W21774   1.056   2.003  22.795 -0.1939  0.2310  0.5074
17375W        W21775  12.495   1.561   8.475 -0.0567 -0.1982 -0.0443
17376W        W21776  15.883   1.900   0.851  0.1651  0.2944 -0.2121
17377W        W21777  12.209   3.636  26.189 -0.1625 -0.0655  0.1156
17378W        W21778  24.962   1.920   3.587 -0.2221 -0.1509  0.3543
17379W        W21779   7.745   0.284  12.931  0.0510  0.2229 -0.2270
17380W        W21780  13.897   3.020  25.886  0.1007  0.1483  0.0211
17381W        W21781  25.902   4.632   7.760 -0.0788 -0.1019 -0.3214
17382W        W21782   3.412   6.475  33.461 -0.2613 -0.1281 -0.2237
17383W        W21783   8.459   2.842  34.776 -0.0549 -0.4414 -0.0920
17384W        W21784  17.799   3.450  26.123  0.2182  0.2749  0.0773
17385W        W21785  20.838   1.825  14.096 -0.0895 -0.0675 -0.0706
17386W        W21786  17.158   4.094  25.227  0.2663 -0.0918  0.2792
17387W        W21787  25.682   0.884   5.062 -0.0041 -0.1764 -0.0915
17388W        W21788   3.536   1.776   4.623 -0.1189  0.0512 -0.1809
17389W        W21789  21.034   0.507   4.050 -0.0213  0.2091  0.2968
17390W        W21790  11.775   4.729   7.129  0.3059 -0.0703 -0.2095
17391W        W21791  21.964   2.058   2.357  0.1978 -0.4117  0.2600
17392W        W21792  20.941   4.075  32.716  0.0376 -0.0229  0.3706
17393W        W21793  16.504   6.598  32.848  0.0620  0.1562 -0.4665
17394W        W21794  24.880   3.092   1.452 -0.1387 -0.1796 -0.1006
17395W        W21795  13.834   3.564   2.633  0.1926  0.0262  0.0982
17396W        W21796   7.520   6.282  32.227 -0.0681 -0.0193 -0.0356
17397W        W21797  17.729   2.320  34.573  0.1835 -0.3925  0.0741
17398W        W21798   1.636   1.040  32.671 -0.0616 -0.0056 -0.3291
17399W        W21799  16.646   5.441  31.690 -0.0939 -0.2598  0.0008
17400W        W21800  10.323   5.144  30.490  0.1544  0.1381 -0.4675
17401W        W21801  21.158   4.181  11.710 -0.2530 -0.1343  0.1907
17402W        W21802  19.005   2.047  29.313 -0.0676 -0.0649 -0.2762
17403W        W21803   0.215   4.432  35.148 -0.1006 -0.0084  0.1184
17404W        W21804   9.861   3.848  15.323  0.0704 -0.0792 -0.1127
17405W        W21805   5.540   0.721  30.587  0.2249 -0.0511  0.0806
17406W        W21806   3.399   0.345  21.327 -0.1715  0.1344 -0.2447
17407W        W21807   2.287   5.781   9.620 -0.0361 -0.1946 -0.0485
17408W        W21808   0.507   2.682  30.405 -0.0853  0.0481 -0.0384
17409W        W21809   2.764   6.120   4.766 -0.1615 -0.0775  0.1196
17410W        W21810   0.701   5.538  23.196 -0.0226 -0.0326  0.0653
17411W        W21811  21.455   0.606   8.234  0.1239 -0.2947  0.3503
17412W        W21812  19.530   3.226  34.879 -0.1242 -0.0732  0.1203
17413W        W21813  15.399   2.429  28.504  0.0463 -0.2668 -0.0319
17414W        W21814   8.415   3.175   8.901  0.0860  0.1768 -0.4434
17415W        W21815   7.273   2.505   8.351  0.0837 -0.0890  0.2283
17416W        W21816   9.237   5.541   9.034  0.0922 -0.0116  0.0144
17417W        W21817   2.970   1.969  10.384  0.1991  0.3810 -0.1828
17418W        W21818   7.959   0.352  23.671  0.0837 -0.0002  0.0191
17419W        W21819  19.817   6.040  32.081 -0.0862 -0.0312  0.0610
17420W        W21820   4.427   0.298  27.136  0.0464 -0.2539  0.2417
17421W        W21821   2.502   3.077   4.189 -0.0675 -0.3069  0.3430
17422W        W21822  16.952   0.244  11.964 -0.0016  0.1643 -0.0129
17423W        W21823  21.157   5.412  11.067  0.0211  0.0475 -0.0365
17424W        W21824  12.080   1.671   4.449  0.0320  0.1382 -0.2060
17425W        W21825   2.883   2.707  26.464 -0.1925  0.0392  0.1504
17426W        W21826   5.839   1.890  34.757  0.2043 -0.1178 -0.0130
17427W        W21827   2.708   2.704  14.364  0.0063  0.0586 -0.1808
17428W        W21828  21.246   2.076   2.698 -0.2148  0.1314  0.1818
17429W        W21829   5.169   1.181  25.416 -0.5229 -0.1041 -0.1377
17430W        W21830   9.253   3.614  28.318 -0.0308  0.0678  0.0877
17431W        W21831   1.046   4.254  33.057  0.0486 -0.1290 -0.1254
17432W        W21832   6.938   0.844   4.850 -0.2501 -0.2531  0.0574
17433W        W21833  19.377   0.839  28.743 -0.0814  0.1003 -0.0012
17434W        W21834  22.610   2.550  35.709  0.0602 -0.1042 -0.1615
17435W        W21835   1.132   2.599  22.002  0.1529  0.1780 -0.0248
17436W        W21836   0.231   1.960   9.192 -0.1026 -0.1025  0.2803
17437W        W21837  24.372   6.099  24.319  0.0298 -0.2717 -0.1130
17438W        W21838  11.004   3.041   9.769 -0.0610  0.1551  0.0676
17439W        W21839   1.449   2.479  13.443 -0.0712  0.1200  0.2076
17440W        W21840   0.870   4.759   2.680  0.0081 -0.1495 -0.1312
17441W        W21841   7.543   6.160  26.463  0.0304  0.0314  0.0538
17442W        W21842  22.005   0.168  24.516 -0.1599 -0.0024  0.0226
17443W        W21843  22.324   0.983   5.907 -0.0173  0.2644  0.0733
17444W        W21844  21.545   3.599  33.701 -0.1585  0.2854 -0.0277
17445W        W21845  12.342   5.345   2.513  0.2359 -0.0299  0.1265
17446W        W21846  10.151   6.276  21.658  0.1080 -0.1018 -0.0852
17447W        W21847  17.181   2.401  12.186  0.3086  0.2338  0.0242
17448W        W21848  12.428   1.717   2.296 -0.0956 -0.0369 -0.0733
17449W        W21849   6.718   0.149   2.013 -0.1900 -0.2133 -0.0494
17450W        W21850   6.583   0.557  29.920 -0.0633  0.0602  0.1679
17451W        W21851  20.047   4.756  30.373 -0.2203 -0.0465 -0.2635
17452W        W21852  25.755   1.134   1.381  0.0384 -0.2119 -0.0154
17453W        W21853  24.239   5.115  34.948 -0.0635  0.3757 -0.0900
17454W        W21854   2.231   5.602  26.436  0.0478 -0.1157  0.0152
17455W        W21855   4.483   5.544  12.656 -0.1380  0.1275 -0.1712
17456W        W21856  18.082   5.214  31.601  0.1034 -0.1375 -0.3412
17457W        W21857   7.228   0.317  34.407  0.0524 -0.0420  0.2809
17458W        W21858  21.153   1.746  30.136 -0.2858 -0.1572 -0.4088
17459W        W21859  25.239   6.470   8.668 -0.0680 -0.0179  0.2289
17460W        W21860   7.298   5.471  14.257 -0.1477  0.0193  0.0970
17461W        W21861  23.988   4.155   9.887 -0.0695  0.1465 -0.0247
17462W        W21862  11.419   3.604  30.503  0.1426  0.1881 -0.0686
17463W        W21863  15.106   2.919   4.421 -0.1800  0.0222  0.0151
17464W        W21864   7.907   3.700  12.127 -0.1036 -0.0140  0.1379
17465W        W21865   7.339   0.114  30.907  0.3621 -0.2198  0.1240
17466W        W21866   8.042   3.321   3.741  0.0224  0.0237 -0.4857
17467W        W21867  21.300   4.169   1.152 -0.0415 -0.0977  0.0871
17468W        W21868   0.210   0.504   4.850 -0.2815 -0.0078 -0.2349
17469W        W21869   5.726   1.892   1.846 -0.2248  0.0684  0.1256
17470W        W21870  10.739   2.912  24.986  0.1867 -0.1199  0.2115
17471W        W21871   3.846   3.414   6.753 -0.0076 -0.0812  0.2824
17472W        W21872   2.911   2.052  32.599  0.0630 -0.0636 -0.0230
17473W        W21873  23.346   3.004  32.075 -0.0973  0.2333  0.0703
17474W        W21874  15.614   4.657  25.718 -0.2122 -0.0680 -0.1576
17475W        W21875  24.371   3.322   9.855 -0.1011 -0.3398  0.0309
17476W        W21876   9.798   5.608  12.940 -0.1411  0.0683  0.0677
17477W        W21877  10.553   1.263   5.853  0.0094 -0.0814 -0.0092
17478W        W21878   3.633   5.734   0.183 -0.2999 -0.0382 -0.2650
17479W        W21879  11.112   4.457  27.196  0.1437 -0.1777 -0.0256
17480W        W21880   3.688   0.161  27.743  0.3539 -0.1047  0.0181
17481W        W21881   4.186   4.422  15.058 -0.2234 -0.1498  0.0726
17482W        W21882  17.225   1.613  23.131 -0.0125  0.1484 -0.4655
17483W        W21883  26.389   1.437  31.063 -0.1018 -0.0367  0.0584
17484W        W21884  20.082   4.163  26.751  0.0436 -0.2427 -0.3361
17485W        W21885   2.459   3.743   9.769 -0.0916 -0.3206  0.1978
17486W        W21886   1.204   4.884  14.086  0.0083 -0.0954  0.0153
17487W        W21887  19.397   3.382  10.159  0.0609 -0.0561  0.3056
17488W        W21888  16.315   5.847  12.406 -0.0088  0.1706 -0.3605
17489W        W21889  17.852   3.148   9.668 -0.2211 -0.1444 -0.1313
17490W        W21890  18.194   2.231   4.616  0.1929  0.0700 -0.0274
17491W        W21891  24.280   3.036  31.068  0.1335  0.0010  0.2293
17492W        W21892  26.307   2.944   6.999  0.3537 -0.1371 -0.1075
17493W        W21893  13.324   2.081  25.793 -0.2821  0.0081  0.1924
17494W        W21894   0.240   1.865  13.252 -0.1961 -0.1981 -0.0601
17495W        W21895  10.450   0.058  27.249 -0.0432  0.1669 -0.1283
17496W        W21896  16.193   0.781  27.479  0.2190  0.3601 -0.0784
17497W        W21897  20.939   2.740   1.872 -0.0562  0.2017  0.0076
17498W        W21898   9.099   6.425  11.579 -0.0269 -0.0891 -0.3077
17499W        W21899   7.462   1.476   4.376  0.2930  0.1042 -0.1070
17500W        W21900   0.640   5.949  28.816 -0.1378  0.0587  0.0152
17501W        W21901  23.661   3.173  35.031 -0.1249 -0.0409 -0.0386
17502W        W21902  23.576   1.185  30.979 -0.0664  0.2204  0.2346
17503W        W21903   1.114   0.532   1.496  0.1890 -0.3741 -0.2005
17504W        W21904   3.076   3.804  32.064 -0.1724  0.0285 -0.2466
17505W        W21905  14.250   2.587   3.318 -0.0389 -0.2619 -0.0228
17506W        W21906  13.617   6.463  22.867 -0.3207  0.0906 -0.0432
17507W        W21907   5.386   0.502  21.120  0.1972 -0.2001  0.2157
17508W        W21908   4.839   1.869   2.285  0.3281  0.0575  0.0620
17509W        W21909   7.372   4.945  32.636  0.1276  0.1209  0.1239
17510W        W21910   9.900   4.180  10.322 -0.0380 -0.0700  0.1246
17511W        W21911  10.313   3.929  33.441  0.0763  0.1916  0.0890
17512W        W21912  16.349   3.517  12.697  0.0683 -0.5648  0.0627
17513W        W21913  25.438   4.573   4.265 -0.0181  0.2058  0.1036
17514W        W21914  16.182   2.605  10.033 -0.0257  0.2881  0.0238
17515W        W21915  20.652   1.555  21.341 -0.0404 -0.0918  0.0602
17516W        W21916   8.917   2.058  31.605  0.2550 -0.1003  0.2081
17517W        W21917  22.137   1.947  15.424  0.0484 -0.3509  0.1512
17518W        W21918  15.199   4.172  11.593 -0.4416  0.1617 -0.0113
17519W        W21919  16.406   4.812  28.496  0.1666  0.3966  0.1200
17520W        W21920  22.306   4.891  10.316  0.3832 -0.0313  0.1193
17521W        W21921   2.004   0.855  10.456 -0.1152 -0.3074 -0.1328
17522W        W21922  15.896   3.763  13.593 -0.0951  0.2241  0.0892
17523W        W21923   9.545   5.166   0.879  0.0793 -0.0105  0.5206
17524W        W21924  25.891   0.457   0.054  0.2233  0.1769 -0.1648
17525W        W21925  14.261   3.210  14.911  0.0338  0.1237 -0.0676
17526W        W21926   4.117   5.135   3.864  0.2496 -0.2200 -0.0604
17527W        W21927  12.224   5.654   9.687  0.0289  0.0489  0.1383
17528W        W21928  10.902   1.810  29.653 -0.1151 -0.0336 -0.1919
17529W        W21929  10.087   5.388  22.724 -0.0076  0.3116 -0.1435
17530W        W21930  10.083   3.235  23.525 -0.1965 -0.0168  0.2986
17531W        W21931   0.763   5.801  20.713 -0.0319 -0.2761 -0.3706
17532W        W21932  18.147   4.216  32.866 -0.1346  0.2746 -0.0721
17533W        W21933  11.546   1.727  35.739  0.2008 -0.0100  0.0500
17534W        W21934  12.182   2.655  14.118 -0.1536  0.2531 -0.0700
17535W        W21935  11.122   0.073  21.463  0.2066 -0.0591  0.0515
17536W        W21936   7.199   6.382  34.594 -0.0210  0.2618 -0.3253
17537W        W21937  25.974   5.199  30.172 -0.0674  0.0130 -0.1279
17538W        W21938  13.592   3.493   1.905  0.1240  0.2285 -0.0072
17539W        W21939  24.311   5.491  13.185  0.2457 -0.0264 -0.1877
17540W        W21940  13.521   6.109   4.364 -0.0419  0.1028 -0.2870
17541W        W21941  19.685   2.052   9.486  0.1722  0.0571  0.1379
17542W        W21942   3.737   1.184  30.696  0.0574 -0.2008  0.0555
17543W        W21943  15.448   0.573  34.314 -0.0037 -0.0930  0.1680
17544W        W21944   4.297   3.916  26.530  0.0801  0.0060  0.0586
17545W        W21945   7.533   1.474  31.644  0.1000 -0.2262  0.1234
17546W        W21946  17.903   1.886  27.854 -0.2617 -0.0730  0.2363
17547W        W21947   7.686   4.595  31.708  0.3738 -0.2781 -0.2491
17548W        W21948   4.939   0.990  24.189  0.0095  0.1191 -0.0228
17549W        W21949   2.440   4.148  22.377  0.3086 -0.1450 -0.1586
17550W        W21950   5.878   5.659  26.888 -0.2428  0.1251  0.1225
17551W        W21951   8.133   6.182  26.787  0.1189 -0.0807  0.1917
17552W        W21952  12.593   2.207  26.201  0.0918  0.1466 -0.1115
17553W        W21953  10.883   4.289  13.849  0.0251 -0.0684 -0.0362
17554W        W21954  10.246   5.951   4.985 -0.1359  0.0191  0.0785
17555W        W21955  15.138   3.059  25.648  0.2017  0.3186 -0.3217
17556W        W21956  24.943   0.666  11.118 -0.2771  0.1267 -0.0866
17557W        W21957  24.467   0.124   9.004 -0.1642  0.1504 -0.1554
17558W        W21958  13.590   0.752   6.174  0.1523 -0.0060  0.0665
17559W        W21959   1.876   5.122   5.004  0.1827 -0.0628  0.1149
17560W        W21960   8.636   0.001   6.464  0.2336  0.2658 -0.0814
17561W        W21961  10.756   0.540   7.914 -0.3390  0.3989  0.0398
17562W        W21962  21.890   2.500  14.540  0.0258  0.1282  0.0904
17563W        W21963   2.262   1.957   6.116  0.2496  0.3322  0.1764
17564W        W21964  10.773   5.127   5.436 -0.0556  0.0768  0.0209
17565W        W21965  10.121   6.482  23.578  0.2168 -0.3523  0.3010
17566W        W21966  10.166   6.202  23.081  0.0422 -0.0223 -0.0239
17567W        W21967  23.502   1.552   1.203  0.1822 -0.0863 -0.1582
17568W        W21968   0.571   2.518   8.386  0.3363  0.0920  0.1315
17569W        W21969   7.707   4.283  21.782  0.0209 -0.1054 -0.1248
17570W        W21970  15.925   2.422   0.940  0.0630  0.2420  0.2264
17571W        W21971  22.763   5.058   3.029 -0.0447  0.1391 -0.0874
17572W        W21972   6.235   4.069  29.595  0.0433  0.1953 -0.0756
17573W        W21973   3.643   5.632  34.271 -0.1104  0.1579 -0.0383
17574W        W21974  22.288   4.412   1.349  0.2177  0.0494 -0.1365
17575W        W21975  18.029   5.119  27.006  0.0897  0.2421  0.1476
17576W        W21976  18.941   6.275  33.569 -0.0828  0.0987 -0.0952
17577W        W21977  15.791   4.589  23.309 -0.2439 -0.0226 -0.1180
17578W        W21978  24.153   1.524  23.923  0.2320 -0.1586 -0.0476
17579W        W21979  13.059   2.147   0.935 -0.1389  0.0520  0.0955
17580W        W21980   0.493   3.472  34.610  0.0144  0.0940  0.1115
17581W        W21981   9.961   2.493  14.799  0.1639 -0.2077 -0.2180
17582W        W21982  10.433   0.976  23.021  0.1239  0.1371  0.1516
17583W        W21983   5.464   4.859   1.298 -0.2562 -0.1929 -0.1356
17584W        W21984   4.300   6.152  29.712  0.1180  0.1741  0.1677
17585W        W21985  25.021   2.625  21.372 -0.3148 -0.1385 -0.1954
17586W        W21986  21.962   3.153   1.233  0.2166 -0.0370  0.1083
17587W        W21987  10.720   3.622  13.326 -0.2535 -0.1091  0.0474
17588W        W21988  22.903   2.818   1.513 -0.2355  0.1887  0.0283
17589W        W21989  12.881   2.819  15.250  0.2565  0.3368 -0.1082
17590W        W21990  17.202   5.894  31.076 -0.0483  0.1347  0.1146
17591W        W21991  13.076   5.881  15.140  0.1589 -0.3079  0.0174
17592W        W21992   0.250   4.356   8.779  0.1793  0.1195 -0.1220
17593W        W21993   0.846   5.169  25.541 -0.0470 -0.0312 -0.0073
17594W        W21994   6.876   0.518  34.920 -0.3115 -0.2003 -0.1872
17595W        W21995   4.044   3.141  27.863 -0.4262 -0.0817 -0.2052
17596W        W21996   0.075   2.882   4.623 -0.1835  0.1896 -0.0579
17597W        W21997   9.984   4.590  31.137  0.0916  0.1693  0.0477
17598W        W21998  26.058   0.638   2.504  0.1407 -0.0946 -0.1007
17599W        W21999   2.204   0.552  30.769 -0.3885 -0.0049  0.0786
17600W        W22000   8.128   1.007  21.288  0.0948 -0.2984 -0.3033
17601W        W22001   0.695   3.694  23.155 -0.0822 -0.3431 -0.0225
17602W        W22002  17.805   6.494   3.607  0.1178 -0.1036 -0.0761
17603W        W22003   0.607   3.994  27.116  0.0362 -0.2723  0.1787
17604W        W22004  23.862   3.315  31.926 -0.1678 -0.1317  0.3094
17605W        W22005   8.571   4.194  28.905  0.0395  0.1200  0.0674
17606W        W22006  24.941   5.646   1.420  0.1687  0.1904 -0.1964
17607W        W22007  22.475   5.193  29.891  0.0091  0.0144 -0.3590
17608W        W22008  25.427   5.855  23.465 -0.2170 -0.0321  0.1354
17609W        W22009  18.363   5.659  13.630 -0.2754 -0.0389  0.2914
17610W        W22010  17.359   2.530  23.160 -0.1799  0.0440  0.0001
17611W        W22011   7.758   4.112   1.644  0.0564 -0.1794 -0.2410
17612W        W22012  11.245   4.344  14.831 -0.2194 -0.1226 -0.0540
17613W        W22013   2.394   3.413  25.094  0.0320  0.2376 -0.1558
17614W        W22014   4.667   0.509  15.558 -0.2466 -0.1989 -0.3451
17615W        W22015  15.519   4.613  35.240  0.0324 -0.0589 -0.2911
17616W        W22016  19.125   1.901  10.349 -0.1958 -0.2900  0.0386
17617W        W22017  18.512   3.875  29.909  0.0364 -0.2217 -0.0427
17618W        W22018  20.183   1.370  25.101  0.0078 -0.2445 -0.1175
17619W        W22019  13.048   1.040  10.678 -0.0207  0.1741  0.1096
17620W        W22020  10.302   1.763   6.834  0.0192 -0.0632  0.0384
17621W        W22021   4.015   2.580  14.279 -0.1805 -0.0466 -0.1727
17622W        W22022  14.453   4.516  32.348 -0.2289 -0.1092 -0.1877
17623W        W22023  11.162   0.932  32.993  0.1866 -0.0380 -0.1609
17624W        W22024  12.479   0.854  29.467 -0.2477 -0.0732 -0.0347
17625W        W22025   5.912   5.663  30.787  0.3077 -0.1158  0.1636
17626W        W22026  19.886   4.848  23.403  0.4635  0.1332  0.1278
17627W        W22027  13.063   2.950   5.137 -0.2238  0.1417  0.0799
17628W        W22028   2.997   3.295  22.384  0.1692  0.0071 -0.0143
17629W        W22029   7.298   5.136   0.228  0.1329  0.0460  0.0865
17630W        W22030  18.585   3.005  15.960 -0.1875 -0.1587  0.1992
17631W        W22031  26.221   5.896  28.247 -0.0509  0.0810  0.1880
17632W        W22032  23.990   1.684  32.059  0.0622 -0.2704  0.0379
17633W        W22033  24.413   2.393  32.488 -0.1681  0.3438  0.0352
17634W        W22034   8.380   3.073  25.217 -0.0614 -0.0267  0.0982
17635W        W22035  21.985   0.044   9.469 -0.0001  0.1656  0.1750
17636W        W22036   9.366   6.500  35.592  0.1557 -0.4664 -0.0347
17637W        W22037  12.464   6.155   6.562  0.1289  0.1613  0.0763
17638W        W22038  18.959   1.085   4.083 -0.4062 -0.3119 -0.0492
17639W        W22039  15.575   2.632  28.037  0.2188 -0.0451  0.1875
17640W        W22040  26.327   2.223  22.451  0.1774 -0.0285  0.0952
17641W        W22041  11.884   4.049  15.600  0.2179 -0.0489 -0.1632
17642W        W22042  13.774   0.693  12.706 -0.0537  0.5101  0.0711
17643W        W22043   8.827   1.567  27.495 -0.0402 -0.0564 -0.0614
17644W        W22044  10.412   2.672  30.739 -0.1814 -0.2344 -0.1642
17645W        W22045   1.862   1.382   3.235  0.1074  0.1153 -0.0155
17646W        W22046  24.593   6.269  23.429 -0.0978 -0.1174  0.0435
17647W        W22047   0.328   0.472  29.726 -0.0520  0.0612 -0.2705
17648W        W22048  21.607   2.426  14.900 -0.2163 -0.3248  0.0535
17649W        W22049   0.604   0.215  25.195  0.1650  0.1298 -0.0655
17650W        W22050  20.753   0.942  34.304  0.1211 -0.1280 -0.2213
17651W        W22051  24.823   2.038  21.377 -0.0076 -0.3041 -0.3298
17652W        W22052  11.542   0.194  30.494 -0.0055  0.2546  0.3213
17653W        W22053  12.278   2.889  27.410 -0.1435  0.0524  0.2799
17654W        W22054  21.666   0.008  11.353 -0.3673 -0.0713 -0.1060
17655W        W22055  24.728   5.463  21.758  0.2639 -0.0815  0.1115
17656W        W22056   2.847   4.773  27.447 -0.0544 -0.2814  0.1872
17657W        W22057   3.619   3.721  22.582  0.2013 -0.1027 -0.0821
17658W        W22058   2.937   1.893  33.735  0.0474 -0.1086  0.1792
17659W        W22059   9.577   4.609   8.765 -0.2402 -0.0555 -0.0139
17660W        W22060  22.933   4.235  29.952 -0.2639  0.1130  0.0828
17661W        W22061  15.449   0.945  28.296 -0.0291  0.3803 -0.0310
17662W        W22062  16.830   3.756  29.101 -0.0306  0.1275 -0.0263
17663W        W22063  19.357   6.028   3.762 -0.0697 -0.3287  0.1721
17664W        W22064   3.787   5.076   4.505  0.0587 -0.0529  0.4794
17665W        W22065   0.092   5.800   0.765  0.3087 -0.0408  0.0569
17666W        W22066  22.691   0.649  24.236  0.0800 -0.2404  0.3215
17667W        W22067   2.116   5.787  10.135 -0.1459  0.1616  0.0829
17668W        W22068  22.464   3.144   4.104  0.4301  0.0443  0.1953
17669W        W22069  19.696   0.441  11.144  0.0834  0.2627  0.1752
17670W        W22070  10.219   0.764  34.058  0.3485  0.1525  0.4968
17671W        W22071  15.710   2.559   6.191 -0.1005  0.2243 -0.0733
17672W        W22072  16.135   0.424  23.895  0.0839 -0.1579 -0.1760
17673W        W22073  12.318   4.600  10.430  0.0332 -0.0251  0.0898
17674W        W22074  11.228   6.187  25.159 -0.2589  0.0988 -0.0710
17675W        W22075  22.840   0.930  35.097 -0.0766  0.0548  0.2332
17676W        W22076   1.936   5.101   0.626 -0.0620  0.0035 -0.1486
17677W        W22077   7.545   4.585  30.473  0.1033  0.0550  0.2218
17678W        W22078   1.232   1.688  11.626 -0.1879 -0.3557  0.0494
17679W        W22079  23.205   1.963  32.868 -0.1497  0.0097 -0.1148
17680W        W22080  10.907   4.927  12.028 -0.0698 -0.1109 -0.0523
17681W        W22081  25.817   5.893   7.713  0.0686  0.0031 -0.2971
17682W        W22082  22.340   2.800   1.387  0.0117 -0.0280 -0.1490
17683W        W22083  14.740   4.998  10.748  0.4108  0.5022  0.1557
17684W        W22084  11.906   6.389  34.685  0.1050 -0.0690 -0.1443
17685W        W22085  15.901   6.431  15.540 -0.0128 -0.1263 -0.2519
17686W        W22086  25.325   6.451  22.240 -0.4771  0.4620  0.0043
17687W        W22087  25.566   2.079  29.771  0.3173 -0.1633  0.0067
17688W        W22088  21.079   6.083  10.130  0.0747 -0.1389 -0.0177
17689W        W22089   9.971   1.824  15.508 -0.2319 -0.1542  0.0111
17690W        W22090  20.134   2.321   9.483 -0.3099 -0.1145  0.0230
17691W        W22091   2.677   0.942  20.811  0.0155 -0.1260  0.0609
17692W        W22092  20.272   4.352   9.121  0.2001  0.2039 -0.3095
17693W        W22093   9.063   4.700  35.773  0.1141 -0.0665 -0.0151
17694W        W22094  19.820   1.499  10.617  0.2400  0.0061  0.3177
17695W        W22095  10.732   2.296  31.649  0.2569  0.4674  0.1020
17696W        W22096  16.236   0.638  21.588  0.1121 -0.1768 -0.3242
17697W        W22097   6.198   0.654  33.526 -0.1189  0.1148  0.0465
17698W        W22098   5.885   1.888   8.223  0.0929  0.2675  0.3918
17699W        W22099  17.022   3.911  22.381 -0.0946  0.0047 -0.1596
17700W        W22100   3.400   0.526  34.451 -0.1527 -0.1015  0.4195
17701W        W22101   6.672   2.309  10.504  0.1132  0.1967 -0.2138
17702W        W22102  19.361   5.488   8.521 -0.0950 -0.1224 -0.2357
17703W        W22103   9.602   2.372  22.538  0.0702  0.1309  0.2281
17704W        W22104  14.515   0.470  33.580  0.3764  0.1095  0.2950
17705W        W22105  14.041   0.721  11.319 -0.0510 -0.1304 -0.3646
17706W        W22106   8.506   5.221   3.383 -0.3374  0.0019 -0.0108
17707W        W22107  15.238   0.939   8.204  0.0445  0.2600 -0.0621
17708W        W22108   9.240   3.088   3.498  0.3383 -0.1504  0.1889
17709W        W22109  14.881   5.527  26.891 -0.1635  0.3718 -0.0460
17710W        W22110  12.351   5.168  13.889  0.4588  0.3017 -0.1957
17711W        W22111   1.464   3.996  28.448 -0.0688 -0.3242  0.0028
17712W        W22112  12.437   3.648   5.082  0.1567  0.1602 -0.3218
17713W        W22113   3.936   4.431   7.114  0.2699 -0.4446 -0.1628
17714W        W22114  11.374   0.844  29.691 -0.1895 -0.3881  0.1269
17715W        W22115   2.861   2.159  26.258 -0.0291  0.1442  0.1501
17716W        W22116  23.558   6.046   1.272  0.0220 -0.3535 -0.1338
17717W        W22117   3.344   1.247  35.213 -0.1475 -0.0016  0.0929
17718W        W22118  15.369   4.078  21.381  0.0964 -0.1766 -0.3195
17719W        W22119  12.887   1.505  34.757 -0.2413  0.3876 -0.1181
17720W        W22120  19.853   0.200   6.534 -0.1591  0.0042  0.3062
17721W        W22121   5.824   0.708   9.054  0.0242 -0.0963  0.2523
17722W        W22122   8.997   3.507  13.947 -0.0264 -0.2185  0.0054
17723W        W22123  18.959   2.334  34.380  0.0617  0.1310  0.1662
17724W        W22124  17.277   3.134   6.233  0.0222  0.2507  0.0152
17725W        W22125  23.477   1.756  30.947 -0.1505  0.0584  0.2089
17726W        W22126  10.022   0.941  31.524  0.0694  0.0804 -0.0067
17727W        W22127   0.491   2.044  33.684 -0.0619 -0.2545  0.1738
17728W        W22128  13.379   4.127   7.326  0.0127 -0.2131  0.2295
17729W        W22129   6.136   0.903  28.040 -0.2175  0.1351 -0.1408
17730W        W22130   2.110   3.119   3.099  0.2221  0.1011  0.1759
17731W        W22131   3.746   6.059  10.373 -0.4109 -0.0245 -0.0057
17732W        W22132   6.983   4.807   5.158  0.1898  0.0323  0.1168
17733W        W22133  24.353   0.165  31.283 -0.1498  0.1094 -0.3151
17734W        W22134  19.547   2.534  24.366 -0.2622 -0.3842  0.0306
17735W        W22135   2.513   0.543   7.433 -0.1445 -0.0599 -0.0518
17736W        W22136   9.329   5.308  31.505 -0.1522 -0.0103 -0.0131
17737W        W22137  25.546   3.863  29.355  0.2670 -0.2892  0.1038
17738W        W22138  24.759   0.130  22.060  0.0629 -0.0388 -0.3411
17739W        W22139  14.943   1.045  34.620 -0.0957 -0.0381 -0.1353
17740W        W22140   2.221   1.965  24.125 -0.1399  0.0516 -0.0376
17741W        W22141  12.468   1.231  35.881  0.0624 -0.0568 -0.1340
17742W        W22142  17.553   1.571  31.870 -0.1565 -0.1603  0.2243
17743W        W22143  25.018   1.861  25.499 -0.3517 -0.3574 -0.3875
17744W        W22144  18.572   0.433  21.098 -0.1513  0.0042 -0.0035
17745W        W22145  26.084   0.720   5.332  0.2071  0.1990  0.1819
17746W        W22146  15.589   0.259  35.247 -0.3586  0.0566  0.0782
17747W        W22147  22.092   3.973   2.592  0.0043 -0.3555  0.0683
17748W        W22148  18.556   5.782   9.758 -0.1450 -0.0120  0.0677
17749W        W22149   3.415   6.272  31.517  0.0363 -0.1759 -0.0120
17750W        W22150  19.371   0.899   8.934  0.0917 -0.1977 -0.0547
17751W        W22151  12.264   3.018   2.727 -0.0424 -0.0026 -0.0810
17752W        W22152  25.012   6.375  32.361 -0.1846  0.0043 -0.0818
17753W        W22153   8.377   0.304  12.815  0.0356 -0.0658 -0.3256
17754W        W22154   9.832   1.078   8.219  0.1517 -0.1353 -0.1081
17755W        W22155   3.480   2.287  12.489  0.0037  0.0610  0.1397
17756W        W22156  10.044   1.656   7.398  0.0825  0.1222 -0.0977
17757W        W22157  15.057   1.807   8.222 -0.0814 -0.0895 -0.1565
17758W        W22158   7.112   1.054   2.468  0.0386 -0.2947 -0.0780
17759W        W22159  26.154   1.995  31.406  0.2467 -0.0023 -0.3296
17760W        W22160   5.848   1.200  24.198 -0.2184 -0.1368 -0.0348
17761W        W22161  10.482   3.895   6.391  0.0938 -0.0329 -0.0221
17762W        W22162   5.349   6.096   3.893 -0.1608 -0.0001 -0.1452
17763W        W22163   8.438   1.465   2.083  0.2413  0.1928 -0.1137
17764W        W22164  18.429   6.231  34.843  0.0307  0.0307 -0.3091
17765W        W22165  17.195   4.240  31.277  0.1497 -0.1521  0.1820
17766W        W22166  18.074   3.738  24.676 -0.0152  0.2772 -0.3167
17767W        W22167  22.747   2.149  22.938 -0.5674  0.1700 -0.1226
17768W        W22168  22.454   4.053  24.365 -0.0988  0.3365 -0.0041
17769W        W22169  19.867   4.179  13.537 -0.0969  0.2555  0.0354
17770W        W22170   1.681   2.095  11.588  0.1090 -0.0347 -0.0500
17771W        W22171  26.347   3.564  34.659 -0.2976 -0.0226  0.1042
17772W        W22172   0.877   2.958  32.090 -0.0438  0.1675  0.4250
17773W        W22173  12.773   4.209  15.392  0.3142 -0.4777  0.1705
17774W        W22174  22.199   5.288   9.070 -0.2917  0.1512 -0.0906
17775W        W22175   7.470   6.545  15.167  0.2559 -0.2721 -0.1072
17776W        W22176  13.007   5.164   7.471 -0.0103  0.1560 -0.0140
17777W        W22177   2.212   1.422   6.777 -0.2048 -0.2652  0.0483
17778W        W22178   1.500   0.309  13.918  0.2956 -0.0307 -0.0182
17779W        W22179  25.666   3.218   3.023 -0.0234  0.2427 -0.1450
17780W        W22180  24.878   0.069  24.473 -0.1432  0.1001  0.0936
17781W        W22181  26.067   3.226  26.560 -0.2129 -0.1382 -0.3425
17782W        W22182   0.427   6.190   9.945  0.0696  0.1049  0.0970
17783W        W22183  15.240   3.355   8.588  0.0113 -0.0850  0.2169
17784W        W22184   6.644   2.790  10.721 -0.0404  0.3016 -0.1978
17785W        W22185  16.566   2.167  32.873  0.0686  0.0018 -0.1710
17786W        W22186   4.783   5.295  28.844 -0.0828  0.2561 -0.0923
17787W        W22187  19.437   2.431   3.371 -0.1856 -0.0782  0.0397
17788W        W22188   3.086   3.285   5.965 -0.0793  0.3059  0.3162
17789W        W22189   9.115   3.280  10.035  0.3190 -0.1424  0.0259
17790W        W22190  15.536   3.095  12.627  0.0882 -0.1375 -0.1953
17791W        W22191  13.023   4.179  11.695 -0.1911  0.2004 -0.1526
17792W        W22192  13.203   2.937  28.415 -0.1393  0.1770 -0.1359
17793W        W22193  17.471   2.687   3.043 -0.2174  0.1116 -0.0069
17794W        W22194  25.710   3.698  27.310 -0.1069  0.0542 -0.0149
17795W        W22195   8.451   5.298   5.769 -0.0091  0.0517  0.0087
17796W        W22196  23.780   3.171  25.552 -0.2059 -0.0583 -0.0747
17797W        W22197  15.341   4.382  27.876 -0.0980 -0.2434  0.0831
17798W        W22198   3.752   5.297   0.591 -0.0838  0.2349  0.0076
17799W        W22199  26.304   1.342  10.627  0.1238  0.0693  0.0825
17800W        W22200   0.917   3.887  24.235 -0.4439 -0.3512  0.3867
17801W        W22201   2.553   2.046   4.199  0.1517 -0.0347  0.4178
17802W        W22202  24.160   4.107  32.047 -0.4391  0.0579 -0.4409
17803W        W22203   7.340   0.420  32.693  0.1260 -0.1568  0.1031
17804W        W22204  11.074   0.427  12.842  0.1605  0.0631 -0.1728
17805W        W22205  13.745   0.009  12.514 -0.1043 -0.1505  0.1579
17806W        W22206  20.898   4.630   4.734  0.2611  0.0387  0.1540
17807W        W22207  16.431   0.795   0.489  0.0882 -0.1783  0.0205
17808W        W22208  24.390   0.544  30.215 -0.1807 -0.0421  0.2869
17809W        W22209   4.780   4.435  21.361 -0.3786  0.2076 -0.2979
17810W        W22210  25.860   2.497  34.969  0.1435  0.0992 -0.1379
17811W        W22211  15.914   3.029   9.214  0.1183  0.2058  0.0006
17812W        W22212   9.893   2.228  26.311 -0.0117 -0.0372 -0.0425
17813W        W22213  23.424   0.491  13.104  0.1054  0.0334 -0.0150
17814W        W22214  18.445   6.493  29.959 -0.1655 -0.0517 -0.1599
17815W        W22215   6.866   6.069   3.338 -0.1035 -0.0843  0.3079
17816W        W22216  24.460   2.723   5.409  0.1110 -0.0563  0.1911
17817W        W22217   8.189   5.429  29.115 -0.0762  0.3983  0.0164
17818W        W22218  18.130   2.217   4.068 -0.2056 -0.0003 -0.0812
17819W        W22219  22.868   1.287   2.916 -0.1194  0.2441 -0.2094
17820W        W22220   4.223   5.004  12.614 -0.1924  0.2360  0.0273
17821W        W22221  21.620   2.497  25.042 -0.1704  0.1047 -0.1213
17822W        W22222   4.675   1.486  33.108  0.1781 -0.0193  0.0040
17823W        W22223   9.385   5.944   1.591 -0.0008 -0.1138  0.1126
17824W        W22224   3.952   6.178  21.755 -0.2983  0.0755  0.3514
17825W        W22225  24.494   2.694  23.215 -0.0844 -0.0484  0.0204
17826W        W22226  11.692   2.399  34.953 -0.3462  0.0761  0.0309
17827W        W22227  14.609   1.147  21.855  0.1424 -0.0723 -0.2035
17828W        W22228   8.484   2.970   1.032  0.2796 -0.0716  0.0191
17829W        W22229  19.705   6.409  13.227 -0.0864  0.1887  0.0330
17830W        W22230   4.433   3.427  30.183 -0.1190  0.3160  0.0488
17831W        W22231  23.525   1.233   3.759  0.1003  0.2648 -0.2072
17832W        W22232   1.513   1.792  10.377  0.1171 -0.2400 -0.3118
17833W        W22233  25.823   6.475   2.718 -0.0319  0.0129  0.2603
17834W        W22234  10.590   3.687  22.692  0.0383  0.2312 -0.1907
17835W        W22235  15.338   4.921  26.056  0.1916  0.2041  0.0397
17836W        W22236  25.959   2.714  24.380  0.1510  0.1119  0.2022
17837W        W22237  17.577   5.133  21.843 -0.0940 -0.1456 -0.2092
17838W        W22238  21.840   6.299  32.723 -0.1567  0.0960  0.1198
17839W        W22239  13.714   4.635   4.767  0.1717  0.1080  0.0944
17840W        W22240  14.300   3.322  35.277 -0.1574 -0.0269 -0.0772
17841W        W22241  17.328   6.394   8.483 -0.0447  0.3331  0.0356
17842W        W22242  12.469   5.656  31.750  0.0548 -0.1595 -0.0980
17843W        W22243   3.960   6.506   8.575  0.1309  0.0778  0.0918
17844W        W22244   9.553   4.437  31.313  0.0001 -0.3329 -0.2677
17845W        W22245   8.300   0.841  32.639 -0.0039 -0.0732  0.0615
17846W        W22246  10.430   2.552   5.482 -0.0534  0.1698  0.1654
17847W        W22247  20.913   1.893  24.126 -0.2168 -0.0618 -0.1115
17848W        W22248   7.023   6.339   1.532  0.0454  0.3016 -0.0771
17849W        W22249  25.083   0.551  28.806 -0.0016 -0.1784  0.1081
17850W        W22250  15.772   4.364   1.394 -0.3093  0.2673 -0.1093
17851W        W22251   4.077   2.313   6.021  0.0784 -0.1694  0.0466
17852W        W22252  14.373   5.787   6.844 -0.1606  0.2520 -0.1218
17853W        W22253   1.041   5.219   2.973 -0.0325  0.0022  0.4485
17854W        W22254   8.907   0.064  33.990 -0.1899 -0.1211  0.1088
17855W        W22255  24.901   6.276  34.225  0.2534 -0.1222  0.2960
17856W        W22256   3.741   1.775  30.140 -0.0551  0.2073 -0.1221
17857W        W22257   8.751   3.011   2.561 -0.1607  0.2015 -0.0543
17858W        W22258  12.349   6.056   5.714  0.1446 -0.2234  0.0985
17859W        W22259   3.338   5.193  20.968 -0.2087 -0.3045  0.0677
17860W        W22260  19.414   1.976   3.716  0.0904 -0.1636 -0.1524
17861W        W22261  17.265   4.734   3.090  0.1259  0.0982  0.0616
17862W        W22262   3.655   5.000  11.427 -0.1686 -0.1208 -0.0525
17863W        W22263   3.479   1.560  33.757  0.0557 -0.4010  0.0776
17864W        W22264   4.194   4.293  30.634 -0.0423  0.1465 -0.0828
17865W        W22265  12.070   6.155  29.556 -0.0348 -0.0603  0.0145
17866W        W22266  10.880   5.826  22.693 -0.1249 -0.1857 -0.0897
17867W        W22267   0.877   6.298  31.016 -0.0862 -0.1306 -0.0759
17868W        W22268   4.165   2.729   6.701 -0.3250 -0.1300  0.0300
17869W        W22269  20.931   4.986  14.253 -0.2127 -0.0133  0.1257
17870W        W22270  16.038   2.657  28.308  0.0177  0.0956 -0.0635
17871W        W22271   0.867   0.805   6.193  0.1751 -0.3006 -0.0366
17872W        W22272  11.074   0.293   5.003  0.1386 -0.2156  0.5025
17873W        W22273   9.760   1.618  30.132  0.0847 -0.0068  0.0378
17874W        W22274   8.571   5.231   1.547  0.1799 -0.0249 -0.2530
17875W        W22275  10.045   5.292  26.366 -0.0581  0.0268 -0.1638
17876W        W22276  25.824   2.484  23.006  0.0284 -0.0363 -0.1598
17877W        W22277  15.265   6.468  33.622  0.1363  0.2917  0.1034
17878W        W22278   7.542   5.193  28.764 -0.1863 -0.2448  0.0873
17879W        W22279  22.448   6.386  21.386 -0.2298 -0.0920  0.0701
17880W        W22280  16.398   0.702  35.619 -0.3843 -0.4493  0.2045
17881W        W22281   0.484   5.418  30.981  0.1085 -0.1223 -0.1952
17882W        W22282   4.637   6.590  15.610  0.1446 -0.2091  0.0865
17883W        W22283  24.004   2.727  28.156 -0.0018  0.0267 -0.3731
17884W        W22284  18.471   4.195  11.437  0.2847  0.4336  0.1054
17885W        W22285   3.727   1.548  25.284  0.2555 -0.1699  0.0751
17886W        W22286   3.611   0.406   8.599  0.0336  0.0639 -0.0131
17887W        W22287  10.998   5.696  27.290 -0.1118  0.0493  0.0826
17888W        W22288  13.349   4.026  32.629 -0.2365  0.0365  0.1924
17889W        W22289   5.407   0.217   1.398  0.2772  0.0717  0.2220
17890W        W22290  17.592   3.451  31.626 -0.0625  0.0558  0.1000
17891W        W22291  22.389   2.136   7.545 -0.0896 -0.2386  0.2140
17892W        W22292   5.117   1.264  15.116 -0.0016 -0.1023 -0.1430
17893W        W22293   9.803   3.942  14.813 -0.0640  0.1725  0.0197
17894W        W22294  24.902   6.349  26.460  0.0871  0.1580  0.0344
17895W        W22295   4.567   6.164   9.705 -0.0178  0.1348  0.1018
17896W        W22296  18.000   4.857  32.192 -0.1131  0.0537  0.2376
17897W        W22297  17.858   1.170  28.825 -0.3407 -0.0065 -0.0567
17898W        W22298  13.405   2.155  21.750 -0.0126  0.0859  0.0796
17899W        W22299  22.998   5.478  22.604  0.2057  0.2524  0.0829
17900W        W22300  10.999   1.249   5.621 -0.0022 -0.0396 -0.1318
17901W        W22301  20.882   2.841  33.634 -0.0430 -0.1189 -0.1962
17902W        W22302   0.097   0.046   9.885  0.1298 -0.2018 -0.2771
17903W        W22303   3.767   3.054  14.435  0.0145 -0.2416 -0.2258
17904W        W22304  18.567   4.329  25.118  0.2166  0.0222 -0.3517
17905W        W22305  22.566   2.979  30.701 -0.2820  0.1464  0.0404
17906W        W22306   0.085   2.203  29.289  0.1168 -0.0158 -0.0735
17907W        W22307  14.583   4.725  13.323  0.0431 -0.0362  0.1198
17908W        W22308  17.666   5.504  34.710  0.0830  0.0790  0.0719
17909W        W22309  23.624   3.146   7.687  0.2693  0.0351 -0.1508
17910W        W22310  21.224   5.745  24.603  0.1754  0.0347  0.0448
17911W        W22311  18.643   0.204  20.062 -0.1962  0.0742 -0.2335
17912W        W22312  11.434   1.713  12.872  0.2977 -0.1998  0.2658
17913W        W22313  18.817   2.683  11.343  0.2398 -0.2307  0.1556
17914W        W22314  12.565   5.017  32.432 -0.0186 -0.0972  0.3253
17915W        W22315   0.398   4.602  32.432 -0.0572 -0.0875 -0.1374
17916W        W22316  10.208   4.499  21.256 -0.0575 -0.2736  0.0553
17917W        W22317   2.692   3.362  31.861 -0.0322 -0.3567  0.0065
17918W        W22318  22.361   2.069  20.433 -0.0052 -0.2527 -0.1239
17919W        W22319   8.317   5.489  35.576 -0.1867  0.4776 -0.0413
17920W        W22320  20.850   5.243  32.429 -0.1255 -0.2100  0.1042
17921W        W22321  11.067   0.214  23.896 -0.2124 -0.0985 -0.1798
17922W        W22322  26.274   4.469  11.121 -0.0341 -0.1329  0.0373
17923W        W22323  12.483   4.218  35.726 -0.2155  0.2679  0.0010
17924W        W22324  12.428   3.595  33.533 -0.0544 -0.0375 -0.0194
17925W        W22325   7.847   3.749   6.110 -0.0979  0.0122 -0.1953
17926W        W22326  20.240   4.570   2.579 -0.3252  0.2042  0.0631
17927W        W22327   5.214   3.075  31.837 -0.0635  0.3585  0.0720
17928W        W22328   8.233   1.681  35.893  0.0558 -0.0277 -0.1369
17929W        W22329  21.449   4.952   9.136 -0.2759 -0.2716 -0.3291
17930W        W22330  14.740   3.525  15.140 -0.0099  0.0027 -0.0724
17931W        W22331  21.101   5.342   3.368 -0.4203 -0.2656 -0.1675
17932W        W22332  14.155   4.419  10.445 -0.0704 -0.0515  0.0669
17933W        W22333  11.728   3.805   4.309  0.0656  0.1433 -0.0982
17934W        W22334   4.306   5.844  11.383 -0.0559  0.3262  0.2027
17935W        W22335   6.748   6.541   9.525 -0.2835  0.1339 -0.1799
17936W        W22336  15.309   0.098  34.664 -0.0504  0.0573 -0.1515
17937W        W22337   9.887   1.721  25.128  0.2552  0.1265 -0.0604
17938W        W22338   6.397   5.369  13.703 -0.1006 -0.0885 -0.0553
17939W        W22339  13.751   4.741  11.493 -0.1297 -0.0400 -0.0492
17940W        W22340  17.313   5.496  32.427 -0.0554  0.3125  0.3854
17941W        W22341  23.273   0.901   2.920 -0.2331  0.2334 -0.0110
17942W        W22342  23.582   1.461   6.789 -0.0538 -0.1531  0.3747
17943W        W22343   5.038   1.024  33.049  0.1644  0.1337 -0.0832
17944W        W22344  19.618   3.857  10.621 -0.0584 -0.2007  0.0008
17945W        W22345  21.760   5.763  12.852  0.5349 -0.0775 -0.0584
17946W        W22346   5.503   4.527   8.231  0.0995  0.1791  0.0570
17947W        W22347   3.635   2.892  10.144  0.1484  0.1548 -0.1335
17948W        W22348   0.654   5.054   0.055  0.1952  0.3853  0.1008
17949W        W22349  25.748   5.434  27.631  0.3383  0.3544 -0.0396
17950W        W22350   7.754   3.133  26.560 -0.0448 -0.0078  0.2610
17951W        W22351   4.518   0.081   9.782 -0.2984  0.0828  0.2961
17952W        W22352   0.746   1.694   1.746 -0.0440  0.1726 -0.0656
17953W        W22353  10.284   0.232  26.244 -0.1661  0.1197 -0.0418
17954W        W22354   1.641   4.680  21.438  0.1430  0.0616 -0.0133
17955W        W22355   0.488   4.518  31.793  0.0649  0.2003 -0.0587
17956W        W22356  18.820   3.890  34.861  0.0211  0.4163 -0.1536
17957W        W22357  13.480   2.755  32.731 -0.1455 -0.1475 -0.1470
17958W        W22358   6.568   1.899  34.874 -0.0207 -0.3554  0.0859
17959W        W22359   4.332   2.772  32.896 -0.5563  0.1156  0.0633
17960W        W22360   7.385   1.362   6.736 -0.2107 -0.2201 -0.1715
17961W        W22361   6.748   5.593   7.956 -0.0608  0.0528 -0.0210
17962W        W22362  21.118   5.588  23.975  0.0074 -0.3042  0.2099
17963W        W22363   1.590   2.757  14.784  0.0688 -0.0452  0.0542
17964W        W22364   4.181   3.027  11.331  0.1922 -0.2308 -0.0186
17965W        W22365  26.292   4.637  34.365 -0.0435 -0.1515 -0.0100
17966W        W22366  10.256   4.361   6.485 -0.2414  0.0530 -0.1408
17967W        W22367  23.686   4.275  27.418 -0.3374 -0.1989 -0.2741
17968W        W22368  20.901   4.922   5.216 -0.3200 -0.0272  0.0719
17969W        W22369  24.123   3.133  11.419  0.0469 -0.0296  0.2439
17970W        W22370   4.458   5.022  30.018  0.0553 -0.1475 -0.0125
17971W        W22371  26.080   5.357   4.816 -0.3576 -0.0478  0.1028
17972W        W22372   5.442   4.255  27.967 -0.0327 -0.1318  0.0542
17973W        W22373  19.793   1.044  29.471  0.0246 -0.0306 -0.1985
17974W        W22374  25.093   5.270  34.323  0.1536 -0.0101  0.0389
17975W        W22375  13.720   6.210  24.477  0.1256  0.0382 -0.1051
17976W        W22376  18.707   4.687   3.548 -0.0634  0.2595 -0.1786
17977W        W22377  18.669   4.202  10.267 -0.1293 -0.0817  0.0452
17978W        W22378   3.779   1.009  12.278  0.1385  0.0328 -0.2150
17979W        W22379  23.258   0.637  28.379 -0.2964 -0.1678  0.0360
17980W        W22380  21.611   4.227  22.950 -0.0089 -0.1368  0.2523
17981W        W22381  19.612   2.588   4.639  0.1604  0.0918 -0.2962
17982W        W22382  12.414   6.404   0.239  0.0534  0.3295 -0.0334
17983W        W22383  16.297   5.173  34.578 -0.2179 -0.2978  0.1022
17984W        W22384   5.172   0.017  34.830 -0.6088  0.2572  0.0596
17985W        W22385  22.860   5.582  23.223 -0.1764  0.2582 -0.0854
17986W        W22386  15.581   1.882  32.156 -0.0280  0.1664  0.3466
17987W        W22387  18.441   0.195   5.757 -0.0121 -0.0110  0.0251
17988W        W22388  19.280   4.349  28.477 -0.1167 -0.2536  0.2928
17989W        W22389  10.616   2.574   3.020 -0.1393  0.0779 -0.3796
17990W        W22390  26.291   1.274  12.931  0.0551  0.2642 -0.0732
17991W        W22391   0.802   6.300  21.969 -0.1934  0.2481 -0.1067
17992W        W22392  15.267   1.657  26.538  0.0962  0.2926 -0.0539
17993W        W22393  25.102   4.519  13.749  0.1119 -0.0459  0.3218
17994W        W22394  15.691   2.847   0.510 -0.2591 -0.1854 -0.2098
17995W        W22395  26.141   6.222  30.163 -0.0027 -0.0220 -0.0959
17996W        W22396   0.709   4.814  12.844  0.1438  0.0034  0.0306
17997W        W22397  25.253   4.147  26.509  0.5248 -0.2444 -0.3088
17998W        W22398   8.106   3.614  21.042 -0.0707 -0.3885 -0.0946
17999W        W22399  11.787   4.453  32.691  0.2593  0.1609 -0.0445
18000W        W22400   5.593   3.799  11.519  0.1796  0.1384 -0.0703
18001W        W22401  14.351   4.945  21.907  0.0786  0.0556 -0.0675
18002W        W22402  16.701   0.076  22.952 -0.1385 -0.0037  0.2669
18003W        W22403  16.201   1.266  13.572 -0.0060  0.3565 -0.3444
18004W        W22404  25.020   4.281  10.103 -0.1248 -0.0511 -0.3260
18005W        W22405   0.231   0.965  11.106  0.3763 -0.0367 -0.0426
18006W        W22406  10.399   5.006  21.566 -0.2223 -0.1882 -0.0064
18007W        W22407  19.469   3.497  34.281  0.0251  0.2317 -0.1624
18008W        W22408   8.499   0.016  34.881 -0.0171 -0.3150 -0.2181
18009W        W22409  21.542   0.006   5.746 -0.1509 -0.0433 -0.2537
18010W        W22410  23.461   5.275  20.581 -0.1463  0.0873  0.1782
18011W        W22411  24.456   6.441   8.085 -0.0741 -0.0243 -0.2536
18012W        W22412  19.280   5.300  14.261  0.0888 -0.0832 -0.0366
18013W        W22413   5.605   5.621  24.140 -0.0294  0.2704  0.0904
18014W        W22414  15.668   2.740  27.498  0.0711 -0.1987  0.3021
18015W        W22415   5.380   5.326  33.482 -0.1033 -0.3523  0.0217
18016W        W22416  19.691   4.403  29.526 -0.2107  0.0182  0.2264
18017W        W22417  21.440   0.053   1.705  0.0431 -0.0395 -0.1505
18018W        W22418  12.925   4.936  24.567  0.0765  0.2788  0.0118
18019W        W22419   8.466   0.016  23.258  0.1861  0.0518  0.1673
18020W        W22420   4.030   2.524  24.648 -0.1024 -0.0297  0.0513
18021W        W22421  16.250   0.943  14.441 -0.0247 -0.1835  0.0797
18022W        W22422  12.716   4.110   2.754 -0.0939  0.3466 -0.2260
18023W        W22423  10.805   0.119  26.235  0.2238 -0.1467  0.2097
18024W        W22424  24.741   5.665  24.750  0.0361 -0.0425 -0.1981
18025W        W22425   5.160   3.190  22.164 -0.1799  0.2374  0.3026
18026W        W22426   0.468   6.099   8.195 -0.1019  0.0816  0.0231
18027W        W22427   9.204   0.450   9.780 -0.0629 -0.1028  0.2301
18028W        W22428  10.307   1.509  31.551  0.1361  0.3110 -0.0390
18029W        W22429   3.107   6.003  21.112 -0.0051 -0.0406  0.3730
18030W        W22430   7.159   4.618  14.599 -0.3585 -0.0443 -0.0165
18031W        W22431  13.463   5.313  15.976 -0.0620 -0.1833  0.1442
18032W        W22432  12.301   5.725  29.939 -0.1871  0.0142  0.1746
18033W        W22433   3.469   5.763  20.908 -0.3091  0.3024 -0.3022
18034W        W22434  10.796   3.945   5.857 -0.2166 -0.1312 -0.0994
18035W        W22435  10.979   2.807  33.123  0.3177 -0.1241  0.0763
18036W        W22436  25.870   2.687  22.460  0.1323  0.0932  0.0866
18037W        W22437  17.260   6.053  29.857 -0.3581  0.0568  0.2560
18038W        W22438   7.203   4.133  14.481  0.1132 -0.0287  0.0611
18039W        W22439  21.373   0.707   4.369  0.0956 -0.0173  0.1912
18040W        W22440   6.626   2.542   0.328 -0.3185 -0.0986 -0.0179
18041W        W22441  10.459   1.224  23.613  0.6328 -0.2061 -0.3337
18042W        W22442  14.397   6.083   5.482  0.1617  0.4114 -0.0893
18043W        W22443  10.561   6.369   6.941  0.2039  0.3601  0.1955
18044W        W22444   3.979   1.534  31.479  0.2535 -0.0249  0.0299
18045W        W22445  14.843   5.390  20.442 -0.0572 -0.0214 -0.2213
18046W        W22446   6.652   5.385  28.599  0.0681 -0.2140 -0.0203
18047W        W22447   5.999   4.315  15.033  0.0700  0.4144  0.2179
18048W        W22448  11.358   3.333  35.359 -0.0475  0.1792  0.0683
18049W        W22449   8.702   1.985  15.730  0.0406  0.0397  0.2815
18050W        W22450  12.127   4.869   2.730 -0.0295 -0.1148 -0.1149
18051W        W22451  21.393   0.261  27.807 -0.1029 -0.1267  0.0249
18052W        W22452  21.948   5.935  35.839 -0.0324 -0.2181  0.0697
18053W        W22453  11.674   2.124  32.050  0.0141  0.0433 -0.3734
18054W        W22454  10.285   2.502  13.203  0.2202 -0.1988  0.0139
18055W        W22455  10.229   3.154   3.236  0.2876 -0.0604 -0.0036
18056W        W22456  25.355   1.863   1.410  0.4199 -0.0363  0.6487
18057W        W22457   7.421   5.913  27.930  0.0089 -0.1512  0.2069
18058W        W22458  24.327   4.777  22.287 -0.3929  0.1737 -0.1685
18059W        W22459  14.246   5.109   2.469 -0.3149  0.3640 -0.3783
18060W        W22460  10.311   6.432  35.717  0.1618 -0.1653  0.0303
18061W        W22461  19.452   4.090   1.877  0.1651 -0.1029  0.0254
18062W        W22462  24.746   4.327  29.710  0.4651 -0.0797  0.0176
18063W        W22463  21.908   3.826  14.075  0.0503  0.0636 -0.0134
18064W        W22464   5.679   1.864  32.498  0.0068  0.2888 -0.2521
18065W        W22465  22.014   5.655  21.475  0.0663 -0.2839 -0.3964
18066W        W22466   9.000   5.788   8.573 -0.0976 -0.0877  0.0176
18067W        W22467   4.678   4.974  10.358 -0.2527 -0.0033 -0.3170
18068W        W22468  17.326   6.325   4.849  0.3077  0.1760  0.1718
18069W        W22469  23.452   6.118  21.831  0.0511 -0.1829 -0.1193
18070W        W22470  11.504   6.591  11.068 -0.1781  0.4424 -0.1321
18071W        W22471  21.368   2.609  28.821 -0.0536  0.0101 -0.1165
18072W        W22472  12.674   2.689  31.490 -0.0684 -0.2754 -0.2217
18073W        W22473  17.820   0.609   0.317 -0.0071 -0.0401 -0.0130
18074W        W22474  21.589   5.557   5.691 -0.1887  0.1026  0.1008
18075W        W22475  14.972   3.943   0.200  0.1414  0.0056  0.1638
18076W        W22476   2.765   1.834  35.456 -0.0817  0.1152  0.0166
18077W        W22477   5.409   5.013  27.251 -0.0228 -0.1406 -0.4119
18078W        W22478  12.519   4.402  30.434 -0.1218  0.3571  0.0643
18079W        W22479  25.561   1.719   0.049 -0.0257 -0.1854 -0.0890
18080W        W22480  17.906   6.033  22.836  0.1246  0.0565 -0.0258
18081W        W22481  13.281   6.103  30.270  0.1281  0.0794  0.0916
18082W        W22482   8.726   5.586  34.843  0.1101  0.0534 -0.1773
18083W        W22483   4.666   0.789   5.111  0.1079  0.1136 -0.2149
18084W        W22484  20.006   1.297   0.305  0.0469  0.1702 -0.1393
18085W        W22485  23.587   4.775  31.054  0.0667  0.0033  0.0420
18086W        W22486  23.912   1.223  13.355 -0.0904 -0.2933  0.2399
18087W        W22487  14.103   6.320   3.673  0.0846  0.1493  0.0869
18088W        W22488  10.154   2.149  29.412 -0.1664  0.2231 -0.0183
18089W        W22489   0.720   5.837  27.612 -0.0575 -0.1930 -0.0524
18090W        W22490  19.453   1.909  23.361 -0.1064 -0.2269 -0.3377
18091W        W22491   6.389   0.497  24.311 -0.0139  0.1827  0.0377
18092W        W22492   4.869   3.126   4.110 -0.0143  0.1022 -0.0004
18093W        W22493   5.497   3.615   2.098  0.2334  0.0543  0.0715
18094W        W22494   4.611   5.408  24.003 -0.2663  0.0126  0.0224
18095W        W22495  16.559   6.339   6.698 -0.0229 -0.2670  0.2066
18096W        W22496   3.169   1.193  33.557 -0.0773  0.0428  0.0253
18097W        W22497   3.042   1.087   0.352  0.0295  0.3667  0.2682
18098W        W22498  14.392   1.056   1.959  0.0194 -0.1785 -0.2121
18099W        W22499  14.982   5.933  22.261 -0.0188 -0.1295 -0.2065
18100W        W22500   3.198   5.190  10.666 -0.1306  0.1215 -0.0113
18101W        W22501   6.099   4.623   6.821  0.0286 -0.0530  0.1141
18102W        W22502   6.799   4.453  15.758  0.1023  0.2132 -0.3240
18103W        W22503   0.122   4.090  21.014  0.2411  0.0944  0.0801
18104W        W22504  20.490   4.993  30.321  0.1907  0.3087 -0.2468
18105W        W22505  16.353   4.080  32.978 -0.0873 -0.1699  0.1929
18106W        W22506   6.664   3.475   2.975 -0.1221 -0.0934  0.0815
18107W        W22507  21.527   1.688   6.008 -0.1156 -0.1355 -0.3426
18108W        W22508  16.022   1.516   5.080 -0.2176 -0.0301 -0.0176
18109W        W22509   3.172   5.489   7.287 -0.3037  0.3852  0.1577
18110W        W22510   0.488   1.394  30.360 -0.0690  0.0895  0.0986
18111W        W22511  20.644   1.761  27.496 -0.0697 -0.1531  0.2679
18112W        W22512  24.634   3.138   2.903  0.3263 -0.0281  0.1536
18113W        W22513  22.004   4.703  28.539  0.2168  0.0201  0.0796
18114W        W22514   9.936   2.227  23.346 -0.2608  0.2542 -0.3428
18115W        W22515   6.847   4.372  14.312  0.1961 -0.3178 -0.1504
18116W        W22516   1.293   6.410  28.386 -0.0342  0.0371  0.4186
18117W        W22517  17.477   0.076   6.907 -0.2287  0.0927  0.1378
18118W        W22518  10.081   5.503  10.599 -0.0310 -0.1029 -0.1187
18119W        W22519   9.269   4.141  21.550  0.0493 -0.1219 -0.1297
18120W        W22520   5.202   3.945  11.052 -0.0984  0.0665  0.1794
18121W        W22521  19.051   5.722   3.465  0.2272 -0.0573  0.2597
18122W        W22522   4.663   6.313  10.147  0.2304 -0.0470  0.0729
18123W        W22523  23.390   0.322  23.921  0.1456  0.0245  0.1450
18124W        W22524  18.057   2.987   5.573  0.1160 -0.1648 -0.0608
18125W        W22525   1.949   5.455   3.328  0.0624  0.0392 -0.1113
18126W        W22526   0.703   5.288  34.456  0.0700 -0.0555 -0.1109
18127W        W22527   7.565   5.559  12.863  0.2270 -0.1784 -0.1809
18128W        W22528  16.233   2.448   4.697  0.3924 -0.3922  0.2124
18129W        W22529  15.575   3.745  15.335  0.0299 -0.4527  0.2806
18130W        W22530  11.052   6.024  23.139  0.1345  0.1198  0.1468
18131W        W22531   3.455   5.713  10.609  0.0641 -0.2032  0.1261
18132W        W22532  17.397   0.721  35.422 -0.1647  0.0061 -0.2741
18133W        W22533  26.038   5.962   6.842  0.1158 -0.0339 -0.0116
18134W        W22534  10.000   6.091   5.427 -0.1419 -0.1813  0.3986
18135W        W22535   9.281   2.659  32.480 -0.0780 -0.1983 -0.0841
18136W        W22536  12.358   1.613  10.434 -0.0874  0.0269 -0.2536
18137W        W22537  15.027   4.767   2.783 -0.1154 -0.0621 -0.1415
18138W        W22538   8.205   5.748  32.400 -0.2431 -0.1327  0.3313
18139W        W22539   5.456   3.655  21.351  0.0800 -0.2902  0.0021
18140W        W22540   8.315   5.815  35.959 -0.1952 -0.1858 -0.0542
18141W        W22541  11.053   4.183   5.213  0.1298 -0.5581  0.0914
18142W        W22542  25.187   0.263  23.585 -0.0410  0.0499 -0.0221
18143W        W22543  24.723   1.091  23.429  0.1017  0.0474 -0.0943
18144W        W22544   1.761   5.814   9.773  0.0987  0.1269 -0.0909
18145W        W22545  14.154   5.656   4.226  0.0517  0.1131 -0.0766
18146W        W22546   1.962   5.881  10.666 -0.0548 -0.0224  0.0152
18147W        W22547  13.521   2.098   5.124 -0.1005  0.1538 -0.0214
18148W        W22548  17.105   4.742  24.913  0.0315  0.1062  0.0340
18149W        W22549  10.498   3.798  24.673 -0.0748 -0.1479  0.1076
18150W        W22550  17.713   5.589  23.743 -0.0387  0.2938  0.1752
18151W        W22551  21.291   5.813  34.439  0.0827 -0.0872 -0.1559
18152W        W22552  11.421   5.665  26.872  0.3405 -0.0598  0.0147
18153W        W22553   1.716   1.516   0.287 -0.3955  0.2339 -0.0075
18154W        W22554   4.638   5.861  21.138 -0.0820  0.0020 -0.0667
18155W        W22555  17.495   2.608   2.527 -0.2923  0.1766 -0.2812
18156W        W22556   0.687   5.453   2.096  0.1407  0.2783 -0.0588
18157W        W22557  16.977   4.395  27.410 -0.0096 -0.2655 -0.0478
18158W        W22558  19.115   4.428  34.508  0.0243 -0.1143 -0.3673
18159W        W22559  20.882   4.870  26.397 -0.2577  0.1228 -0.3032
18160W        W22560  15.220   5.410   8.180  0.1890 -0.1467 -0.0905
18161W        W22561   7.097   5.066  35.866  0.2572  0.2141 -0.3690
18162W        W22562  10.088   5.471  12.502 -0.0021 -0.2415  0.0068
18163W        W22563  13.438   3.997  11.847 -0.1275  0.0315  0.0233
18164W        W22564  18.281   4.486  34.961 -0.3247 -0.2910 -0.0021
18165W        W22565  20.740   0.038   0.745 -0.1350 -0.2045  0.1678
18166W        W22566   9.781   3.574  30.409 -0.1391 -0.1800 -0.0299
18167W        W22567   1.155   5.164   0.061  0.0544 -0.2618 -0.0567
18168W        W22568   8.352   5.879   9.660 -0.1890 -0.1665 -0.0948
18169W        W22569  21.599   2.167  12.582 -0.2390  0.1765 -0.0898
18170W        W22570  15.091   1.361  23.014 -0.3855 -0.0835 -0.1094
18171W        W22571  23.531   3.886  12.391  0.0376  0.0073  0.0175
18172W        W22572   3.740   3.280  30.595  0.0806 -0.1207  0.1330
18173W        W22573  16.213   6.356  26.469 -0.1256 -0.0769  0.0654
18174W        W22574  11.493   4.967  24.801 -0.0021  0.1209 -0.0170
18175W        W22575  18.557   2.651  29.117  0.1034 -0.1312  0.1176
18176W        W22576   5.001   4.645  10.749 -0.1156 -0.3093  0.1716
18177W        W22577  15.370   5.196  11.559 -0.0359 -0.0574 -0.1004
18178W        W22578   7.404   3.862   5.814  0.2134 -0.2420  0.0382
18179W        W22579  26.380   6.199   2.687 -0.0337  0.2026 -0.2624
18180W        W22580  21.384   5.607  13.980 -0.1051 -0.2254 -0.2213
18181W        W22581  11.633   0.628   2.173  0.1810 -0.1296 -0.0210
18182W        W22582  15.366   3.340   4.187  0.0413  0.0152  0.1178
18183W        W22583  16.269   3.636  13.198  0.1327 -0.0998  0.0555
18184W        W22584  23.152   4.014  27.643 -0.2748  0.1267  0.0001
18185W        W22585  11.609   0.218  27.933 -0.4374 -0.1386  0.0717
18186W        W22586  26.279   6.368   6.466  0.0455 -0.0886  0.1588
18187W        W22587  14.623   4.512   2.682  0.1171  0.0716  0.0271
18188W        W22588   4.716   3.652  31.449 -0.0458  0.0504 -0.2562
18189W        W22589   6.032   5.934   3.111  0.0118 -0.2877 -0.2986
18190W        W22590   0.499   2.577  28.336 -0.2517 -0.1123 -0.0158
18191W        W22591   2.925   6.431   5.897  0.0364  0.1969  0.0364
18192W        W22592  15.840   4.117  11.918 -0.1687  0.3614 -0.0784
18193W        W22593  24.500   3.619  23.434 -0.1479 -0.0054 -0.1245
18194W        W22594  19.901   2.426  31.514 -0.0352 -0.1373 -0.2648
18195W        W22595  11.257   2.220  25.293  0.0192  0.0249 -0.0811
18196W        W22596  20.786   2.098  28.853  0.2090 -0.1516  0.0107
18197W        W22597   4.296   2.091  28.401 -0.0280  0.0896  0.0637
18198W        W22598   5.168   1.536  12.609  0.3473 -0.0909 -0.2433
18199W        W22599   6.127   4.749  14.692  0.0429  0.1332  0.1401
18200W        W22600  24.061   0.750  24.434 -0.0222  0.0747  0.1773
18201W        W22601  15.648   6.040  30.706 -0.1076  0.1832 -0.1350
18202W        W22602  14.110   1.930  24.632 -0.2257  0.2427  0.0413
18203W        W22603  25.124   2.225  15.178  0.2069  0.0318  0.0238
18204W        W22604  22.666   0.973  21.926  0.0156 -0.0636  0.0897
18205W        W22605   7.923   3.891   5.642 -0.0699 -0.0837  0.0869
18206W        W22606   5.357   6.511   2.868 -0.0554 -0.1293 -0.3340
18207W        W22607   6.881   3.945  26.149 -0.2057 -0.1074  0.2728
18208W        W22608  11.860   3.398  32.609 -0.2842 -0.1912  0.0039
18209W        W22609   6.008   4.296   1.149 -0.1774 -0.1024  0.2425
18210W        W22610  14.438   3.424   4.930  0.2137  0.0747 -0.0452
18211W        W22611  23.796   3.165  24.637 -0.2026  0.0101  0.0356
18212W        W22612  22.783   3.488   4.275 -0.2311  0.1851  0.2263
18213W        W22613   8.467   0.721  10.761 -0.1079 -0.0455 -0.1206
18214W        W22614  10.727   3.322  11.080 -0.2525  0.2627 -0.0504
18215W        W22615  15.917   2.750  27.039 -0.1389  0.3676 -0.1210
18216W        W22616   6.009   0.134   0.132 -0.1326  0.0049 -0.2049
18217W        W22617   1.823   4.399   4.157 -0.1038 -0.0929  0.0510
18218W        W22618  12.881   6.121  35.127  0.1097 -0.2186  0.2014
18219W        W22619  10.068   0.806  33.501 -0.2370 -0.0415 -0.0792
18220W        W22620   7.803   0.470  13.773  0.0591  0.0256  0.1243
18221W        W22621   4.970   5.776   1.502 -0.0509 -0.1664  0.2694
18222W        W22622   8.513   2.949   7.761  0.4374  0.1084 -0.0219
18223W        W22623  20.144   0.424  29.697  0.3878 -0.0293  0.0477
18224W        W22624   4.431   3.509   7.586  0.0515  0.3492  0.0732
18225W        W22625  23.974   3.779   2.833  0.1281  0.1522  0.0817
18226W        W22626  18.458   1.855  31.704  0.0264 -0.0633 -0.2514
18227W        W22627  24.362   1.041  12.035 -0.1011  0.0565  0.1416
18228W        W22628  14.651   0.062   6.957 -0.0496  0.0462 -0.0446
18229W        W22629  22.420   6.578  33.329 -0.0888  0.2146 -0.0902
18230W        W22630  12.392   1.755  24.334  0.0538  0.0461 -0.4490
18231W        W22631  17.326   5.230  24.758  0.2961  0.1726 -0.1915
18232W        W22632  19.182   0.791  23.508 -0.1834  0.1028 -0.0266
18233W        W22633  11.330   5.011  27.917  0.0683 -0.0029 -0.1938
18234W        W22634  13.357   5.038  25.271 -0.1180  0.0712 -0.0489
18235W        W22635   4.283   5.326  13.190 -0.1305  0.1499 -0.2273
18236W        W22636  18.535   4.366  20.685  0.0546  0.0339 -0.0665
18237W        W22637   6.320   6.315  25.471  0.3056 -0.2114 -0.0654
18238W        W22638  16.039   4.671   9.385  0.1274 -0.0223  0.0440
18239W        W22639   8.790   0.073  12.818  0.3562  0.4834  0.0205
18240W        W22640  15.513   1.623  10.988  0.0110  0.0609  0.1100
18241W        W22641  14.720   4.678  26.271 -0.1274 -0.0541 -0.1830
18242W        W22642  11.169   0.542   8.889 -0.0444  0.1333  0.0147
18243W        W22643   7.699   6.578   7.951 -0.1422  0.2247  0.2345
18244W        W22644  22.008   0.185  33.626  0.1564 -0.1853  0.1754
18245W        W22645  26.333   1.184  12.413  0.1560 -0.2567 -0.0597
18246W        W22646   6.519   2.838  27.475  0.0504  0.1731 -0.4114
18247W        W22647   5.326   5.067   2.218  0.0652 -0.0012  0.1249
18248W        W22648  11.166   6.083  13.752 -0.0950  0.0862  0.0469
18249W        W22649  17.829   0.345  30.718 -0.0685 -0.4030  0.0493
18250W        W22650  25.017   5.967   9.410  0.2132  0.0315  0.3904
18251W        W22651   1.960   4.615  20.641  0.2468  0.2267  0.1194
18252W        W22652   4.295   5.394   3.320  0.0662 -0.1958  0.1742
18253W        W22653  25.296   6.239  35.053  0.1259 -0.0006 -0.2703
18254W        W22654  19.347   0.875  25.315  0.1696  0.4677  0.0996
18255W        W22655  19.656   0.857  10.459 -0.0249  0.1529 -0.0759
18256W        W22656  17.645   3.459  22.948 -0.0754  0.0784 -0.1081
18257W        W22657   2.265   4.508   7.680 -0.2514 -0.0715  0.2552
18258W        W22658  16.656   4.951   5.202 -0.3059  0.4293  0.1572
18259W        W22659   5.615   4.128  21.342 -0.3580 -0.1534  0.1052
18260W        W22660  19.189   5.213  25.856  0.0283  0.2664 -0.1753
18261W        W22661  11.971   4.700  24.681  0.1087  0.1482 -0.0677
18262W        W22662  17.900   3.073   9.124  0.1945 -0.1216  0.2297
18263W        W22663  25.403   6.153   9.773  0.0899  0.2326 -0.2694
18264W        W22664   9.146   3.120  11.400  0.0522  0.2704  0.3805
18265W        W22665   7.565   5.219   2.474  0.1260  0.0117 -0.1147
18266W        W22666  21.228   0.679  25.612  0.0541 -0.1084 -0.4085
18267W        W22667  23.144   1.082  32.581 -0.1536  0.0087  0.0044
18268W        W22668   5.698   0.336   8.711 -0.2169 -0.0035 -0.0229
18269W        W22669  15.887   1.060   5.295  0.2584 -0.0692 -0.0792
18270W        W22670   8.816   2.964  14.757  0.3021 -0.1272 -0.0119
18271W        W22671  20.057   4.807   4.559  0.0063 -0.0898 -0.0289
18272W        W22672   9.735   3.227   8.064  0.0779  0.1635  0.3489
18273W        W22673   3.631   2.204   5.849 -0.0109 -0.0611  0.0045
18274W        W22674  25.338   2.158   8.197 -0.5064  0.2561  0.2373
18275W        W22675   4.528   4.925   4.141  0.1972  0.1877 -0.0681
18276W        W22676   2.720   5.355  32.207 -0.0264 -0.3056  0.1822
18277W        W22677  14.672   3.876  31.051  0.0217  0.0954  0.3966
18278W        W22678   2.606   4.790  34.312  0.0733  0.2019  0.0150
18279W        W22679  16.951   3.767   4.586  0.0160 -0.1160  0.0143
18280W        W22680   6.047   2.275  26.750 -0.3043  0.0411 -0.0661
18281W        W22681  13.244   5.868  21.990  0.0543 -0.0047  0.1166
18282W        W22682   6.287   4.011  34.326  0.0987 -0.0554 -0.0059
18283W        W22683  15.842   1.428   1.506 -0.3990 -0.4937 -0.0307
18284W        W22684   3.186   0.900   1.811 -0.0154 -0.3281 -0.0401
18285W        W22685   0.199   2.288   7.838  0.2234  0.0030 -0.0850
18286W        W22686  24.637   2.225  28.828  0.0317  0.3390  0.1455
18287W        W22687   0.544   1.752   6.101  0.0141 -0.0928 -0.0888
18288W        W22688  26.270   0.644  30.085 -0.2699  0.4191 -0.0433
18289W        W22689  18.629   4.876  32.349  0.0588  0.0617 -0.0041
18290W        W22690  23.808   3.716   3.404 -0.0094 -0.0613 -0.3410
18291W        W22691  20.968   4.811   9.401  0.2420 -0.0411  0.0295
18292W        W22692  16.071   2.834  29.715 -0.1272  0.2230 -0.0039
18293W        W22693   9.632   2.902  11.412  0.0881 -0.1148 -0.1990
18294W        W22694  10.168   1.974  12.004 -0.2168 -0.3499 -0.1977
18295W        W22695  11.081   0.931  22.267 -0.0076  0.1406  0.5179
18296W        W22696   8.462   3.614   9.246  0.0996 -0.1749  0.0662
18297W        W22697  15.653   5.744  31.530 -0.1918 -0.3678  0.2177
18298W        W22698   4.521   3.571  12.937  0.1407 -0.0564 -0.1347
18299W        W22699   0.849   3.681   2.816 -0.0115  0.0201  0.1137
18300W        W22700  13.478   0.390  13.482  0.2623 -0.2777 -0.0652
18301W        W22701  15.294   0.110  34.061 -0.0180  0.2026  0.1746
18302W        W22702   9.186   4.921  11.833  0.0662 -0.0696  0.1069
18303W        W22703   2.927   5.420  12.320 -0.0446 -0.0980 -0.0322
18304W        W22704  13.901   6.046  14.525  0.0349  0.1223 -0.0422
18305W        W22705  19.374   3.230  13.232  0.2689 -0.1559 -0.0828
18306W        W22706  12.902   1.301   8.723 -0.0240  0.1681 -0.1571
18307W        W22707  10.833   5.495   9.033 -0.0176  0.1060 -0.0845
18308W        W22708  23.768   0.201   7.246  0.1324 -0.0009  0.0408
18309W        W22709  14.763   0.083  14.538  0.1104  0.0544 -0.2283
18310W        W22710  18.508   5.211   7.192 -0.1568 -0.1100  0.1628
18311W        W22711  12.553   3.140  23.564  0.1462  0.0105 -0.2142
18312W        W22712   3.430   0.651  23.329 -0.3132  0.2467  0.1939
18313W        W22713  19.204   4.972   6.054 -0.0537  0.1382  0.1234
18314W        W22714   8.961   1.248   6.620  0.0214  0.0000  0.2422
18315W        W22715  11.818   1.264   0.825 -0.0409 -0.3910 -0.2265
18316W        W22716   6.566   1.702  21.941  0.1193 -0.2550 -0.5246
18317W        W22717   0.818   0.545  29.780 -0.2682 -0.0402 -0.0045
18318W        W22718  18.934   0.108  30.812 -0.0463  0.6404 -0.0321
18319W        W22719  22.102   6.019   8.679  0.3629 -0.3624 -0.0215
18320W        W22720  12.624   2.868   9.957 -0.1277 -0.1769 -0.1846
18321W        W22721  16.897   3.019  22.030  0.0053  0.0892  0.1732
18322W        W22722  18.903   4.634  33.722  0.1427  0.0438  0.2360
18323W        W22723  24.647   3.081  35.690  0.2456  0.0351 -0.3468
18324W        W22724  21.378   1.731  30.689 -0.2137 -0.0747  0.1368
18325W        W22725  13.901   2.060  35.035 -0.0322 -0.4166  0.1474
18326W        W22726   1.271   2.540  27.756 -0.1110  0.1881  0.0736
18327W        W22727   7.503   6.072   8.232  0.0679 -0.1200 -0.1016
18328W        W22728  15.748   0.508  28.321 -0.2006  0.2544 -0.2149
18329W        W22729  18.116   3.697   7.170  0.1220  0.1094 -0.0889
18330W        W22730  12.684   0.439  25.957 -0.0148 -0.0354 -0.1211
18331W        W22731  22.652   1.299  32.511 -0.1840 -0.1997 -0.3269
18332W        W22732   7.426   3.607  12.692 -0.0672 -0.0376  0.0321
18333W        W22733   9.190   6.423  15.137 -0.0015  0.0707  0.0062
18334W        W22734  18.467   3.780  10.101 -0.1358  0.0797  0.1631
18335W        W22735  21.078   0.382  23.867 -0.0442 -0.1510  0.2570
18336W        W22736   4.844   2.545  33.741 -0.0402  0.3158  0.6032
18337W        W22737  13.644   1.855  31.660  0.3318 -0.0826 -0.0577
18338W        W22738  19.991   6.517   8.432 -0.1220 -0.1914  0.1244
18339W        W22739   2.700   4.341  11.251  0.1560  0.2189  0.0690
18340W        W22740  19.384   5.299  28.368 -0.4077  0.1931  0.1179
18341W        W22741  15.868   2.925  21.105 -0.3344 -0.1791  0.3570
18342W        W22742   8.155   3.005  24.452 -0.0017  0.2938 -0.0075
18343W        W22743  20.009   1.268  33.322  0.0752  0.0693 -0.1162
18344W        W22744  20.886   1.540  30.495 -0.1781  0.1354  0.2165
18345W        W22745  13.623   2.817  35.552 -0.2175  0.0730 -0.2302
18346W        W22746  18.597   3.298  13.686 -0.3086 -0.0426 -0.1511
18347W        W22747  23.644   2.609   7.253  0.0944 -0.3576 -0.0592
18348W        W22748  23.832   6.495  21.079  0.1215 -0.1463 -0.1026
18349W        W22749  10.247   2.787  29.985 -0.1297 -0.0043 -0.0633
18350W        W22750   4.165   4.994  10.517 -0.1733  0.1407  0.0409
18351W        W22751   6.016   0.920  33.046  0.0146  0.3912  0.0070
18352W        W22752  22.372   2.766  10.131  0.0942 -0.3043 -0.0031
18353W        W22753  11.176   4.559  11.769 -0.1624  0.1371  0.0133
18354W        W22754   5.455   3.867   9.290  0.1817  0.0237  0.0003
18355W        W22755   8.121   1.440  32.660  0.0786 -0.0144 -0.0363
18356W        W22756   1.477   0.851  12.521  0.2905 -0.1028 -0.0787
18357W        W22757  24.319   4.275  28.544  0.1227  0.0004 -0.1552
18358W        W22758  15.934   5.585  26.818  0.1691  0.0864  0.0948
18359W        W22759  23.196   3.165  14.892  0.1771  0.1775 -0.1234
18360W        W22760   0.474   3.339   9.576 -0.2376 -0.2074  0.0134
18361W        W22761  14.045   6.051   0.645  0.0113 -0.3472 -0.1855
18362W        W22762  15.694   3.108   7.096 -0.2217 -0.0432  0.0388
18363W        W22763  23.339   4.103  35.175  0.0603  0.0641  0.1392
18364W        W22764  17.300   2.884   3.932 -0.1081 -0.0825 -0.2954
18365W        W22765   7.140   0.637  23.728 -0.1835 -0.0061  0.3189
18366W        W22766   4.374   4.727  30.480  0.1041  0.0216  0.0333
18367W        W22767   0.753   0.679   7.632  0.1193  0.1229  0.0107
18368W        W22768  17.132   1.662   9.673  0.1570 -0.0530  0.0948
18369W        W22769  17.026   0.808  30.744 -0.1160 -0.4000  0.0596
18370W        W22770   5.198   5.681  35.433  0.2830  0.1262  0.2711
18371W        W22771  16.559   5.684   3.815  0.1040  0.1353 -0.2470
18372W        W22772  25.049   4.216  12.596 -0.1448 -0.1775 -0.3087
18373W        W22773   1.065   0.294   9.011 -0.2438  0.0018 -0.0919
18374W        W22774  19.423   2.790  11.531  0.0980 -0.0517  0.1803
18375W        W22775  16.763   0.609  13.306  0.0149 -0.1502 -0.0205
18376W        W22776  20.699   3.030   7.682 -0.2304  0.0637  0.5132
18377W        W22777  19.003   1.905  22.016 -0.1797  0.0279  0.1096
18378W        W22778  25.617   2.729   8.723  0.0400  0.1918 -0.0857
18379W        W22779  15.695   1.910  22.170  0.1555 -0.0825  0.3630
18380W        W22780  11.461   2.752   9.247 -0.1270  0.1768  0.1110
18381W        W22781  22.658   3.988   5.657  0.0594  0.0683 -0.0061
18382W        W22782   2.522   0.109  10.715  0.1455 -0.1590 -0.0708
18383W        W22783   3.361   3.071   4.696  0.1324 -0.0689 -0.0967
18384W        W22784   2.292   6.289  31.869 -0.0707 -0.1832  0.1344
18385W        W22785  10.825   1.250  35.353  0.2506  0.2239 -0.2069
18386W        W22786  18.281   4.845   5.663  0.1845 -0.2633  0.2009
18387W        W22787  18.706   0.399  31.243 -0.3073 -0.1452  0.0216
18388W        W22788   1.337   4.565  30.332  0.0155 -0.0332 -0.0742
18389W        W22789  12.361   1.428   2.706  0.0581 -0.0882  0.2716
18390W        W22790   3.121   5.291   7.715 -0.0007  0.0289 -0.1433
18391W        W22791   1.065   2.970  15.061  0.0342 -0.2299 -0.2974
18392W        W22792  21.988   5.575   9.489  0.0583  0.0425  0.1991
18393W        W22793   3.649   2.821  30.761  0.0112  0.2263 -0.1849
18394W        W22794  19.481   1.248  35.363 -0.0050 -0.0176 -0.1367
18395W        W22795   1.950   2.785  33.320 -0.0845  0.0186 -0.2768
18396W        W22796  23.213   4.052  12.829 -0.1046  0.5685 -0.0771
18397W        W22797  10.421   0.735  11.843  0.1164 -0.0576 -0.2528
18398W        W22798  23.396   4.269  24.683  0.4770  0.0770  0.1122
18399W        W22799   5.319   1.298  34.305  0.2081 -0.0033  0.2082
18400W        W22800   9.751   0.124   0.363  0.0909 -0.2960 -0.1804
18401W        W22801  11.065   3.792  14.149  0.2368  0.3063  0.3529
18402W        W22802  21.903   3.420   6.265  0.5501 -0.0250 -0.1629
18403W        W22803  18.628   1.850   7.519  0.2033  0.2209 -0.0156
18404W        W22804   4.306   1.491   3.039 -0.0519 -0.0898  0.1436
18405W        W22805  11.960   0.884  14.952 -0.1394 -0.1086  0.1686
18406W        W22806  17.271   3.180  21.271  0.0190 -0.3607  0.0594
18407W        W22807  11.297   2.181  29.316 -0.0608 -0.0384  0.0459
18408W        W22808  12.685   0.716   1.960  0.0322  0.4211 -0.1279
18409W        W22809  14.827   0.335  29.802  0.0854  0.0604 -0.4132
18410W        W22810  10.177   1.597   1.289  0.0562 -0.2317 -0.0496
18411W        W22811  18.544   1.270  13.958  0.4203  0.0343  0.0369
18412W        W22812  18.518   5.749  24.832  0.0081 -0.1494  0.2241
18413W        W22813   5.998   4.606  33.042 -0.1815 -0.0690  0.0659
18414W        W22814   7.160   0.757  23.165 -0.2065  0.0536  0.2486
18415W        W22815   1.086   2.822   1.159 -0.3116 -0.5726  0.0379
18416W        W22816  25.755   2.031  13.318  0.1641  0.2348  0.2058
18417W        W22817  13.706   6.341  27.801  0.1909  0.0194  0.1369
18418W        W22818  23.258   6.340  34.823 -0.2001 -0.2897 -0.2841
18419W        W22819  15.069   4.605  26.673 -0.0924  0.0158 -0.1178
18420W        W22820   5.339   3.347  14.219 -0.0583 -0.0109 -0.0868
18421W        W22821   2.262   6.343   9.016  0.0397  0.0808 -0.1849
18422W        W22822  16.021   1.145  21.521 -0.1197 -0.1709 -0.1021
18423W        W22823  19.648   0.316  14.598 -0.0268 -0.0017 -0.0492
18424W        W22824  22.322   6.527  31.912  0.1231 -0.0862  0.0393
18425W        W22825  25.376   2.394  22.566 -0.1535 -0.1113 -0.1166
18426W        W22826   5.443   5.653   1.738  0.3020 -0.1450 -0.0120
18427W        W22827  14.919   3.104   8.297 -0.0524 -0.0902  0.0162
18428W        W22828  23.882   1.699  23.454 -0.0062 -0.2390 -0.0563
18429W        W22829   4.369   4.113  27.746 -0.3408 -0.0348  0.2889
18430W        W22830  10.324   0.021  13.749  0.0984  0.2449 -0.0442
18431W        W22831  22.825   2.983  26.965  0.2077 -0.0460 -0.0083
18432W        W22832  25.708   1.558  15.243 -0.3105  0.1429  0.1969
18433W        W22833   4.374   0.313  22.603 -0.0384 -0.1762 -0.0829
18434W        W22834  15.258   4.103  27.325 -0.0376  0.3185  0.2842
18435W        W22835   0.045   0.628  32.477 -0.0608 -0.0135 -0.1767
18436W        W22836   3.166   2.697  34.569 -0.2280 -0.1313  0.1775
18437W        W22837   7.008   5.674  21.394 -0.0071 -0.0984 -0.0120
18438W        W22838   3.133   2.895  24.384 -0.2566  0.1235  0.0169
18439W        W22839  17.009   1.893  29.850 -0.0230 -0.1734 -0.0062
18440W        W22840   7.140   0.733  10.746  0.2547 -0.2814  0.1034
18441W        W22841   2.093   3.553  10.047  0.3444 -0.0008  0.2356
18442W        W22842  21.017   5.912   7.542 -0.0565  0.3831  0.2457
18443W        W22843  19.520   1.553  28.246  0.2263 -0.0594 -0.0707
18444W        W22844  25.238   6.023   8.931  0.0990  0.0271 -0.2290
18445W        W22845   2.399   6.322  30.987 -0.0589 -0.0945  0.1417
18446W        W22846   4.710   5.878  13.719  0.0845  0.0012  0.0492
18447W        W22847  24.765   0.981  13.936  0.0768  0.2379  0.0174
18448W        W22848  22.409   3.803  24.797 -0.0981  0.1565 -0.3790
18449W        W22849  23.904   5.684   5.696  0.1426  0.2063  0.1173
18450W        W22850  12.418   2.305  25.758 -0.1380  0.0211 -0.0499
18451W        W22851  14.104   2.425  24.351 -0.4991  0.1935  0.0350
18452W        W22852  19.753   1.394  32.382  0.0145 -0.1979  0.2211
18453W        W22853  17.987   4.007  25.078  0.0877 -0.0571 -0.0313
18454W        W22854   8.218   3.770  10.873  0.0181  0.0391 -0.2266
18455W        W22855   6.954   4.159   8.321  0.0764 -0.0331  0.1371
18456W        W22856   4.596   3.557  14.853  0.1949  0.0776  0.2331
18457W        W22857   0.488   5.965  30.696 -0.2789  0.1479 -0.1958
18458W        W22858  11.433   4.170  30.461 -0.1228 -0.1934  0.0575
18459W        W22859  25.070   5.120   8.196 -0.1501  0.1068  0.0295
18460W        W22860  24.260   4.203  15.090 -0.1020  0.2010  0.1365
18461W        W22861   0.975   2.817   7.380  0.1797  0.2163  0.0585
18462W        W22862   0.970   6.024   5.247  0.1558  0.0281 -0.4884
18463W        W22863   0.504   3.113  29.422 -0.2964  0.2336 -0.0742
18464W        W22864   1.197   4.081   7.786 -0.1951 -0.1954 -0.0781
18465W        W22865   3.047   0.268  20.788  0.1828 -0.1826 -0.0515
18466W        W22866   5.361   0.543  13.192 -0.0820 -0.0329 -0.0409
18467W        W22867  19.558   4.773   2.323  0.0432  0.2617  0.0521
18468W        W22868  26.357   0.949  22.400  0.1256 -0.1441 -0.0524
18469W        W22869   3.463   3.083  28.496  0.2523 -0.0737  0.0947
18470W        W22870   2.375   3.217  21.550  0.4129  0.1667 -0.0424
18471W        W22871   8.856   5.423  33.747 -0.2599 -0.2521  0.0049
18472W        W22872   4.985   5.263  26.974 -0.0570  0.0744 -0.1135
18473W        W22873  12.669   5.420  11.113 -0.0807  0.3407  0.3413
18474W        W22874   6.501   2.740  26.445 -0.3118 -0.0508  0.1847
18475W        W22875   3.871   4.931  32.384 -0.2343  0.1088 -0.1810
18476W        W22876  13.428   3.591   5.650 -0.1459  0.2120  0.0319
18477W        W22877   1.947   5.115  27.420  0.6071  0.0814  0.1819
18478W        W22878   4.328   6.285   6.418 -0.2223 -0.1850 -0.4659
18479W        W22879   9.079   4.582  27.421 -0.1521  0.0789  0.1628
18480W        W22880  25.999   4.621   0.762  0.1365 -0.0237 -0.0452
18481W        W22881  12.381   3.427  34.511  0.2850  0.2977  0.3053
18482W        W22882  14.568   4.170   4.820 -0.1496 -0.1526  0.1208
18483W        W22883  15.038   4.956  29.976 -0.1191 -0.1232 -0.2895
18484W        W22884  14.616   0.516  14.726 -0.1589  0.4165  0.0550
18485W        W22885  13.807   2.514  30.938 -0.0690 -0.1315 -0.0506
18486W        W22886  17.642   2.597   5.674  0.0635 -0.0104 -0.2312
18487W        W22887   2.300   2.724  14.077  0.0176 -0.3170  0.0869
18488W        W22888   8.330   1.895  11.634 -0.0192  0.0996 -0.2500
18489W        W22889  15.292   5.750  23.095 -0.0597 -0.2408 -0.0493
18490W        W22890   0.928   1.246  24.545 -0.1409  0.1382  0.2291
18491W        W22891  25.668   5.856  29.413  0.0032 -0.1005  0.3370
18492W        W22892   7.936   6.215   8.477  0.1169  0.0037 -0.1673
18493W        W22893  13.553   2.239  14.774 -0.1691 -0.0937 -0.2450
18494W        W22894   5.925   4.807  25.605  0.0877 -0.1121  0.0359
18495W        W22895   8.717   3.569  22.749 -0.3432  0.1240 -0.0746
18496W        W22896  13.670   3.990  10.326 -0.0479 -0.0963  0.2997
18497W        W22897   6.985   3.613  33.393 -0.1565 -0.1601  0.0193
18498W        W22898   9.707   2.544  13.096 -0.0814  0.0667  0.1406
18499W        W22899   9.215   1.456   2.640  0.0378  0.2542 -0.0851
18500W        W22900  19.410   3.680  22.335 -0.0623  0.0600 -0.3761
18501W        W22901   6.930   0.336   8.220 -0.1691 -0.0226 -0.0535
18502W        W22902  15.718   2.109  10.822 -0.1346  0.0520 -0.1592
18503W        W22903  18.249   3.084  22.438 -0.1579 -0.2086 -0.0934
18504W        W22904  21.471   1.825   9.434  0.0122 -0.0402  0.1931
18505W        W22905  26.078   5.781  14.092 -0.0195  0.1717 -0.2083
18506W        W22906   0.825   0.190  11.101  0.1036 -0.6860  0.1033
18507W        W22907   6.940   5.120  28.140 -0.2086  0.0162 -0.1077
18508W        W22908   1.465   1.858  31.078  0.1427  0.0157 -0.1914
18509W        W22909  23.551   4.589  32.845 -0.2007 -0.0102  0.2300
18510W        W22910  11.121   5.762  26.058  0.5028 -0.0602 -0.1315
18511W        W22911  18.555   0.906  27.602  0.3610  0.3752  0.0915
18512W        W22912   4.786   3.141  29.799  0.3199  0.1893  0.1607
18513W        W22913   2.643   0.930   1.698  0.4270  0.1514  0.1401
18514W        W22914  19.704   2.543  25.029  0.0585  0.1067  0.1012
18515W        W22915  20.047   2.026   9.958 -0.2238  0.0498 -0.2004
18516W        W22916   2.541   4.770   5.959 -0.2942 -0.2228  0.0656
18517W        W22917  12.846   0.812  26.931 -0.1704  0.2021 -0.1098
18518W        W22918  22.061   4.217  24.132 -0.0917 -0.1641 -0.0950
18519W        W22919   5.313   1.331   8.587 -0.0128 -0.1009  0.0137
18520W        W22920   4.032   3.847  21.618 -0.2124 -0.2052  0.2142
18521W        W22921  22.889   0.710   2.069  0.0369  0.3086 -0.1782
18522W        W22922  14.325   1.097  25.168  0.1344 -0.1194 -0.1203
18523W        W22923   1.978   2.386   6.240  0.1303 -0.1076  0.0590
18524W        W22924  15.707   6.291  26.637 -0.0028  0.0166 -0.1137
18525W        W22925  25.491   1.373   2.627  0.1024  0.0871  0.1023
18526W        W22926   1.749   3.082   4.637  0.1441  0.0721  0.0475
18527W        W22927   9.426   3.348  29.550  0.0315 -0.2551 -0.1760
18528W        W22928  11.541   6.096  29.392 -0.1524 -0.0391  0.0658
18529W        W22929   6.566   4.849  24.820  0.0835  0.0662  0.1387
18530W        W22930   6.940   1.069  11.014 -0.0131  0.2584 -0.1505
18531W        W22931   3.569   4.519   7.511 -0.0252 -0.0166 -0.1644
18532W        W22932   5.109   5.298   0.610 -0.0284  0.1827 -0.1266
18533W        W22933   4.706   2.517   9.144  0.0975 -0.0296 -0.0451
18534W        W22934  25.521   1.488  14.519 -0.1146 -0.1904  0.3846
18535W        W22935   1.457   4.274  12.875 -0.0651 -0.1629  0.1754
18536W        W22936  17.008   4.900   4.759 -0.3858  0.1239  0.1593
18537W        W22937  21.725   3.100  28.607  0.0860  0.1516 -0.1238
18538W        W22938   5.362   1.210   5.769  0.0750 -0.0944  0.0217
18539W        W22939  10.651   2.740   4.336  0.0325  0.0397 -0.0091
18540W        W22940  21.310   1.043  26.106  0.1523 -0.1243  0.2530
18541W        W22941   5.928   0.012   8.378 -0.1378 -0.0253  0.1164
18542W        W22942  17.609   0.802  14.953 -0.0650 -0.0740  0.1784
18543W        W22943   3.784   1.455   9.340 -0.1951 -0.1553 -0.1642
18544W        W22944  26.092   3.862  25.857 -0.1565  0.2060  0.1071
18545W        W22945  21.955   6.303  34.991  0.0032 -0.0737 -0.3934
18546W        W22946  15.404   1.553  29.354  0.0730  0.1713 -0.0366
18547W        W22947  19.693   5.633  12.604 -0.0312 -0.0920  0.0841
18548W        W22948  23.224   4.948  13.801  0.0881 -0.2019 -0.0057
18549W        W22949  14.458   5.023  10.208 -0.0296  0.1342 -0.2614
18550W        W22950  22.988   5.102   9.032  0.3497 -0.0906 -0.2311
18551W        W22951   8.861   1.048  24.718  0.0784  0.0320  0.0368
18552W        W22952   5.778   2.591  26.391 -0.0684 -0.0393 -0.1051
18553W        W22953  12.994   2.869   2.686 -0.0052  0.0934 -0.0991
18554W        W22954  24.183   5.280  33.328 -0.0996 -0.0863  0.2926
18555W        W22955  22.725   2.959  20.335  0.1547  0.3100  0.0678
18556W        W22956   1.098   5.864   9.100  0.0917  0.0358  0.3271
18557W        W22957  18.394   2.190  30.160 -0.0369  0.0594  0.1022
18558W        W22958  22.815   1.891  32.563  0.0773  0.2628 -0.0471
18559W        W22959  15.932   3.709  33.185 -0.1023  0.0433  0.2779
18560W        W22960  19.028   4.910  13.914  0.0862  0.2831  0.2601
18561W        W22961  14.907   5.058   7.932  0.0475  0.0451 -0.2889
18562W        W22962   6.959   5.576  35.948  0.1329 -0.0667 -0.1788
18563W        W22963   8.262   4.462   8.806 -0.1678  0.1013  0.1147
18564W        W22964   8.471   3.138   1.547  0.2037 -0.0436 -0.2597
18565W        W22965  23.509   1.244  33.964  0.0887  0.0891 -0.0638
18566W        W22966  15.368   1.769  14.562  0.2738 -0.2433  0.1240
18567W        W22967  12.946   3.076  29.970  0.1607  0.2234  0.2075
18568W        W22968   6.252   1.341  26.642 -0.1838  0.0457  0.1661
18569W        W22969  19.605   0.179  33.158  0.3351 -0.2229 -0.0317
18570W        W22970  23.348   2.270  20.446  0.3204  0.0594 -0.0014
18571W        W22971  16.077   0.729  27.008 -0.0011 -0.0020  0.0021
18572W        W22972  24.701   1.337  11.719 -0.2695  0.0813 -0.1885
18573W        W22973   1.633   2.215  13.820  0.0406 -0.2455 -0.2359
18574W        W22974  23.000   2.671  20.709  0.0646 -0.1674  0.1981
18575W        W22975  11.319   5.859   9.917 -0.1772  0.2696  0.2951
18576W        W22976   6.260   4.358   6.048  0.1743 -0.0524 -0.0763
18577W        W22977  15.964   0.435  25.265 -0.2921  0.2359 -0.1172
18578W        W22978   3.484   5.852   8.968 -0.0259 -0.0574  0.3758
18579W        W22979   9.207   3.322   6.119  0.1323 -0.2061  0.1719
18580W        W22980   8.173   4.286  21.479 -0.2304 -0.0259  0.2439
18581W        W22981  26.286   0.553  11.100  0.0706 -0.3852 -0.2520
18582W        W22982   5.696   3.509  26.434  0.0936  0.0377 -0.0407
18583W        W22983  24.209   1.780   3.708  0.0414  0.1150  0.2625
18584W        W22984   0.974   0.179  30.055 -0.0386  0.0485  0.0176
18585W        W22985   6.161   2.665  24.817 -0.3220 -0.0902  0.1130
18586W        W22986  15.737   6.448   6.755 -0.0467 -0.1302  0.1295
18587W        W22987   9.374   5.644  28.077  0.1494 -0.0431 -0.2941
18588W        W22988   2.102   6.411  33.984 -0.1088  0.0177 -0.0099
18589W        W22989  21.309   2.083  15.785 -0.0215  0.0487 -0.0241
18590W        W22990  18.603   3.398  10.444 -0.2364 -0.0628 -0.1568
18591W        W22991   0.954   0.004  29.145  0.0858  0.0886 -0.1185
18592W        W22992   4.215   5.257  14.862 -0.1272 -0.0826 -0.0622
18593W        W22993   4.478   0.088   3.912 -0.2325 -0.0271  0.2983
18594W        W22994   4.089   3.056  14.035 -0.0410 -0.0495 -0.1724
18595W        W22995  15.249   2.907  28.733  0.0741  0.0034 -0.1488
18596W        W22996  25.493   3.528  25.513  0.3546 -0.0950  0.2613
18597W        W22997   7.223   5.485  10.466 -0.2849  0.1678 -0.1649
18598W        W22998  21.781   2.580  12.724  0.3421 -0.0802 -0.2647
18599W        W22999   5.129   3.970   2.919 -0.2839 -0.1900  0.0348
18600W        W23000   9.466   5.972  27.100 -0.0573  0.0569  0.2369
18601W        W23001   0.157   0.719  31.646 -0.1727  0.0687 -0.1104
18602W        W23002  21.928   0.118  34.664 -0.1699 -0.0766 -0.1310
18603W        W23003   1.506   2.022   4.523  0.1833  0.1453  0.0538
18604W        W23004  24.469   0.086   6.486 -0.3159  0.3745  0.0554
18605W        W23005  19.150   2.848  22.516  0.1278  0.0891  0.0866
18606W        W23006  11.046   1.199   6.142  0.0040  0.1594  0.4457
18607W        W23007   4.622   2.989  21.958  0.0116 -0.0390 -0.1004
18608W        W23008  25.992   1.291  30.771 -0.1309 -0.0476  0.0636
18609W        W23009   5.353   4.600   1.716  0.1167  0.0494  0.0626
18610W        W23010   6.605   2.394  27.377 -0.0042  0.2523  0.0329
18611W        W23011  10.533   2.752  13.692  0.2524  0.1086 -0.1472
18612W        W23012  24.416   3.489  24.404  0.1071 -0.1842  0.1529
18613W        W23013   8.884   0.241  22.648  0.0484 -0.1012  0.1726
18614W        W23014   7.457   4.358  14.953  0.4350 -0.0578  0.0504
18615W        W23015  21.014   6.007   9.109  0.0073  0.1960  0.2198
18616W        W23016  20.433   0.354   6.614  0.0151  0.1674 -0.1348
18617W        W23017  15.357   1.657  34.103 -0.1990  0.0098 -0.1927
18618W        W23018  14.575   0.489  35.276  0.3127 -0.1723  0.0962
18619W        W23019  12.981   4.560  30.316  0.2824  0.0716 -0.1350
18620W        W23020   7.085   5.287  13.049  0.1838 -0.1651  0.2240
18621W        W23021  25.050   1.846  33.240 -0.1637 -0.2184  0.0507
18622W        W23022  19.121   5.332  30.624  0.0168 -0.2874  0.1639
18623W        W23023  13.349   2.350  27.629 -0.1329 -0.0647 -0.0906
18624W        W23024  24.065   2.593   2.266 -0.0393  0.2178  0.1147
18625W        W23025   0.818   0.197  14.059 -0.0604  0.0952 -0.0571
18626W        W23026   3.421   1.342  32.124 -0.0215  0.0142  0.2189
18627W        W23027  24.663   0.988   2.644  0.2235  0.2518  0.1040
18628W        W23028  26.357   1.554  12.060  0.3307  0.1325 -0.1937
18629W        W23029  24.487   0.570  34.334  0.2465  0.1193 -0.0054
18630W        W23030   7.045   0.572   1.591  0.2990 -0.1269  0.1298
18631W        W23031  25.870   4.975  13.733 -0.1875 -0.0310  0.2573
18632W        W23032   5.447   1.256  26.862  0.2029  0.0591  0.3051
18633W        W23033  18.369   3.540   0.623 -0.3132  0.1208 -0.1830
18634W        W23034  22.391   4.557  11.087  0.0403  0.1925 -0.0638
18635W        W23035   9.628   1.829  27.440  0.0860  0.0448  0.2676
18636W        W23036  12.050   2.737  32.736  0.0394  0.0970  0.0961
18637W        W23037   3.088   3.385  33.956  0.2459  0.0010 -0.0363
18638W        W23038  17.746   1.706  28.838  0.1619  0.1081 -0.1531
18639W        W23039  25.892   4.537  25.574 -0.0660  0.0041  0.1280
18640W        W23040   5.080   5.385  31.119  0.0923  0.0708 -0.2682
18641W        W23041  15.778   4.297   2.882  0.2170  0.0530 -0.0960
18642W        W23042  12.331   2.361  31.373 -0.2488  0.2030 -0.1654
18643W        W23043  22.992   1.880  24.678  0.0154  0.1144 -0.1379
18644W        W23044  25.696   4.203  10.510  0.0070  0.0101  0.0482
18645W        W23045  17.795   3.349  35.613  0.2798  0.3558  0.1668
18646W        W23046  10.307   3.114  32.261 -0.1714 -0.2045  0.0861
18647W        W23047   4.931   2.665   7.311 -0.1186  0.2075 -0.2422
18648W        W23048   1.845   5.796  29.711  0.0345 -0.2558  0.0880
18649W        W23049  14.556   3.213  29.732 -0.0956 -0.0895  0.0813
18650W        W23050  19.243   4.932  31.461  0.0239  0.1100 -0.1498
18651W        W23051  26.365   6.064   9.148 -0.2373  0.0447  0.3622
18652W        W23052   5.228   3.088   9.614 -0.0554  0.1357 -0.0460
18653W        W23053  21.437   6.544  24.245  0.0094 -0.5058  0.1060
18654W        W23054   8.195   3.960  24.042 -0.0664 -0.1855 -0.0371
18655W        W23055  26.142   6.132  25.904  0.0110 -0.1275 -0.2045
18656W        W23056   4.573   4.431  20.877  0.0778  0.2532 -0.5163
18657W        W23057   1.497   5.843  31.401 -0.1224 -0.2207  0.1105
18658W        W23058   7.497   3.039   3.731 -0.1468  0.0283  0.0788
18659W        W23059  19.931   4.564  25.217  0.2229  0.0288  0.0804
18660W        W23060   0.910   1.290   6.399 -0.0257  0.0990  0.0183
18661W        W23061   5.229   3.361   6.028 -0.2941  0.0549 -0.1031
18662W        W23062  13.605   1.346  10.306  0.3682  0.1245 -0.4687
18663W        W23063  16.203   3.341   3.596 -0.0583  0.0375  0.0029
18664W        W23064  13.082   5.627  30.435  0.2274 -0.1036  0.0247
18665W        W23065  15.021   0.975   3.965 -0.0430 -0.0264 -0.1564
18666W        W23066   7.573   4.763  35.728 -0.2409 -0.0757  0.2236
18667W        W23067  22.162   1.483  25.333 -0.2967 -0.4407 -0.1192
18668W        W23068   6.415   1.293  24.184  0.0825 -0.2275 -0.2826
18669W        W23069   6.348   6.571  30.617  0.0243 -0.4700  0.1326
18670W        W23070  13.678   5.024  10.593  0.1172  0.0088 -0.0153
18671W        W23071   0.303   0.960  30.302 -0.2716 -0.1259 -0.0006
18672W        W23072  21.054   4.676  34.175 -0.2020 -0.0483  0.1246
18673W        W23073  10.046   1.964  14.669  0.1276 -0.3348 -0.4628
18674W        W23074   8.191   3.179  35.005 -0.1401  0.0222  0.4815
18675W        W23075  22.029   4.129  23.324 -0.0401 -0.0713  0.1182
18676W        W23076  20.041   2.752   9.823  0.0172 -0.0329  0.0005
18677W        W23077  10.336   3.301   2.683 -0.1320  0.1624 -0.0992
18678W        W23078  23.857   2.942  26.805 -0.2383 -0.1477  0.1559
18679W        W23079   8.588   1.424   0.469 -0.0182  0.0592 -0.4412
18680W        W23080   4.106   4.678   8.255 -0.3589  0.2627 -0.0500
18681W        W23081   8.058   2.748   5.797  0.1655 -0.1324  0.0493
18682W        W23082  17.193   4.826   9.354  0.2409  0.0451 -0.0815
18683W        W23083  17.213   5.118  26.405  0.0320  0.0602 -0.2781
18684W        W23084   1.770   2.321   3.644  0.2306 -0.2019  0.3072
18685W        W23085   8.049   5.474  33.996  0.1493  0.1109 -0.0066
18686W        W23086  21.907   5.100  32.176  0.0973 -0.0496 -0.0010
18687W        W23087  11.135   0.765  26.668  0.0604 -0.0676  0.0657
18688W        W23088   5.165   5.562  15.126  0.1509  0.0233 -0.0919
18689W        W23089   1.918   5.646  30.894 -0.1745  0.0142  0.1657
18690W        W23090  22.589   0.438   8.275  0.0815 -0.0550  0.0200
18691W        W23091  16.955   3.809  30.408  0.0468  0.1072  0.1429
18692W        W23092  13.728   3.678  14.019  0.2458  0.1815 -0.3129
18693W        W23093   1.469   2.928  27.504  0.0855 -0.0605  0.0425
18694W        W23094   3.506   0.373  31.858  0.0621  0.0293  0.0455
18695W        W23095  22.980   1.048  29.742 -0.0435  0.0687  0.0554
18696W        W23096   7.757   5.274  25.407 -0.0241  0.2994 -0.0653
18697W        W23097  18.246   2.534  32.791 -0.1569 -0.1772 -0.1310
18698W        W23098   3.888   5.288  10.117  0.0467  0.0033  0.1200
18699W        W23099  13.352   2.702  30.732  0.1586 -0.1374 -0.0120
18700W        W23100  13.711   6.356  11.685 -0.1882  0.0652 -0.2579
18701W        W23101  21.203   0.177   3.742 -0.1733  0.0627  0.0047
18702W        W23102  25.298   1.723  27.896 -0.0848  0.1249  0.1550
18703W        W23103   5.034   4.814  24.002  0.1690  0.0307  0.0318
18704W        W23104  25.518   3.828  12.770  0.0576  0.0133  0.0569
18705W        W23105  12.111   3.897  33.350  0.2274 -0.0483  0.0927
18706W        W23106   9.796   1.602   4.780  0.2048 -0.0158 -0.3338
18707W        W23107  18.224   5.180  29.027  0.2588 -0.0432  0.0206
18708W        W23108  16.970   3.594  21.222  0.0942 -0.0429 -0.1150
18709W        W23109  22.357   0.526   7.811  0.0491 -0.0745  0.2338
18710W        W23110  21.783   2.519  26.797  0.1053 -0.0861 -0.1133
18711W        W23111  12.247   4.673   7.301 -0.1274  0.0568  0.0282
18712W        W23112   1.199   1.376   7.169  0.1737 -0.0400  0.1525
18713W        W23113   0.510   6.038   1.286 -0.0476 -0.1215 -0.0074
18714W        W23114  11.703   1.319   3.936 -0.2562  0.0997  0.1858
18715W        W23115  13.143   0.027   3.141 -0.2120 -0.1809  0.1366
18716W        W23116   1.557   6.358   0.073 -0.2080 -0.0936 -0.1351
18717W        W23117  12.723   0.679  15.067  0.0845 -0.2516 -0.1966
18718W        W23118  11.039   0.916  24.994  0.1338  0.1187 -0.1540
18719W        W23119   0.130   2.866  10.015 -0.1069 -0.0609  0.3867
18720W        W23120   7.219   2.764   1.456 -0.5522  0.1162 -0.0414
18721W        W23121  19.673   5.789   0.873 -0.0060  0.0790 -0.0255
18722W        W23122   0.335   5.838  31.158 -0.0542  0.1458 -0.3019
18723W        W23123   0.506   0.773  36.057  0.0545  0.0028 -0.0667
18724W        W23124   7.467   4.959  34.536 -0.2138 -0.0896  0.1189
18725W        W23125  23.110   2.441  26.517 -0.2153  0.1130 -0.0901
18726W        W23126   1.406   3.993  20.938 -0.0340  0.0799 -0.0958
18727W        W23127  16.366   2.717   2.230 -0.3356 -0.0656 -0.0696
18728W        W23128  17.162   3.398  12.773  0.1977 -0.0369 -0.0611
18729W        W23129   1.322   1.990  25.805 -0.0371  0.0819 -0.1833
18730W        W23130  14.741   1.090  23.990 -0.0902  0.0008  0.2036
18731W        W23131   3.612   3.118   7.475  0.0213  0.4133 -0.1198
18732W        W23132  26.281   0.215   6.173  0.0647 -0.2608 -0.0042
18733W        W23133   0.633   0.762  12.005  0.0953 -0.0319  0.1908
18734W        W23134  19.049   5.290   7.127 -0.0148  0.0845  0.3188
18735W        W23135   4.346   4.799   7.267 -0.0218 -0.2395 -0.1719
18736W        W23136  22.825   0.253  26.624 -0.0027 -0.2125  0.1602
18737W        W23137  16.475   6.413  29.948  0.1420 -0.0045  0.1794
18738W        W23138  20.815   5.375  30.408 -0.1868 -0.0092 -0.1272
18739W        W23139   4.243   1.092   2.732 -0.1266 -0.1333 -0.1301
18740W        W23140  19.944   6.266  34.080  0.1388  0.0805 -0.2616
18741W        W23141   2.056   5.616   2.352  0.0355 -0.2556  0.0061
18742W        W23142   0.693   2.630   2.000 -0.1636  0.2497  0.0477
18743W        W23143  20.031   5.110  14.353  0.2883  0.0766  0.0670
18744W        W23144   2.395   4.484  27.343 -0.0536  0.1325  0.1309
18745W        W23145  14.031   3.523   9.544  0.0840  0.0055 -0.0069
18746W        W23146   3.881   2.903   0.459  0.1572  0.0870  0.2151
18747W        W23147  18.679   1.412  34.315 -0.1378  0.0601 -0.1911
18748W        W23148   6.526   0.065  14.788  0.3241 -0.5343 -0.1524
18749W        W23149   4.335   5.895  24.037  0.1328  0.3053 -0.0857
18750W        W23150  19.354   3.932  31.743  0.2478  0.1232  0.2567
18751W        W23151   2.649   3.615   4.361 -0.3265  0.0600 -0.1162
18752W        W23152  17.653   2.120  29.329  0.1588  0.1390 -0.0410
18753W        W23153   4.808   5.806  24.275 -0.2224 -0.3850  0.2159
18754W        W23154   4.422   4.216  34.631 -0.0972 -0.0315  0.2408
18755W        W23155  18.491   1.325   7.297 -0.1413  0.0146  0.2955
18756W        W23156  20.320   4.453  13.589  0.1708 -0.0154  0.0013
18757W        W23157  21.463   3.918  21.405  0.0852 -0.1802  0.1903
18758W        W23158  19.082   4.393   4.434  0.0553 -0.1615  0.0243
18759W        W23159  19.746   1.002  34.545 -0.0640 -0.2554  0.1517
18760W        W23160  16.738   4.226  11.842  0.0412  0.1494 -0.0324
18761W        W23161   2.638   5.404   4.299  0.5529 -0.2789  0.1401
18762W        W23162  21.833   2.617   5.799  0.0845  0.1839 -0.1888
18763W        W23163  20.696   2.320  34.449  0.2247  0.0029  0.2313
18764W        W23164  13.031   6.578  29.249 -0.1943  0.2457 -0.4388
18765W        W23165   2.761   5.899  25.444 -0.3152 -0.0671 -0.2308
18766W        W23166  20.863   3.140  14.800 -0.0314  0.4177  0.1874
18767W        W23167  25.545   3.447  34.280 -0.0623  0.0308  0.0101
18768W        W23168  25.216   4.535   5.105 -0.3656 -0.1333  0.1648
18769W        W23169  15.234   1.251  13.466  0.0396  0.0858  0.1191
18770W        W23170   9.897   0.983  23.142 -0.2728  0.0542 -0.0678
18771W        W23171  25.287   5.871   7.673 -0.1542 -0.0284  0.0337
18772W        W23172  14.926   0.670  23.731 -0.1442 -0.0609  0.1404
18773W        W23173   8.586   0.311   7.539  0.0253 -0.2957  0.0600
18774W        W23174  13.036   4.865   5.454  0.0078 -0.1812 -0.2104
18775W        W23175   0.930   0.236  33.306  0.1254  0.0190  0.0199
18776W        W23176  24.033   3.303  26.460  0.0598 -0.0153 -0.2156
18777W        W23177  17.659   3.553  32.860  0.0785  0.0839 -0.3260
18778W        W23178   7.017   0.409  11.812 -0.1203 -0.0711  0.1865
18779W        W23179   7.217   1.332  26.828  0.2672  0.1475  0.0072
18780W        W23180  23.895   1.437   9.273 -0.1522 -0.1514  0.2160
18781W        W23181  14.407   4.694  12.294  0.0180  0.0288  0.3758
18782W        W23182   2.597   3.259   6.064 -0.2394 -0.0212  0.0675
18783W        W23183  21.922   1.496  32.883  0.1356  0.0816 -0.0368
18784W        W23184  17.504   3.593   4.363 -0.0095 -0.1320  0.1936
18785W        W23185  14.280   2.260  33.849  0.0213 -0.2389  0.2427
18786W        W23186   4.666   2.444  25.784 -0.2425 -0.0375 -0.1752
18787W        W23187  17.831   2.937  11.989  0.1290  0.1239  0.0399
18788W        W23188  20.032   6.478  14.537  0.1859 -0.1555 -0.3360
18789W        W23189   0.577   3.769   1.291 -0.3176 -0.2522  0.0040
18790W        W23190  22.805   2.083   5.132  0.2449  0.0165  0.0457
18791W        W23191  25.396   5.294  10.420  0.5871 -0.2621 -0.0033
18792W        W23192  13.044   1.596   0.680  0.2524 -0.0830  0.0418
18793W        W23193   3.371   4.457   8.191  0.3222  0.2770 -0.0416
18794W        W23194  15.764   0.709  28.865  0.1373 -0.0689 -0.0364
18795W        W23195  24.774   2.488  14.830 -0.1604 -0.2651  0.1806
18796W        W23196   9.356   2.519  35.158  0.0871  0.1252 -0.0384
18797W        W23197   1.959   5.925  29.037 -0.1926 -0.0693 -0.3003
18798W        W23198  18.951   3.568   9.525  0.0792  0.0157  0.1391
18799W        W23199  21.079   2.698   6.749 -0.0295 -0.0160  0.1989
18800W        W23200  19.972   2.155  10.514  0.0562  0.2023 -0.0485
18801W        W23201   4.796   5.001  35.898 -0.3500  0.0484 -0.1482
18802W        W23202  21.129   6.272  26.424  0.1414 -0.2773  0.1497
18803W        W23203  13.239   1.729  28.552  0.1278 -0.1738 -0.1593
18804W        W23204  16.426   4.809   3.325 -0.1267 -0.2439  0.1550
18805W        W23205   8.680   3.564  22.202  0.0885  0.2714  0.1199
18806W        W23206  11.910   6.514  30.174  0.2961 -0.3190 -0.1859
18807W        W23207   9.539   3.802  10.285 -0.0987  0.0451 -0.2264
18808W        W23208  10.390   1.166   8.545  0.0081  0.0280 -0.4256
18809W        W23209   1.500   4.981  28.470 -0.1404 -0.1499 -0.0122
18810W        W23210  12.241   3.375  35.608 -0.0883 -0.3631 -0.2683
18811W        W23211  10.978   3.239   4.536  0.1750  0.2995  0.1571
18812W        W23212  13.588   6.049  30.747  0.1470 -0.0649  0.0672
18813W        W23213  15.182   2.566  13.953  0.0450 -0.1680 -0.1888
18814W        W23214  21.130   5.731   6.552 -0.2979  0.0295 -0.1888
18815W        W23215  18.074   3.239  32.498  0.0113  0.0143  0.1944
18816W        W23216   7.659   5.305  24.604  0.1688 -0.0363  0.0330
18817W        W23217   8.887   6.165  21.969 -0.1811 -0.1386  0.0653
18818W        W23218  22.961   1.016  14.753  0.0527  0.0398 -0.0433
18819W        W23219  12.047   3.076   2.025  0.2672 -0.2599 -0.2223
18820W        W23220   3.111   5.105   1.531 -0.0218 -0.1495  0.1125
18821W        W23221   2.771   0.952  12.755  0.2270 -0.0554 -0.0430
18822W        W23222  16.662   0.751   1.055 -0.1025 -0.0805  0.2699
18823W        W23223  21.376   3.963  30.894 -0.0628  0.1226 -0.2523
18824W        W23224   8.391   6.237   0.275  0.3517  0.0996  0.0692
18825W        W23225   6.039   6.302   6.013 -0.0292 -0.1091 -0.1050
18826W        W23226  20.174   5.075  22.561 -0.1157  0.0785 -0.1207
18827W        W23227   9.356   1.744   4.102  0.3704  0.3330  0.1907
18828W        W23228  14.942   2.321  25.782 -0.1021 -0.1594 -0.0045
18829W        W23229  17.453   0.885  20.902  0.1671 -0.2920 -0.1037
18830W        W23230   3.964   2.419  32.777  0.0294 -0.0151  0.1268
18831W        W23231  21.109   4.051  14.688 -0.1489 -0.1582 -0.0293
18832W        W23232  24.858   2.111  30.995 -0.0576 -0.2054  0.1147
18833W        W23233   2.404   5.771  28.886 -0.2008  0.0667  0.2407
18834W        W23234   8.580   5.984  28.678 -0.2099  0.2835 -0.0232
18835W        W23235  18.837   2.426  23.384  0.0752 -0.1888 -0.0066
18836W        W23236  12.023   4.558   6.715  0.0175 -0.0609 -0.0900
18837W        W23237   7.553   5.506  34.410 -0.3335 -0.1062 -0.1127
18838W        W23238  19.852   4.076   6.294  0.0485  0.3889  0.1007
18839W        W23239  14.370   1.137   7.560 -0.0879 -0.2243  0.2152
18840W        W23240  15.689   6.092  23.093 -0.0179  0.2977  0.2721
18841W        W23241  24.964   5.623  25.227  0.1067  0.0803 -0.0958
18842W        W23242   5.505   2.028  25.592 -0.1271  0.2754  0.1486
18843W        W23243  25.787   0.747  27.816 -0.1621 -0.1793 -0.0395
18844W        W23244  20.519   4.821  34.245 -0.0806  0.4004 -0.0297
18845W        W23245   1.357   2.266  11.952 -0.0073  0.3768  0.1967
18846W        W23246  24.312   5.774  20.933  0.0033 -0.1544  0.0618
18847W        W23247  24.200   6.358  11.557  0.0745  0.3312 -0.1109
18848W        W23248   5.386   4.722   5.784  0.1003  0.3214 -0.0440
18849W        W23249   7.796   5.877  21.319  0.3492  0.5286  0.1845
18850W        W23250  12.764   2.664  32.014 -0.1090 -0.1333  0.0640
18851W        W23251  11.281   3.990   8.288 -0.0009 -0.1078  0.3119
18852W        W23252  23.947   5.217  10.242 -0.1488 -0.0506  0.3190
18853W        W23253  22.350   0.105   0.937 -0.0790 -0.2588 -0.1133
18854W        W23254   9.332   3.409  12.254 -0.1207 -0.1717  0.1469
18855W        W23255   9.867   1.626   4.291  0.1556 -0.2582  0.0219
18856W        W23256  25.097   1.147  30.828 -0.0487 -0.1155  0.1703
18857W        W23257   6.172   5.717  27.729 -0.0943 -0.1313  0.2809
18858W        W23258  15.378   1.590  25.640 -0.2058  0.0257 -0.3373
18859W        W23259   8.578   5.313  26.163 -0.1535  0.0155  0.0643
18860W        W23260  14.581   2.399   2.223 -0.1229  0.2317 -0.3545
18861W        W23261   3.448   4.110   6.926 -0.2123  0.2935 -0.0969
18862W        W23262  25.286   6.052  25.394 -0.0167  0.0186  0.1310
18863W        W23263   4.039   2.067  24.273 -0.0395 -0.1115 -0.1166
18864W        W23264   6.441   2.829  25.922  0.1385 -0.2167  0.0184
18865W        W23265  12.045   3.944  13.294  0.2007  0.1179 -0.0028
18866W        W23266   2.579   0.141  29.488 -0.2233  0.3518  0.0448
18867W        W23267  17.941   5.308  12.322  0.1365 -0.0655 -0.1718
18868W        W23268   3.009   1.915  13.403 -0.2863  0.0792  0.1807
18869W        W23269  13.886   6.329   8.408 -0.1880 -0.1670 -0.1811
18870W        W23270  19.244   3.405   8.701 -0.0599 -0.2055  0.0737
18871W        W23271   4.435   2.271   6.755  0.1989  0.0354  0.0976
18872W        W23272   3.032   5.538   5.787  0.0789 -0.0514 -0.1445
18873W        W23273   3.426   3.492  23.490 -0.1562  0.1408  0.0194
18874W        W23274  24.708   0.200  32.457 -0.1125  0.0578  0.1723
18875W        W23275  10.198   4.911  13.880 -0.0822 -0.1062  0.1003
18876W        W23276  25.091   5.381  27.745 -0.1218 -0.0688  0.1505
18877W        W23277  24.088   5.765  11.496  0.2133  0.0811  0.0020
18878W        W23278   8.263   3.513  14.150  0.0732  0.0748  0.1060
18879W        W23279  14.579   2.684  26.607  0.0317  0.1649  0.0075
18880W        W23280   6.785   2.949  15.033  0.2000 -0.1947  0.1211
18881W        W23281   5.149   1.100  10.611  0.0844 -0.0858  0.0380
18882W        W23282   7.417   6.245   4.063 -0.1518 -0.1340  0.0077
18883W        W23283  15.350   6.512  14.559  0.0593  0.1070  0.2968
18884W        W23284  13.432   1.091  28.453 -0.0731 -0.1636  0.0389
18885W        W23285  24.243   3.499  34.377 -0.6560  0.0653 -0.2353
18886W        W23286  16.707   1.643   4.466 -0.1798 -0.1443 -0.1292
18887W        W23287  23.108   1.869  22.274  0.0870 -0.0105  0.2157
18888W        W23288  21.691   6.267   5.234  0.1642 -0.1859  0.3798
18889W        W23289  14.540   4.324  25.135 -0.2465 -0.1783 -0.0268
18890W        W23290  13.186   0.954  21.552  0.3290  0.4043 -0.1634
18891W        W23291  19.226   1.241  33.448  0.0193  0.0425  0.0535
18892W        W23292   0.470   1.539   9.257 -0.1256  0.2794 -0.0122
18893W        W23293  16.013   4.508  22.853 -0.0766 -0.0615 -0.2078
18894W        W23294   3.426   5.872  11.092 -0.1598  0.0989 -0.3482
18895W        W23295  16.168   4.538   3.646 -0.1694  0.1092 -0.1346
18896W        W23296  20.159   5.528   2.544 -0.2104  0.3370  0.1845
18897W        W23297   1.285   5.248  13.705 -0.0566 -0.0061 -0.3237
18898W        W23298  14.574   2.884   9.831 -0.0334 -0.2608 -0.2766
18899W        W23299   0.411   2.936  25.412  0.1266  0.0061  0.0734
18900W        W23300  20.930   3.575  22.092  0.0883 -0.2603  0.1146
18901W        W23301  23.384   0.793   7.848 -0.1124 -0.2423  0.1148
18902W        W23302  10.205   4.927  33.105  0.0608  0.0689  0.1238
18903W        W23303  20.663   1.836   7.195  0.0750 -0.3953  0.0112
18904W        W23304   8.852   3.032  33.194 -0.1010  0.2036  0.2932
18905W        W23305   7.117   6.397  26.326 -0.1741  0.1513  0.0800
18906W        W23306  23.332   3.545  28.411 -0.0880 -0.0327  0.0011
18907W        W23307  17.888   1.823  13.561 -0.0311  0.2030  0.3510
18908W        W23308  11.847   1.742  11.144 -0.2421 -0.1298 -0.2240
18909W        W23309   9.348   1.202   8.328  0.2541 -0.2496  0.0535
18910W        W23310  23.905   0.684  26.689 -0.0204  0.1904  0.0613
18911W        W23311  14.047   3.372   5.253 -0.0034 -0.0037 -0.2439
18912W        W23312   9.608   3.318  10.129  0.1281  0.1664  0.1487
18913W        W23313   4.404   2.619  22.561  0.2300 -0.0478 -0.3462
18914W        W23314  18.173   0.825  22.438  0.0270 -0.3201 -0.0667
18915W        W23315  21.081   1.782  22.411  0.0877  0.2139 -0.1039
18916W        W23316  11.450   0.074  23.582 -0.2159 -0.1569  0.2452
18917W        W23317  19.171   4.503   5.950  0.3115 -0.0030 -0.0403
18918W        W23318  21.577   2.150  21.786  0.2060  0.1559  0.1507
18919W        W23319  14.380   2.344  13.290  0.0479  0.2892  0.2210
18920W        W23320  17.802   3.420  12.063 -0.0912  0.0324  0.0417
18921W        W23321  22.396   0.596  24.917  0.1591 -0.0635 -0.0763
18922W        W23322   8.555   2.466   1.820 -0.1247  0.0376  0.0399
18923W        W23323  18.442   2.297   7.767  0.0032 -0.0165  0.1576
18924W        W23324   4.069   3.603   0.010 -0.2140  0.0317  0.2018
18925W        W23325  23.251   0.291   7.135  0.0261  0.2761  0.0285
18926W        W23326  10.591   3.308  24.452 -0.0247 -0.0278 -0.1496
18927W        W23327  12.201   2.344  25.248 -0.2826 -0.0943 -0.0544
18928W        W23328  25.381   3.053   5.033  0.0079 -0.1911 -0.3227
18929W        W23329  18.609   1.728   9.640 -0.1534  0.0240  0.0495
18930W        W23330   0.309   1.175  14.416 -0.2333 -0.0939  0.1829
18931W        W23331   8.940   5.721  32.904 -0.1212 -0.2154 -0.0172
18932W        W23332  16.882   1.551   2.907  0.0686 -0.1504  0.1313
18933W        W23333  26.102   6.388  22.978 -0.3639  0.0190 -0.1213
18934W        W23334  12.057   0.860  30.992  0.0396  0.0341 -0.0183
18935W        W23335  15.442   3.798  10.394  0.0931  0.0081  0.0327
18936W        W23336   7.708   0.412  34.449 -0.0286  0.0933 -0.1325
18937W        W23337  22.540   3.211  32.517  0.3788  0.2434  0.0886
18938W        W23338  15.673   4.334  22.245 -0.1817 -0.0489  0.0526
18939W        W23339   2.895   4.469  24.457 -0.0864  0.0787  0.0977
18940W        W23340   8.212   6.564  23.866 -0.2482 -0.3524 -0.0445
18941W        W23341  19.174   1.963  13.321 -0.1489 -0.1016  0.0982
18942W        W23342  16.817   2.133  34.422 -0.1266  0.0373 -0.0552
18943W        W23343  20.150   6.171  25.711 -0.1362 -0.0083  0.2306
18944W        W23344  22.680   4.979   1.912  0.1796 -0.1694 -0.1584
18945W        W23345  21.571   3.117  33.532 -0.0407  0.1375  0.0633
18946W        W23346  18.860   3.689  25.703 -0.1212 -0.0115  0.1745
18947W        W23347   9.754   1.143  22.575  0.1091  0.2005  0.0575
18948W        W23348  26.048   1.504  27.272 -0.0414 -0.1068  0.2448
18949W        W23349   0.654   4.808   1.936  0.0504 -0.2300 -0.0476
18950W        W23350   2.381   4.278  35.700 -0.1918 -0.2663 -0.4398
18951W        W23351  15.139   3.167  31.280 -0.1630  0.1490  0.0712
18952W        W23352   3.106   0.898  27.882  0.1158  0.0123 -0.1652
18953W        W23353   3.737   4.634   4.647  0.0607 -0.0127  0.0629
18954W        W23354  16.287   2.666   8.461  0.0420 -0.0361  0.0406
18955W        W23355  26.119   3.309  31.503 -0.0155  0.0753 -0.1798
18956W        W23356   4.665   6.186  34.797 -0.3719  0.2689 -0.1446
18957W        W23357  21.710   4.103  10.992 -0.3230  0.2305 -0.3307
18958W        W23358   7.215   1.295   4.019  0.1074 -0.0452  0.0721
18959W        W23359  16.770   5.896  26.360  0.2439  0.3899  0.2386
18960W        W23360  10.943   3.957  22.308  0.0338 -0.0050  0.3279
18961W        W23361   8.122   5.906  27.210  0.1309  0.0483 -0.2919
18962W        W23362   0.278   4.540  12.326 -0.0528 -0.3645  0.0942
18963W        W23363  16.949   5.284  26.895 -0.1594 -0.2901  0.0936
18964W        W23364   4.615   2.039   9.391  0.1492  0.4137  0.4682
18965W        W23365  11.252   5.444  20.963  0.2221  0.1913  0.2867
18966W        W23366   1.179   2.416  25.147  0.1152  0.0859  0.2368
18967W        W23367   5.958   6.335  34.449 -0.0827  0.1276 -0.0074
18968W        W23368   7.898   3.534  15.373  0.0586  0.0855 -0.1955
18969W        W23369  22.729   4.902   8.178 -0.2542  0.0786  0.2492
18970W        W23370  11.520   3.194   5.979 -0.1506  0.0523  0.1143
18971W        W23371   4.866   2.495   1.773  0.2139  0.2374  0.0907
18972W        W23372  18.262   0.786  11.442 -0.0452 -0.2860  0.0585
18973W        W23373  14.455   1.691   3.849 -0.1386 -0.0985 -0.0940
18974W        W23374  14.784   5.832  23.988 -0.0723 -0.0770  0.1876
18975W        W23375  13.503   2.656   3.736  0.1929 -0.2601 -0.2865
18976W        W23376  24.650   5.609  11.856 -0.0477 -0.3707  0.0649
18977W        W23377   6.469   3.680  29.489  0.1209 -0.2852 -0.0574
18978W        W23378  22.341   1.968  22.704 -0.2128  0.2231 -0.0724
18979W        W23379  21.505   2.271  23.148  0.1834 -0.1974 -0.0618
18980W        W23380   4.027   6.337   7.788  0.0385  0.1259 -0.1270
18981W        W23381  16.372   3.104  12.412  0.1864  0.1200 -0.2458
18982W        W23382  25.826   5.418  24.360 -0.0444  0.1210  0.1126
18983W        W23383   7.823   1.136  31.529 -0.2901 -0.1329  0.0235
18984W        W23384  17.620   0.815   9.265 -0.1420  0.1527 -0.4541
18985W        W23385   2.914   4.987  30.610  0.2189  0.3246 -0.1087
18986W        W23386   7.504   2.238  21.755 -0.1986  0.0250  0.1208
18987W        W23387  24.129   1.920  24.268  0.2493  0.2124  0.1748
18988W        W23388   7.823   1.958   8.746 -0.0078  0.0446  0.2447
18989W        W23389   0.859   4.652  32.522  0.0255 -0.1820  0.1608
18990W        W23390   6.434   4.490  13.481  0.0148  0.2474  0.1687
18991W        W23391  16.499   0.755   8.895 -0.1892  0.0073  0.0843
18992W        W23392  12.428   3.484  23.853  0.1825 -0.0450 -0.1307
18993W        W23393  13.456   3.732  29.061 -0.1221  0.0410  0.1120
18994W        W23394  12.726   4.278   9.177 -0.0496  0.1303  0.2394
18995W        W23395  12.037   4.681   5.384 -0.0079  0.2258  0.1359
18996W        W23396  25.867   2.966  20.626 -0.1176  0.0559 -0.3251
18997W        W23397  24.260   1.693  34.513 -0.1902 -0.1295 -0.0309
18998W        W23398   9.324   0.527   4.289  0.1516 -0.0568 -0.0033
18999W        W23399   1.506   4.824  33.767 -0.0677  0.0431 -0.0468
19000W        W23400   6.173   5.450  11.091  0.1412 -0.2538 -0.1115
19001W        W23401   9.658   5.450   7.489  0.1056  0.2347 -0.1100
19002W        W23402   5.432   5.172  23.995  0.0987 -0.2815 -0.4873
19003W        W23403   4.090   4.556   1.154 -0.3828 -0.1539  0.2127
19004W        W23404  10.363   0.389   6.551  0.1611  0.0644 -0.2894
19005W        W23405  17.482   6.085  26.925 -0.1612 -0.0058 -0.0502
19006W        W23406   5.082   3.891  30.478  0.2491  0.3313  0.0234
19007W        W23407  24.461   0.263  35.351  0.0054 -0.1106  0.3594
19008W        W23408  10.591   3.969  30.522  0.2377 -0.1618 -0.0259
19009W        W23409   3.149   0.447  31.164  0.0473  0.2348 -0.0650
19010W        W23410  12.772   5.861  13.834  0.3429  0.1144 -0.0776
19011W        W23411   8.452   4.715  28.016 -0.0676 -0.1263 -0.0947
19012W        W23412   5.281   1.909  30.887 -0.0867 -0.4240  0.0203
19013W        W23413  25.862   3.160   8.875 -0.0111  0.2542  0.0943
19014W        W23414   9.314   5.116  26.718 -0.1117 -0.0265  0.0521
19015W        W23415   2.717   3.912  31.117  0.0896  0.0519 -0.0074
19016W        W23416   1.846   1.863  26.702 -0.1985 -0.1817 -0.0211
19017W        W23417  25.657   5.725   6.026 -0.2231 -0.1077  0.0522
19018W        W23418   0.710   0.076  29.622 -0.0426 -0.2111 -0.3522
19019W        W23419  17.884   4.007  27.411  0.1041 -0.0164 -0.0666
19020W        W23420  13.598   5.470  27.196 -0.0135  0.1207  0.0096
19021W        W23421   8.588   1.286  13.277  0.0498 -0.3275  0.2522
19022W        W23422  10.301   0.209  21.917  0.1547  0.2794  0.4420
19023W        W23423  25.525   2.900  14.938  0.1347 -0.1242  0.0799
19024W        W23424   5.324   3.692   8.832  0.1018  0.0572  0.0309
19025W        W23425   3.694   0.381  11.652 -0.2665  0.0292 -0.1672
19026W        W23426  25.529   4.041  25.253  0.2330  0.0545 -0.0221
19027W        W23427   0.983   3.849  35.312 -0.0539 -0.0908 -0.0897
19028W        W23428  19.896   1.525  29.497  0.2187 -0.1237 -0.1630
19029W        W23429   6.557   6.403  13.601 -0.2578  0.0338  0.2589
19030W        W23430   6.579   2.600  10.087 -0.2039 -0.2102  0.2015
19031W        W23431   1.590   6.074  14.796  0.3542  0.4415 -0.1502
19032W        W23432   7.303   5.530  25.697  0.1679 -0.1652 -0.0340
19033W        W23433   7.682   1.470   9.550  0.4639 -0.0479 -0.0190
19034W        W23434   2.672   4.738  22.202  0.0805  0.0690 -0.1064
19035W        W23435   7.559   3.563  26.313 -0.0473  0.0477 -0.0681
19036W        W23436  15.469   4.669  25.228  0.3586  0.0178  0.0815
19037W        W23437   5.682   0.502  13.561 -0.0540 -0.0363 -0.3640
19038W        W23438  23.920   2.457  26.163  0.1188 -0.0194 -0.1711
19039W        W23439   3.849   5.839  10.907 -0.0028  0.0098  0.3162
19040W        W23440  21.488   3.965  13.126 -0.2303 -0.3935 -0.2588
19041W        W23441  22.373   3.559   6.418  0.2383 -0.0928 -0.1270
19042W        W23442  25.529   1.735  33.030 -0.0594 -0.1198  0.1178
19043W        W23443   5.416   2.828  29.260 -0.1498  0.1194 -0.3743
19044W        W23444  11.577   6.260   8.418  0.2708 -0.1123  0.2221
19045W        W23445   6.446   1.468  11.820  0.1985 -0.2560 -0.0632
19046W        W23446  17.388   2.915  29.928  0.1459  0.1251 -0.0519
19047W        W23447   6.858   0.263  13.440 -0.3151 -0.0025 -0.2316
19048W        W23448   9.378   3.337  25.763 -0.0349 -0.0586  0.1515
19049W        W23449  15.172   1.623   9.489  0.2180  0.1978 -0.0690
19050W        W23450   9.949   0.983  25.904 -0.3025 -0.4178  0.0543
19051W        W23451   3.938   6.313  23.990  0.0027 -0.3828  0.1134
19052W        W23452  16.647   6.193  36.015 -0.0673 -0.0131 -0.0548
19053W        W23453  12.193   3.481  13.732 -0.0406 -0.1935 -0.2807
19054W        W23454  26.085   1.427  20.651  0.1463  0.0148  0.1657
19055W        W23455   5.873   0.831  10.098 -0.1810 -0.4917  0.1095
19056W        W23456  10.786   0.133   7.389  0.1121 -0.0910 -0.3980
19057W        W23457   9.580   5.144  32.332 -0.1267 -0.1040 -0.4525
19058W        W23458   6.747   6.256  15.551  0.1398 -0.0765 -0.2416
19059W        W23459  21.377   3.999  10.655  0.1164 -0.0323 -0.3625
19060W        W23460   8.915   3.144   1.771 -0.1018  0.1048 -0.1621
19061W        W23461   7.894   2.058  28.998 -0.4260 -0.0370 -0.0684
19062W        W23462   4.496   5.177   8.145  0.0845  0.1814  0.1071
19063W        W23463   6.393   4.737  32.045 -0.1927 -0.3613 -0.2680
19064W        W23464   1.616   5.143   1.800  0.1986  0.1117  0.0869
19065W        W23465  21.410   3.339   4.581  0.0674 -0.1899 -0.1768
19066W        W23466  19.779   0.554   5.312  0.1748  0.2532 -0.3761
19067W        W23467  24.574   0.969  24.068  0.2124 -0.1606 -0.0516
19068W        W23468  22.179   2.850   0.874 -0.2227  0.1613  0.0576
19069W        W23469   7.550   5.517   3.597  0.0097 -0.0669  0.2717
19070W        W23470  24.368   6.309   8.701 -0.1758  0.4936 -0.1730
19071W        W23471  21.288   5.260  33.448  0.3129 -0.1218  0.1948
19072W        W23472   2.358   4.695   3.015 -0.0160 -0.0597  0.1313
19073W        W23473  16.901   5.933  12.436  0.1438  0.3689  0.0957
19074W        W23474   8.947   1.233  23.131 -0.0081 -0.0028  0.0622
19075W        W23475  21.685   1.018  31.587  0.0630  0.0649 -0.3276
19076W        W23476  24.075   1.466  11.197 -0.1072  0.0715  0.0335
19077W        W23477  13.158   5.322  12.110  0.0143  0.1390 -0.0223
19078W        W23478  15.640   1.642   9.182  0.2331  0.2210 -0.1244
19079W        W23479  11.182   1.854   0.425 -0.0471  0.1639  0.1325
19080W        W23480  21.582   2.819  27.127 -0.0428 -0.0558 -0.1325
19081W        W23481   1.840   1.645  31.467 -0.1504  0.1855  0.0013
19082W        W23482  12.432   3.537   2.006 -0.0427  0.2235 -0.1048
19083W        W23483   4.120   0.358  32.967  0.0816 -0.0945 -0.0932
19084W        W23484  20.193   0.702  23.533 -0.0671 -0.1815 -0.0940
19085W        W23485  14.954   5.125  12.670  0.3919 -0.2236  0.4097
19086W        W23486  14.804   5.516   7.687  0.3646  0.1330 -0.1972
19087W        W23487   7.816   0.199  26.941 -0.0509 -0.2572  0.0088
19088W        W23488   2.227   1.615  11.422  0.1078  0.1242  0.4315
19089W        W23489  22.518   4.993  27.868  0.0051  0.0108  0.3797
19090W        W23490   1.772   2.356  33.072 -0.1524  0.0483  0.0220
19091W        W23491  16.835   2.308  31.797 -0.0065 -0.0963 -0.1126
19092W        W23492  13.200   1.907  26.246 -0.1045  0.0151  0.0744
19093W        W23493  15.521   4.763  23.679  0.3316 -0.3221  0.0653
19094W        W23494   3.405   5.069  32.690 -0.0523  0.1631 -0.2826
19095W        W23495  24.548   3.579  21.841 -0.0173 -0.1219 -0.0384
19096W        W23496  19.873   0.892  13.803  0.1643  0.0361 -0.2474
19097W        W23497  16.028   1.722  13.341  0.3638  0.0444  0.0107
19098W        W23498  24.774   3.717   9.409 -0.0028  0.3341 -0.2524
19099W        W23499  25.780   4.734  15.305  0.0053  0.2517 -0.1266
19100W        W23500   0.382   6.598   6.949  0.0564  0.0102 -0.2848
19101W        W23501  15.475   4.262  11.144  0.1558 -0.1203 -0.2438
19102W        W23502   6.355   5.071  11.626  0.0866 -0.1008 -0.0356
19103W        W23503   0.243   0.163  30.684 -0.1307 -0.1759 -0.2991
19104W        W23504  12.389   3.823  28.383  0.2930  0.2606 -0.0321
19105W        W23505   1.797   3.019  24.677 -0.0704 -0.0384  0.0911
19106W        W23506  15.338   6.401   4.234 -0.1080  0.3400 -0.0660
19107W        W23507  12.376   4.280  27.782 -0.0339 -0.0843 -0.0112
19108W        W23508  21.291   1.647  23.922  0.0208 -0.0939 -0.3223
19109W        W23509   5.032   3.501  28.770 -0.2738  0.1389 -0.0799
19110W        W23510  13.976   1.381  23.904 -0.0463 -0.2526  0.1435
19111W        W23511   2.000   2.206   1.570 -0.3287 -0.3901  0.2810
19112W        W23512  18.207   3.775   6.382  0.2650  0.1787 -0.0091
19113W        W23513   7.182   0.173   1.376  0.0242 -0.0955  0.0963
19114W        W23514  17.144   4.290  13.152 -0.0570  0.1541  0.0778
19115W        W23515  16.814   2.337  26.656 -0.0099  0.1836 -0.0868
19116W        W23516  19.622   2.540  23.858  0.1309  0.0350  0.0323
19117W        W23517   6.733   4.554  35.612  0.1424  0.0070 -0.1048
19118W        W23518  19.186   2.399  11.538  0.2333  0.3047 -0.0923
19119W        W23519   8.759   0.172   4.327 -0.2633  0.0850 -0.2979
19120W        W23520   8.325   5.165  26.657  0.3316 -0.1868  0.1496
19121W        W23521  12.053   5.945  30.325  0.0249 -0.1691  0.2615
19122W        W23522   9.220   0.668  29.953 -0.0867  0.0155 -0.0382
19123W        W23523   2.461   3.747  15.170 -0.0843  0.0206 -0.1468
19124W        W23524   0.484   0.382  24.299  0.0107  0.0338 -0.2914
19125W        W23525  16.867   1.753  27.480  0.1130  0.0576 -0.0586
19126W        W23526   8.906   3.717  33.940 -0.0314 -0.1332 -0.0756
19127W        W23527  18.784   5.897   6.402 -0.2723 -0.0842 -0.0641
19128W        W23528  14.567   1.540  25.263  0.1500 -0.1060 -0.0566
19129W        W23529  15.286   3.851  25.518 -0.0281  0.1283 -0.0206
19130W        W23530   8.061   5.249  23.908 -0.0006  0.0045  0.0445
19131W        W23531   2.749   1.939  15.052 -0.3461  0.0125  0.0239
19132W        W23532   5.383   2.227   8.054  0.1047 -0.1147  0.0463
19133W        W23533  16.817   2.666   7.919  0.3197 -0.2668  0.2008
19134W        W23534   8.071   5.254  22.768 -0.2082  0.1459  0.1416
19135W        W23535   1.053   4.476  10.642 -0.0808 -0.1091 -0.0561
19136W        W23536   0.428   6.591  10.881  0.0397 -0.0304 -0.1766
19137W        W23537   9.081   4.780   4.179 -0.3271  0.2584  0.2196
19138W        W23538  16.730   4.888   7.424 -0.2427 -0.2373  0.4251
19139W        W23539   6.749   4.862  30.460 -0.3551  0.0664  0.0015
19140W        W23540   7.370   5.176  20.835 -0.3647  0.0497 -0.2174
19141W        W23541  15.058   2.584   1.557 -0.3493  0.4050  0.1597
19142W        W23542   5.740   4.659   9.550  0.2032 -0.2018 -0.0255
19143W        W23543  26.293   3.736  32.359  0.0796  0.0625  0.0823
19144W        W23544   4.129   4.508  27.981 -0.0390  0.0982  0.0849
19145W        W23545  23.716   0.100  12.616  0.0616  0.1733  0.1602
19146W        W23546   7.448   5.294  23.229 -0.1421  0.0928 -0.0238
19147W        W23547   5.429   3.684  13.081  0.0393  0.2167  0.0070
19148W        W23548   9.572   3.310  24.785  0.2305  0.0291  0.2076
19149W        W23549  21.883   3.860   6.469  0.0668 -0.2493 -0.2289
19150W        W23550  26.224   2.279  26.735  0.1160 -0.1763  0.0850
19151W        W23551   6.189   5.412  22.519  0.0368 -0.0661 -0.2640
19152W        W23552  19.512   2.916  24.706  0.2179  0.0560 -0.1266
19153W        W23553  17.200   0.347  28.085 -0.3033 -0.1270  0.1850
19154W        W23554  17.870   1.819   4.732 -0.1445 -0.2220  0.1060
19155W        W23555  14.533   3.297   3.167  0.1199  0.1070 -0.0955
19156W        W23556  16.406   1.121   9.959 -0.0881 -0.0466 -0.1735
19157W        W23557  13.481   3.016  27.704  0.0437  0.0387  0.2157
19158W        W23558  25.519   1.253   0.022 -0.0162 -0.0375 -0.5486
19159W        W23559   7.233   5.284  35.414  0.1244 -0.1047 -0.0060
19160W        W23560  20.418   3.367   2.843 -0.0042 -0.0039 -0.0178
19161W        W23561  18.424   1.570  26.993  0.2309 -0.0009 -0.1622
19162W        W23562  24.808   1.777  10.987 -0.1918  0.0486 -0.1239
19163W        W23563  19.294   4.837   5.532 -0.3373 -0.2261  0.2557
19164W        W23564  19.474   2.814  10.100 -0.0626  0.3105  0.1127
19165W        W23565  18.315   5.879  33.979 -0.0908  0.0753  0.1149
19166W        W23566  18.659   1.225   2.619 -0.0899 -0.1884 -0.0059
19167W        W23567   8.963   2.889  29.195 -0.1232 -0.1490 -0.0545
19168W        W23568  24.888   4.792   7.828 -0.1323  0.2714 -0.1329
19169W        W23569   6.636   5.441  15.997  0.0329  0.1785  0.2227
19170W        W23570   0.423   3.078  26.757  0.2111  0.1459  0.1207
19171W        W23571   6.882   2.668   2.938  0.2781 -0.3808 -0.0156
19172W        W23572   7.581   3.696   5.317  0.0099 -0.2381 -0.1648
19173W        W23573  26.175   2.795   1.802  0.1008  0.3045  0.0951
19174W        W23574  20.695   6.528  11.491  0.3687 -0.2523 -0.2979
19175W        W23575  14.482   3.720   3.932  0.1244 -0.1582  0.1950
19176W        W23576  14.382   1.794  25.623 -0.3149  0.0628 -0.2454
19177W        W23577  14.019   4.823  13.287 -0.0838 -0.4140  0.1407
19178W        W23578  12.562   4.212  22.857 -0.0652  0.2424  0.2027
19179W        W23579  18.972   4.105  35.301  0.0475  0.1625 -0.2886
19180W        W23580  24.841   5.667  31.745  0.4498 -0.0559 -0.1202
19181W        W23581  19.037   5.061   8.839 -0.0789  0.2788 -0.0940
19182W        W23582  13.199   6.270  27.239  0.2018  0.0103 -0.1554
19183W        W23583  21.190   0.554   0.808  0.1097 -0.5696 -0.0910
19184W        W23584  24.536   4.420   3.388 -0.1081  0.4030  0.0623
19185W        W23585  24.379   3.674  10.726 -0.0677 -0.2313  0.1289
19186W        W23586  20.276   0.931  11.584 -0.0506 -0.0974  0.1531
19187W        W23587   2.258   2.198  35.336 -0.1888  0.2739  0.0652
19188W        W23588  25.560   2.265   3.001 -0.1651 -0.0250  0.0896
19189W        W23589   9.320   1.659   0.889  0.1690 -0.0811  0.3501
19190W        W23590   4.128   3.946  28.782 -0.0940  0.0062 -0.2172
19191W        W23591   1.393   6.045   5.542  0.0084  0.0261 -0.1535
19192W        W23592  16.182   4.421  21.939 -0.0207 -0.1993  0.0008
19193W        W23593   9.459   0.688   8.441 -0.0403  0.0668 -0.1509
19194W        W23594  25.601   4.732  20.647  0.2710  0.1566 -0.0160
19195W        W23595  16.162   2.958  27.467 -0.0236 -0.0207  0.2417
19196W        W23596   8.775   1.493   1.134  0.1320  0.1293  0.1508
19197W        W23597  23.608   6.169   0.630  0.2381  0.1607 -0.1748
19198W        W23598  12.868   2.857  33.262  0.0761 -0.3922  0.0114
19199W        W23599  12.018   0.719  26.676  0.0417  0.2023 -0.0170
19200W        W23600  24.279   4.427  27.502 -0.1861 -0.1038 -0.2379
19201W        W23601  12.462   5.893  11.681  0.0928  0.2100 -0.1065
19202W        W23602   0.414   3.723  35.364 -0.0466  0.0507 -0.2003
19203W        W23603  17.539   2.193  30.701 -0.2277 -0.0799 -0.1546
19204W        W23604  24.170   3.237  27.905  0.0265 -0.0755 -0.1322
19205W        W23605  23.210   5.130  28.097  0.1468  0.0937  0.1328
19206W        W23606   9.271   4.069   3.565 -0.1156  0.2153  0.1446
19207W        W23607   0.158   6.099  28.957  0.1508  0.0660 -0.3722
19208W        W23608  22.482   3.633   9.102  0.1382 -0.0609 -0.0583
19209W        W23609  12.520   3.992  12.995 -0.1199  0.0470 -0.0536
19210W        W23610   1.855   3.612  15.211  0.1456  0.0151 -0.1934
19211W        W23611  19.257   1.712  30.179  0.0998  0.2744  0.0365
19212W        W23612   2.784   6.459   1.568 -0.0966  0.2125  0.1406
19213W        W23613   3.106   4.225  28.809  0.0794 -0.0650  0.0610
19214W        W23614  21.536   5.179  32.453  0.2978  0.1311  0.1099
19215W        W23615  18.990   0.229   5.023 -0.2444  0.2402  0.2731
19216W        W23616   2.561   5.994  15.046 -0.2321  0.3659  0.0032
19217W        W23617   3.416   2.385  11.560 -0.1152 -0.2854 -0.2458
19218W        W23618  24.330   4.710   4.910 -0.0623 -0.1084 -0.1321
19219W        W23619  14.541   6.045  28.126  0.3269 -0.3226 -0.1635
19220W        W23620  19.799   6.535  23.951  0.2107 -0.0422  0.0136
19221W        W23621  15.514   4.139  34.483  0.1917  0.0507 -0.2081
19222W        W23622  15.505   1.601  30.823  0.1438  0.2944  0.2348
19223W        W23623  23.869   5.938  35.634 -0.4135  0.0834  0.5179
19224W        W23624  24.852   6.107  25.126  0.1430 -0.1602  0.1478
19225W        W23625   6.940   2.999  23.317 -0.0819 -0.1534 -0.0870
19226W        W23626   1.298   2.139   3.649  0.1072 -0.0243  0.4228
19227W        W23627   2.132   1.648   5.712  0.5041  0.0873 -0.3065
19228W        W23628  18.065   6.271   1.717 -0.1082 -0.2390  0.0698
19229W        W23629  20.740   0.787   0.872 -0.1336 -0.2423 -0.3908
19230W        W23630  18.529   2.724  23.868  0.1026  0.0641  0.1112
19231W        W23631   5.043   2.663   3.266 -0.2593  0.1651  0.0993
19232W        W23632   6.053   1.096   9.666  0.3006  0.1242 -0.0514
19233W        W23633   0.658   2.513  35.014  0.1686 -0.0003 -0.0681
19234W        W23634   6.288   5.968  34.341  0.2688  0.2012 -0.0176
19235W        W23635   2.636   2.431  35.593  0.1914  0.3604 -0.1046
19236W        W23636  17.493   1.817  27.243  0.3828  0.1627 -0.0797
19237W        W23637  12.167   0.501   8.700  0.1666 -0.0149  0.1235
19238W        W23638  12.826   1.069  14.184 -0.0083  0.1400 -0.0507
19239W        W23639   6.658   2.532  13.322 -0.2688 -0.4147  0.1544
19240W        W23640  12.450   5.191  21.197  0.1893 -0.0803  0.0024
19241W        W23641   2.007   3.754  29.976 -0.0445  0.0007  0.2033
19242W        W23642   5.246   5.157  26.532 -0.0835 -0.0026 -0.3542
19243W        W23643  14.998   2.896   7.370 -0.2239 -0.1396 -0.2396
19244W        W23644   9.942   3.787  11.591 -0.2781 -0.2338 -0.1149
19245W        W23645  18.667   2.732  32.906 -0.4100  0.3301 -0.0871
19246W        W23646  14.521   5.960  10.645 -0.1619  0.3025 -0.1865
19247W        W23647   7.356   0.476   5.639 -0.2438  0.1255 -0.1437
19248W        W23648  19.817   4.434   1.953  0.0626  0.0417 -0.0682
19249W        W23649  21.243   4.854  25.538 -0.2164 -0.1441  0.1854
19250W        W23650  22.855   0.852   9.819 -0.3118 -0.1442  0.1336
19251W        W23651  13.907   1.948   6.553 -0.1286 -0.0509  0.1363
19252W        W23652  15.490   4.885  29.028 -0.2690 -0.4928  0.1218
19253W        W23653  16.953   5.880  15.013 -0.1982 -0.2779 -0.1538
19254W        W23654  11.262   5.675   4.972 -0.0675  0.2001  0.1454
19255W        W23655   1.023   3.980   1.379 -0.2087 -0.2572  0.0128
19256W        W23656  25.413   4.859  24.875  0.0234  0.0700 -0.0222
19257W        W23657  24.109   6.204  31.847  0.2188  0.2344 -0.2168
19258W        W23658  12.600   0.299  10.182 -0.1364 -0.0480 -0.3203
19259W        W23659  24.175   5.597   0.459  0.1225 -0.1125 -0.1365
19260W        W23660   3.186   0.420  13.979 -0.0666  0.1932  0.0087
19261W        W23661  18.908   1.558  29.481 -0.3509 -0.3026  0.0052
19262W        W23662  21.447   0.612  21.930 -0.1288  0.1642  0.0400
19263W        W23663  18.883   0.193   7.536  0.1372  0.3175 -0.0759
19264W        W23664  18.894   3.518  35.929  0.1661 -0.0825  0.0097
19265W        W23665   4.906   6.455  35.787  0.2166 -0.1806 -0.1483
19266W        W23666   8.263   4.314  35.874  0.1038 -0.1292 -0.0434
19267W        W23667   3.601   6.522   7.905  0.0395 -0.0783 -0.2391
19268W        W23668  17.677   1.679  14.978 -0.1459 -0.3079 -0.0422
19269W        W23669   8.743   3.590  12.247  0.1914 -0.0553  0.2714
19270W        W23670  13.868   0.992  11.870 -0.0670  0.0387  0.1410
19271W        W23671  20.900   2.288   5.493  0.1315  0.3489 -0.1878
19272W        W23672  10.021   2.814   2.152 -0.0341  0.1020 -0.1353
19273W        W23673  21.827   2.774  20.705  0.2941  0.2014 -0.3085
19274W        W23674   7.580   0.526  21.523 -0.2700  0.0499 -0.1374
19275W        W23675  20.540   6.353  35.467  0.1310 -0.1703  0.1434
19276W        W23676   7.789   5.022  25.000  0.1603  0.0539  0.2350
19277W        W23677  23.536   0.378  22.104  0.1470  0.0791  0.0360
19278W        W23678  21.778   1.679  10.714  0.1581 -0.0176  0.0264
19279W        W23679   9.922   3.532   5.513  0.2642  0.2460 -0.2582
19280W        W23680   6.872   4.791  21.645  0.1985 -0.1316 -0.1228
19281W        W23681  18.916   1.047  12.725  0.0111  0.1151  0.0477
19282W        W23682  17.676   1.173   0.677 -0.1876 -0.1616 -0.0803
19283W        W23683  21.424   4.570  34.689  0.0552 -0.1532  0.0032
19284W        W23684   3.248   3.389   3.483  0.1121  0.1506  0.4326
19285W        W23685  19.368   2.385  25.697 -0.4568  0.1268  0.2588
19286W        W23686  15.743   6.562   1.174 -0.0899 -0.0463 -0.2581
19287W        W23687  19.287   6.132  30.324  0.0679 -0.1227 -0.2348
19288W        W23688  20.170   3.685   0.510  0.0489  0.0158  0.1246
19289W        W23689  14.010   0.673  29.863  0.0144 -0.1629 -0.1024
19290W        W23690  10.311   5.053  28.147 -0.2692 -0.0716 -0.0809
19291W        W23691  19.205   5.185   2.291  0.4087  0.0798  0.4298
19292W        W23692  15.472   6.378  31.634 -0.0968 -0.3581 -0.2622
19293W        W23693   8.035   4.443   4.957 -0.0468  0.1205  0.2287
19294W        W23694  15.174   0.770  24.891 -0.4822  0.0876  0.0953
19295W        W23695  10.677   0.716  10.129  0.0392 -0.0213  0.2691
19296W        W23696   7.483   4.703  27.265 -0.1125 -0.5687  0.0459
19297W        W23697  23.468   0.789  33.004 -0.0051 -0.1183 -0.0642
19298W        W23698  12.952   4.786  34.523 -0.1279 -0.0865 -0.3085
19299W        W23699  17.884   5.163   4.299 -0.0850  0.0166  0.3590
19300W        W23700   1.488   4.915   8.823  0.0048  0.1003 -0.2784
19301W        W23701   5.787   1.666   8.736  0.2112  0.0226 -0.0172
19302W        W23702  21.751   3.940  23.771 -0.1499  0.0625 -0.0260
19303W        W23703   7.972   4.467   1.201 -0.1391 -0.1554 -0.0524
19304W        W23704  16.087   6.323   9.030 -0.0746  0.1015 -0.1770
19305W        W23705  16.739   3.222  25.122 -0.1834 -0.0371  0.0985
19306W        W23706   5.804   3.043   9.697 -0.2454 -0.1915 -0.3196
19307W        W23707   5.957   5.910  24.415 -0.0299 -0.0251 -0.1210
19308W        W23708  12.523   2.732   6.943 -0.0073 -0.0817 -0.1921
19309W        W23709  15.616   5.174  22.072 -0.1280  0.0223  0.3238
19310W        W23710   0.184   3.312   5.777 -0.0121 -0.0343 -0.0583
19311W        W23711  23.757   6.332   9.992  0.0430 -0.2129  0.0379
19312W        W23712  18.192   5.894  27.446 -0.1054  0.0210  0.2315
19313W        W23713  24.234   3.899  25.749  0.3186 -0.0974  0.2705
19314W        W23714   8.423   5.747  27.712 -0.1410 -0.0967  0.0339
19315W        W23715   4.236   4.767  14.135  0.1422  0.2356 -0.1068
19316W        W23716  10.889   4.838  21.402  0.0334  0.0184  0.0765
19317W        W23717   2.602   4.290  12.473 -0.0245 -0.0944  0.0316
19318W        W23718   0.363   0.613   1.151 -0.1158 -0.0396  0.2060
19319W        W23719  14.786   3.416   1.559  0.0080  0.3059 -0.1785
19320W        W23720  26.110   1.644   3.099 -0.0790 -0.1900 -0.0657
19321W        W23721  14.203   5.817  28.554  0.1902 -0.2803  0.0757
19322W        W23722   2.260   5.943   1.031  0.0058 -0.1365 -0.2573
19323W        W23723  17.306   0.266  12.312 -0.1902  0.3154  0.1715
19324W        W23724  12.415   0.302   6.120 -0.0436  0.1082 -0.1106
19325W        W23725   7.513   5.031   5.886 -0.0655  0.2917 -0.0939
19326W        W23726  23.315   5.165   4.569  0.1726 -0.0594  0.0532
19327W        W23727  20.143   2.280  11.092 -0.1168 -0.0134 -0.2111
19328W        W23728  22.687   3.919   9.923 -0.3902  0.0801  0.0563
19329W        W23729  15.144   2.660  26.552  0.0337 -0.1959  0.0607
19330W        W23730  11.666   1.953  20.572 -0.2835 -0.1719  0.0073
19331W        W23731   4.827   5.643  11.589  0.3066 -0.5688  0.0209
19332W        W23732   5.022   3.058  27.420 -0.0277 -0.2135 -0.0701
19333W        W23733   7.316   2.731   0.893 -0.1362 -0.0777 -0.1474
19334W        W23734  20.008   2.490  24.499  0.0915  0.0190  0.0786
19335W        W23735   0.382   1.522  22.998 -0.0283  0.1978 -0.1097
19336W        W23736   7.139   5.890  13.922 -0.0835  0.0693  0.3048
19337W        W23737  17.139   4.146  10.937 -0.1110  0.1942 -0.1519
19338W        W23738  11.066   1.147  30.552  0.4143  0.3139  0.1251
19339W        W23739   0.589   5.185  22.208  0.1227  0.0763  0.1055
19340W        W23740  23.921   2.841  27.681  0.2429  0.0949  0.0951
19341W        W23741   9.665   1.027   6.054  0.0149  0.0546 -0.1269
19342W        W23742  26.227   6.277  22.528 -0.2030 -0.1503  0.1175
19343W        W23743   6.554   2.132  29.024 -0.2349  0.1728  0.1814
19344W        W23744   0.181   4.669   3.220 -0.1066  0.2207 -0.0340
19345W        W23745  20.595   5.455  26.092  0.2883  0.1360 -0.3956
19346W        W23746  17.434   4.313   3.871  0.2830  0.2414  0.1591
19347W        W23747  24.300   4.666  34.104 -0.1023 -0.3814  0.1877
19348W        W23748   1.109   5.120  14.496 -0.2559  0.2317 -0.0912
19349W        W23749  15.013   4.176   4.583  0.2079 -0.2183 -0.0253
19350W        W23750   2.261   0.321  22.637 -0.1135  0.1265  0.0976
19351W        W23751  21.140   0.183   0.499  0.0771  0.1860  0.0670
19352W        W23752  21.270   4.857  24.543 -0.3513  0.0121 -0.1889
19353W        W23753  20.278   4.850  25.430  0.2073  0.1518 -0.2372
19354W        W23754   1.523   2.892  34.947  0.0831 -0.1266  0.0250
19355W        W23755  20.481   0.917  24.434 -0.1270  0.1239  0.1625
19356W        W23756  15.960   1.132  11.064 -0.2058  0.1612  0.0084
19357W        W23757  16.245   0.022   2.670  0.0464 -0.0433  0.0196
19358W        W23758   3.604   2.397  15.588  0.0049 -0.4246  0.4286
19359W        W23759  13.964   3.732  32.111 -0.1722 -0.0703 -0.0696
19360W        W23760  18.462   4.213   6.888  0.2529  0.0676 -0.1130
19361W        W23761  10.023   0.836  26.493 -0.0981 -0.3195 -0.2545
19362W        W23762   2.639   6.365  14.718 -0.2244  0.0100 -0.1631
19363W        W23763   2.923   3.217   3.910  0.1885 -0.0388  0.0542
19364W        W23764  10.375   3.617  22.271  0.2219  0.1690  0.1366
19365W        W23765  23.952   5.706  12.704 -0.1859  0.3252 -0.1038
19366W        W23766  23.269   0.139  29.143  0.3162 -0.0091 -0.1401
19367W        W23767  13.372   5.490   1.896 -0.1811  0.1294  0.2936
19368W        W23768  19.106   3.604  30.421 -0.0846  0.3057 -0.1343
19369W        W23769  23.977   5.644  35.149  0.0420 -0.0224  0.2519
19370W        W23770  25.550   6.477  14.395 -0.3680  0.1344 -0.1056
19371W        W23771   9.083   3.434  11.014 -0.2408 -0.0771 -0.3916
19372W        W23772  11.768   0.687  24.370  0.0449 -0.2160  0.1167
19373W        W23773  12.455   2.743  26.016 -0.1022 -0.1719 -0.0987
19374W        W23774  21.445   3.647  28.146  0.1629  0.3576  0.1382
19375W        W23775   5.401   2.860  36.010  0.1405 -0.0697 -0.0916
19376W        W23776  16.739   0.547  34.172  0.3769 -0.2674  0.2690
19377W        W23777  11.292   4.174  32.838  0.1714  0.1545  0.3744
19378W        W23778  24.769   2.010   9.874 -0.0853  0.0547  0.2990
19379W        W23779   3.428   0.919  20.105  0.0450 -0.0459 -0.0168
19380W        W23780  13.658   5.020  28.647  0.0752 -0.0227 -0.0739
19381W        W23781  14.367   0.349  29.578  0.0204 -0.0560  0.0467
19382W        W23782  12.681   1.410   1.506 -0.0584  0.0066 -0.1164
19383W        W23783  13.646   0.237  23.653 -0.2095 -0.0802 -0.4643
19384W        W23784   3.914   4.915   7.031  0.1142 -0.1762 -0.1290
19385W        W23785   4.472   1.021  23.984 -0.2513  0.3583  0.0208
19386W        W23786  25.123   3.081  31.569 -0.0368 -0.1594 -0.0228
19387W        W23787  11.331   2.768  11.820 -0.1380  0.2969 -0.2814
19388W        W23788  15.052   3.335  21.374 -0.0913  0.4539  0.2870
19389W        W23789  24.881   6.453  22.478  0.0337 -0.0122 -0.0205
19390W        W23790  10.972   1.600  15.543 -0.0221 -0.0799 -0.0649
19391W        W23791  22.728   1.817  20.734  0.2775 -0.1713 -0.0112
19392W        W23792  13.904   4.068  11.068  0.2399  0.0908  0.0409
19393W        W23793   9.399   4.257   0.470 -0.0487  0.0072  0.3790
19394W        W23794   5.625   0.547   3.745 -0.2160  0.2159  0.0901
19395W        W23795   6.306   3.456   9.133 -0.2432 -0.1320  0.2877
19396W        W23796  14.471   3.305  34.334  0.1188  0.2664  0.2538
19397W        W23797  13.273   2.551   4.808 -0.0203 -0.0306  0.1416
19398W        W23798  15.564   5.632  12.687  0.0200  0.3666  0.1747
19399W        W23799   3.721   4.133   4.124 -0.2795 -0.2160 -0.0715
19400W        W23800  14.325   1.113  29.694 -0.1753  0.0770  0.0214
19401W        W23801  22.287   2.757   6.102 -0.0720 -0.1922 -0.1781
19402W        W23802   8.198   2.943  12.775  0.1815 -0.0180  0.0794
19403W        W23803  15.942   1.001  12.912 -0.2276  0.0638  0.3872
19404W        W23804   0.690   2.603   7.021  0.3193  0.0438  0.1528
19405W        W23805   0.831   1.302   8.299 -0.3214 -0.1966  0.4705
19406W        W23806  20.264   2.965   4.392  0.3482  0.0768  0.0404
19407W        W23807   7.256   2.658   6.003 -0.1940 -0.2301 -0.1701
19408W        W23808   3.034   1.601  11.422 -0.0016 -0.1904 -0.0848
19409W        W23809  10.520   1.079   9.271  0.0635 -0.0805 -0.0630
19410W        W23810  13.515   5.917  25.660  0.1803  0.0190  0.2646
19411W        W23811  20.856   3.064   0.420 -0.3236  0.1835  0.2644
19412W        W23812  11.148   1.348  34.233  0.0634 -0.0331 -0.1948
19413W        W23813  25.686   0.394   9.851 -0.0262 -0.0683 -0.0405
19414W        W23814  21.023   2.274   4.611 -0.2595 -0.0080  0.0532
19415W        W23815   1.521   2.687   0.315 -0.1013  0.3180  0.1102
19416W        W23816   1.932   5.254  20.876  0.1352 -0.4531 -0.0867
19417W        W23817  22.997   0.203  11.828  0.0285  0.2714  0.0549
19418W        W23818  19.761   0.160  20.877  0.0395  0.2438 -0.1296
19419W        W23819   2.878   4.793   9.073  0.1617 -0.0920  0.0428
19420W        W23820  13.411   5.411  13.929  0.0832  0.1798 -0.0950
19421W        W23821   2.478   4.900   1.301 -0.3251 -0.1510  0.0091
19422W        W23822  14.718   3.856  28.444  0.0642 -0.0123  0.1745
19423W        W23823   0.714   6.022  31.402 -0.0254 -0.0379 -0.2517
19424W        W23824  26.256   6.332  34.094  0.1570 -0.3693  0.3065
19425W        W23825  23.986   5.295  24.272 -0.1353  0.0087 -0.0206
19426W        W23826  13.555   0.116   7.154 -0.1390  0.2317 -0.1732
19427W        W23827  22.483   1.569  24.506  0.1185 -0.1803  0.2081
19428W        W23828  12.911   1.962  22.930  0.0373  0.0461 -0.1976
19429W        W23829  12.732   5.264  31.544 -0.2046 -0.1546  0.1347
19430W        W23830  21.380   6.064   6.139 -0.0487 -0.0062  0.1223
19431W        W23831  25.916   5.240  21.168  0.0577 -0.0215  0.2278
19432W        W23832  13.746   6.110  13.386  0.0968  0.0288 -0.0912
19433W        W23833  15.401   1.396  28.431 -0.1466 -0.0281  0.1174
19434W        W23834   5.758   1.884   6.489 -0.2328 -0.1838 -0.0924
19435W        W23835   3.396   6.075  14.443  0.0569  0.0389 -0.1991
19436W        W23836  12.058   0.534  23.089 -0.0413  0.2445  0.1376
19437W        W23837   4.730   1.472  23.328  0.2444  0.0150 -0.0882
19438W        W23838  14.431   5.494  14.418  0.2921  0.1995 -0.0068
19439W        W23839   3.598   1.689   4.119  0.4169 -0.0840  0.0987
19440W        W23840  13.767   1.084  24.453 -0.0977 -0.0030 -0.3420
19441W        W23841  15.342   5.486  31.150  0.0106 -0.1930  0.0732
19442W        W23842  24.758   6.563  25.326 -0.1181  0.0215  0.3714
19443W        W23843  18.004   0.369  24.581  0.3408  0.1220  0.0231
19444W        W23844   4.091   4.051  32.341  0.0592 -0.0619 -0.1706
19445W        W23845   3.228   3.881  22.266 -0.2751 -0.3231 -0.0220
19446W        W23846  10.086   2.129  11.508  0.1760  0.1789  0.0138
19447W        W23847   6.360   5.743  10.693  0.2363 -0.1124  0.0156
19448W        W23848  10.103   0.006   2.738  0.0484 -0.2353  0.1615
19449W        W23849  23.566   0.378  32.014 -0.1340 -0.0304  0.0271
19450W        W23850  15.846   5.157  28.759  0.1928  0.1313 -0.1366
19451W        W23851  20.033   4.695  15.290  0.2251  0.0372  0.2011
19452W        W23852  10.419   4.270   5.996 -0.1461 -0.0413 -0.1186
19453W        W23853  25.072   5.536   4.173  0.1887  0.2373  0.1810
19454W        W23854  20.958   0.831  22.456  0.1698 -0.0354 -0.1200
19455W        W23855  17.565   5.856  25.321  0.2945  0.1006  0.1624
19456W        W23856  22.260   1.023  10.961 -0.0886 -0.1382 -0.0627
19457W        W23857  16.198   2.324  27.958 -0.3278  0.1123  0.1847
19458W        W23858  16.762   5.395  21.871  0.1916  0.1740 -0.3163
19459W        W23859  14.133   2.922  35.767  0.0061  0.1550  0.2697
19460W        W23860  22.743   0.319  33.721 -0.1382  0.2004  0.0945
19461W        W23861   9.407   0.162   6.498 -0.0886 -0.2544 -0.2208
19462W        W23862  14.544   1.719  29.475 -0.2883  0.0460 -0.0291
19463W        W23863  15.518   0.406  12.258  0.1998  0.0244 -0.1358
19464W        W23864   3.642   1.700  32.460  0.0866  0.1452 -0.0078
19465W        W23865   5.029   0.128  32.167 -0.1645  0.1195 -0.0961
19466W        W23866   4.274   3.491  24.947 -0.2293  0.4162 -0.0228
19467W        W23867  13.030   2.745  23.591  0.3141  0.0540  0.2294
19468W        W23868  18.663   2.743  29.709 -0.1585  0.2237 -0.0853
19469W        W23869  20.918   3.518   2.168 -0.1751  0.0727  0.0746
19470W        W23870  26.061   6.101  24.812  0.1192 -0.0776 -0.3891
19471W        W23871   6.308   0.435  15.180 -0.0934 -0.3582  0.3010
19472W        W23872   7.385   5.055  31.468  0.0394  0.0991 -0.0521
19473W        W23873  16.314   5.637   9.652  0.1406 -0.3126  0.2320
19474W        W23874   1.453   2.846   5.990  0.1974 -0.0298  0.1103
19475W        W23875  25.109   1.673  11.363 -0.2244 -0.0600 -0.0172
19476W        W23876   6.911   3.750  10.214  0.1158 -0.3075  0.0640
19477W        W23877  19.983   1.518  30.645 -0.1911  0.1240 -0.1981
19478W        W23878  19.103   6.395   9.529  0.0834  0.0578  0.0880
19479W        W23879  20.016   1.544   8.514  0.0730  0.1615  0.2274
19480W        W23880   7.905   4.040  24.465 -0.0494  0.0567  0.2827
19481W        W23881  10.675   6.460  35.418  0.3472  0.0939  0.0429
19482W        W23882  13.216   3.613   1.529 -0.1492  0.2472  0.1080
19483W        W23883  23.887   3.584  10.691 -0.0646  0.1699  0.1213
19484W        W23884  19.009   4.154  21.160 -0.1736  0.0776 -0.1735
19485W        W23885  20.304   5.359  24.632 -0.1432 -0.0500  0.0317
19486W        W23886   7.108   1.682  27.818  0.0618  0.1005  0.0847
19487W        W23887   3.464   1.758  12.936 -0.3682  0.0392 -0.0209
19488W        W23888  17.676   4.299  13.142 -0.2201  0.2698  0.0884
19489W        W23889  18.334   1.817  34.894 -0.0643 -0.4392 -0.1583
19490W        W23890  11.051   2.409  34.296  0.3332  0.0406  0.1896
19491W        W23891  21.076   5.948   3.638  0.2242 -0.1551 -0.1760
19492W        W23892  21.159   2.347  34.789  0.2704  0.3139 -0.0418
19493W        W23893  18.027   1.383  23.560 -0.1169  0.0801  0.3563
19494W        W23894  14.668   3.533   6.973  0.1675  0.0268  0.1259
19495W        W23895   1.446   1.384  29.734 -0.1318  0.0809  0.1576
19496W        W23896  21.436   3.648   1.191  0.0785 -0.1762 -0.0519
19497W        W23897  10.187   5.592   1.623  0.0315 -0.2422  0.1107
19498W        W23898  10.544   3.826   0.257 -0.1304  0.1653 -0.0000
19499W        W23899   1.595   5.261  22.622  0.0176  0.0836  0.1250
19500W        W23900   8.833   5.412  15.139  0.0158  0.0799  0.1077
19501W        W23901  25.097   2.743  15.244 -0.2163  0.0888 -0.0545
19502W        W23902  16.901   3.079  26.012 -0.1470  0.2533  0.0834
19503W        W23903  20.657   1.785   3.582  0.0576  0.2256 -0.3854
19504W        W23904   9.045   0.734  11.702  0.1204  0.0854  0.1307
19505W        W23905  15.878   0.473  13.920  0.2668  0.0861 -0.2462
19506W        W23906  12.605   0.519  12.958  0.4115  0.1001 -0.0151
19507W        W23907   2.253   2.133  31.027 -0.0587 -0.1082  0.1796
19508W        W23908  25.363   5.307  24.579  0.1643 -0.1997 -0.2311
19509W        W23909  15.367   1.463  29.913  0.0146  0.0393 -0.1780
19510W        W23910   1.895   0.646  29.187  0.2530  0.1827 -0.0967
19511W        W23911  13.151   5.357   5.388 -0.0282 -0.0263 -0.0652
19512W        W23912   5.710   2.803  24.617 -0.0493  0.0941 -0.1935
19513W        W23913  25.752   1.377   4.166 -0.1228  0.1948 -0.1914
19514W        W23914  24.469   6.144  32.654  0.0434  0.1777 -0.2283
19515W        W23915  17.493   1.268  21.262 -0.0692 -0.1798  0.0998
19516W        W23916   4.289   6.456  27.181  0.1345 -0.0277 -0.0497
19517W        W23917  23.748   4.831  33.683  0.1894  0.0432 -0.1517
19518W        W23918  21.578   6.130  30.461 -0.1223 -0.1428  0.0297
19519W        W23919   7.889   6.407  24.563  0.1529  0.2091 -0.0532
19520W        W23920  18.475   5.932   0.161 -0.0246  0.0715  0.1271
19521W        W23921  13.812   0.574  26.263  0.0917 -0.2412  0.0362
19522W        W23922   3.459   2.138   1.527 -0.1894 -0.1478 -0.2566
19523W        W23923  25.400   0.959  26.757 -0.1826 -0.0998  0.1635
19524W        W23924  18.390   2.594   1.935  0.1330 -0.0839 -0.2410
19525W        W23925  10.940   0.070  11.095 -0.1918 -0.0683 -0.0011
19526W        W23926  19.991   4.966  35.903  0.0870 -0.1978  0.0388
19527W        W23927  25.247   5.575  14.417  0.0290 -0.1786 -0.0683
19528W        W23928   9.011   5.135   0.881 -0.0118  0.0748  0.0410
19529W        W23929  20.400   2.959  29.889 -0.1689 -0.0616  0.0244
19530W        W23930   8.383   1.632  27.683  0.0237  0.0710  0.2117
19531W        W23931  13.179   5.952   3.966  0.1203  0.0544 -0.2848
19532W        W23932  18.425   4.671  29.419  0.1608  0.1213 -0.2395
19533W        W23933   8.677   0.331  25.499  0.0326 -0.3503  0.6885
19534W        W23934   6.108   2.775   4.445  0.0743  0.1004 -0.0091
19535W        W23935  19.012   4.253   2.755 -0.4187 -0.0230 -0.0780
19536W        W23936  11.665   0.231  11.534  0.1476 -0.0609  0.1508
19537W        W23937   1.819   4.653  33.042  0.0270  0.1480  0.2044
19538W        W23938  10.472   3.190  26.699  0.2547 -0.2020 -0.0552
19539W        W23939  18.398   3.981  25.463 -0.1064  0.0286  0.0847
19540W        W23940  26.316   2.723  22.747 -0.2983  0.2405  0.1423
19541W        W23941  20.110   1.107  14.824  0.2614  0.0163 -0.2729
19542W        W23942  21.593   4.646   0.128  0.2403 -0.0701  0.0230
19543W        W23943  15.760   3.031  25.222  0.1057  0.0727 -0.1754
19544W        W23944  12.580   0.096  31.692  0.1780  0.1405  0.1594
19545W        W23945   3.365   5.691   6.899 -0.1083 -0.1617 -0.0083
19546W        W23946   2.592   4.050  27.312 -0.1598  0.3518 -0.0108
19547W        W23947   5.907   3.596  21.518 -0.1693  0.0205  0.3257
19548W        W23948  10.963   0.919   7.666  0.0032 -0.5504 -0.0017
19549W        W23949   0.267   6.383   3.052  0.1140  0.0380  0.2216
19550W        W23950  10.626   0.220  33.035 -0.4850 -0.0822 -0.0356
19551W        W23951  16.401   2.466   5.512  0.3695  0.1567 -0.0275
19552W        W23952   7.097   4.766   3.486  0.1475 -0.1182  0.1672
19553W        W23953  22.139   6.325  28.870  0.3420  0.0798 -0.0469
19554W        W23954  23.051   6.006  12.452  0.0424  0.1403  0.1691
19555W        W23955   1.605   1.202   8.869  0.1332  0.2383 -0.4373
19556W        W23956   9.806   4.096  25.294  0.1906 -0.0014 -0.0235
19557W        W23957   8.147   4.169  24.964  0.0548 -0.0503 -0.1070
19558W        W23958  14.887   4.382  24.250 -0.2848  0.1225 -0.3075
19559W        W23959   6.107   5.872  21.684  0.0241  0.1973 -0.1021
19560W        W23960   2.297   5.615  34.001  0.0147 -0.1468  0.0723
19561W        W23961   7.518   5.888  29.757 -0.0542  0.2457  0.0726
19562W        W23962   4.415   3.023   9.728 -0.0589  0.1235  0.4226
19563W        W23963   8.779   1.668   6.765 -0.2799 -0.2608 -0.4114
19564W        W23964  23.778   0.963   2.760  0.0559 -0.2215  0.5807
19565W        W23965   0.798   1.004  33.023  0.0737  0.2897  0.0211
19566W        W23966  18.499   6.044  11.165  0.0506 -0.1777 -0.1515
19567W        W23967  20.365   2.188  32.174 -0.0433  0.2660 -0.4312
19568W        W23968   7.878   3.870  35.749 -0.0726  0.2883  0.0236
19569W        W23969  15.264   4.126   3.536  0.0236  0.2327  0.0587
19570W        W23970  18.410   0.679   1.851 -0.0472  0.1832  0.0743
19571W        W23971   5.165   4.067  33.065 -0.2170  0.0033 -0.0585
19572W        W23972   9.407   2.036  36.032 -0.1785  0.1596 -0.4392
19573W        W23973  19.244   5.102  12.111 -0.4698  0.2509 -0.0557
19574W        W23974   3.133   0.673  21.001 -0.1112 -0.2417 -0.0818
19575W        W23975  11.812   3.062  24.323  0.0189  0.0137 -0.2131
19576W        W23976  25.007   2.146   7.717  0.2638 -0.0584  0.1304
19577W        W23977  17.002   3.154  14.500  0.0986 -0.4644  0.2412
19578W        W23978   1.908   4.819  34.520 -0.1645 -0.0024  0.3538
19579W        W23979   1.162   1.437  35.448  0.0869  0.3890 -0.2121
19580W        W23980  12.962   0.669   0.608  0.1946  0.3878  0.0013
19581W        W23981   6.476   4.986   4.784 -0.2014  0.3381  0.2650
19582W        W23982  14.694   3.628  12.493  0.0686  0.1922 -0.1101
19583W        W23983  21.818   4.256  29.494 -0.0105  0.2284 -0.1668
19584W        W23984   5.381   3.553   7.665 -0.0505 -0.2052  0.2992
19585W        W23985  13.250   0.869   3.493 -0.2436 -0.0510  0.1751
19586W        W23986   3.471   2.147   8.966 -0.0359 -0.0158 -0.2388
19587W        W23987  14.030   2.549  27.331 -0.3327  0.2115 -0.0969
19588W        W23988  10.001   6.409   1.046  0.0746  0.1574 -0.0676
19589W        W23989   1.205   3.387  21.685 -0.2125  0.0197 -0.2676
19590W        W23990   4.477   1.440  32.585 -0.1294  0.0690 -0.0059
19591W        W23991  12.976   0.816  15.444  0.0360 -0.0318  0.0410
19592W        W23992  19.174   0.369   7.110  0.1375  0.3532 -0.0567
19593W        W23993  11.595   2.695   7.392 -0.1466  0.0384  0.1546
19594W        W23994   1.235   3.544   5.338 -0.0994  0.1065  0.0118
19595W        W23995   5.723   0.521   1.840 -0.1626  0.2061 -0.0178
19596W        W23996  10.149   5.905   2.052  0.1418 -0.3308 -0.2517
19597W        W23997   1.794   4.693   7.658 -0.2092  0.4001  0.0820
19598W        W23998  21.614   0.952   9.758 -0.0437  0.3010  0.1309
19599W        W23999  25.763   3.373  11.619 -0.0932  0.1817  0.1280
19600W        W24000  21.666   1.343   2.382 -0.2395 -0.0984 -0.1463
19601W        W24001  14.050   2.715  33.834 -0.3079 -0.0004 -0.2636
19602W        W24002  25.792   1.046  11.622  0.0098 -0.1548  0.0492
19603W        W24003  14.149   6.052  24.144 -0.0027  0.0919  0.1120
19604W        W24004  23.033   3.868   8.090 -0.2281 -0.0676 -0.0748
19605W        W24005  10.473   0.272  24.108 -0.1678  0.2272 -0.0461
19606W        W24006  26.081   2.486   4.760 -0.1252  0.0291  0.1897
19607W        W24007  23.868   4.066  28.632 -0.1715 -0.1927  0.0656
19608W        W24008   2.564   5.053  22.651 -0.1012 -0.2393 -0.2269
19609W        W24009   6.183   5.231   8.233  0.3116 -0.0678  0.1531
19610W        W24010   5.713   3.594  27.601 -0.0535 -0.1306 -0.1792
19611W        W24011  25.883   0.781  20.908  0.2433  0.0223  0.1288
19612W        W24012  23.821   4.160  31.646 -0.0848  0.0072  0.2072
19613W        W24013  25.261   5.989  28.993 -0.0997  0.2508  0.2919
19614W        W24014   7.494   6.008   9.655 -0.2607  0.1578 -0.0155
19615W        W24015   9.625   5.581   5.910  0.1031 -0.0383 -0.1819
19616W        W24016  17.639   3.155   4.706  0.2886  0.0412 -0.0975
19617W        W24017   0.764   1.492  29.062 -0.0801 -0.1372  0.4044
19618W        W24018   7.822   6.450   9.843 -0.2779 -0.2450 -0.0028
19619W        W24019   4.671   4.074   5.962  0.0655  0.3086  0.1638
19620W        W24020   0.802   5.525   1.525  0.2919  0.2139  0.0063
19621W        W24021   5.508   5.984  26.985  0.1578  0.2525  0.1872
19622W        W24022  15.382   1.639  10.513 -0.1516  0.3159  0.1477
19623W        W24023  17.458   3.806  13.740  0.0820 -0.1208  0.0309
19624W        W24024   3.941   3.079  24.032  0.0354 -0.2049  0.2046
19625W        W24025   4.190   0.644  23.799  0.0679 -0.1254  0.0044
19626W        W24026  13.328   1.796   9.535 -0.0176 -0.0587  0.1687
19627W        W24027  25.513   2.665  12.626 -0.0055 -0.2609  0.2064
19628W        W24028  12.613   6.369   3.654  0.1493  0.1489 -0.0353
19629W        W24029  17.005   3.742   8.193  0.0624 -0.0892 -0.2557
19630W        W24030  22.163   2.172  30.667 -0.0427 -0.0373 -0.1966
19631W        W24031  26.051   2.915   2.307 -0.2408  0.0657  0.2571
19632W        W24032  14.885   2.649   6.487  0.1968 -0.0554 -0.2305
19633W        W24033  12.312   3.727   6.377  0.1413 -0.3240  0.4588
19634W        W24034  20.034   5.168  15.042 -0.2066 -0.0613  0.1538
19635W        W24035   7.280   0.064  22.526 -0.2241  0.0048 -0.1092
19636W        W24036   5.868   3.314   1.833  0.0562 -0.0989  0.1450
19637W        W24037  24.168   2.318  10.749  0.2734 -0.0716  0.1179
19638W        W24038  24.196   3.133   2.326 -0.3708 -0.0925  0.3310
19639W        W24039   8.670   0.524  33.997  0.1007  0.1061  0.1953
19640W        W24040  20.698   5.074   8.459 -0.2824  0.0776  0.2421
19641W        W24041   4.050   0.796  31.655  0.0096  0.1094 -0.0397
19642W        W24042  14.931   2.967  26.133 -0.2712  0.1249  0.1574
19643W        W24043   3.514   4.479  28.996  0.0280  0.1143  0.0400
19644W        W24044  26.191   0.905   1.235 -0.2717  0.1370  0.2121
19645W        W24045  16.049   1.606  22.307  0.0344  0.1996  0.0696
19646W        W24046   7.090   3.291  33.714  0.2773  0.0172 -0.0887
19647W        W24047   5.626   3.831  28.208  0.1051  0.6573  0.0153
19648W        W24048  11.885   6.394  21.371 -0.0260  0.4003 -0.1186
19649W        W24049   9.851   2.289  31.895 -0.1142 -0.5153 -0.1819
19650W        W24050   3.881   4.278  25.947 -0.0987 -0.1733  0.0733
19651W        W24051  22.014   5.258  10.404  0.2912  0.1338 -0.0421
19652W        W24052   6.223   1.197  15.513 -0.1001 -0.0213  0.4800
19653W        W24053  14.024   4.496   3.499 -0.0225  0.1583  0.2598
19654W        W24054   5.659   1.280  30.445  0.0153 -0.0133  0.1173
19655W        W24055   2.884   0.440   0.336  0.2295  0.1855  0.0509
19656W        W24056  17.876   1.385   5.043 -0.2775  0.4035 -0.4163
19657W        W24057   6.670   3.977  29.846 -0.1212 -0.1647 -0.0705
19658W        W24058  25.855   6.298  21.683  0.1963 -0.0650 -0.0596
19659W        W24059  11.847   3.561  13.021 -0.0827  0.0860  0.2643
19660W        W24060  18.896   3.171  34.630 -0.0244  0.0121  0.1939
19661W        W24061   4.553   5.798  28.188 -0.2762 -0.0380 -0.1017
19662W        W24062  25.506   3.354  21.777 -0.1305  0.2099  0.0109
19663W        W24063   3.542   3.239  25.900  0.0817 -0.2225  0.4167
19664W        W24064  24.547   0.526   6.821 -0.0488 -0.2629 -0.2420
19665W        W24065  15.989   1.031   9.141 -0.0536  0.0884  0.1141
19666W        W24066  10.438   1.902  35.928  0.0879 -0.0895  0.1110
19667W        W24067  13.370   1.005   4.452  0.0937  0.0217 -0.2524
19668W        W24068   8.300   0.786  12.485  0.2844 -0.1103  0.2492
19669W        W24069  22.783   2.691  22.881  0.1002 -0.3398  0.1026
19670W        W24070  17.048   6.154  25.289  0.2753  0.2038  0.1620
19671W        W24071   9.730   6.526  33.568  0.2207  0.2627  0.1404
19672W        W24072  12.781   5.395   0.335  0.0956  0.2943 -0.1647
19673W        W24073  15.865   4.823  13.985  0.6624  0.4872  0.0693
19674W        W24074  25.724   5.863  31.788  0.3297 -0.2062  0.1305
19675W        W24075   7.461   0.225  35.984 -0.0786  0.0978  0.3191
19676W        W24076  16.924   6.302  21.881 -0.4531 -0.2597 -0.0864
19677W        W24077  12.275   0.277  31.267  0.2402  0.1525  0.0250
19678W        W24078   1.174   4.186  28.959 -0.0115 -0.1808  0.0911
19679W        W24079   3.136   4.373  24.971  0.0265  0.2675  0.0813
19680W        W24080  10.865   1.688  35.066  0.1101 -0.1434 -0.1185
19681W        W24081  12.431   3.904   9.037  0.0227 -0.0804 -0.1118
19682W        W24082  25.386   3.272   1.723 -0.0309 -0.2489 -0.1405
19683W        W24083   3.656   4.951   9.757  0.0813 -0.0075 -0.0682
19684W        W24084  23.844   5.922  10.330  0.1321 -0.2254  0.0019
19685W        W24085   9.062   4.249  15.247 -0.0042  0.0130  0.2969
19686W        W24086  17.926   1.600  27.027 -0.0151  0.1608  0.1734
19687W        W24087  15.278   1.941  35.429 -0.2309 -0.1449 -0.0132
19688W        W24088   8.520   5.332  11.177 -0.0545  0.2935  0.0209
19689W        W24089  12.336   4.626  14.487  0.0272 -0.0208 -0.1443
19690W        W24090  10.253   0.243  21.414  0.1683 -0.0622  0.2102
19691W        W24091  20.375   0.447  25.497 -0.3239 -0.0368 -0.2041
19692W        W24092   4.023   4.447  25.360 -0.1019  0.1630  0.2182
19693W        W24093  24.843   0.597   5.461  0.0528  0.2905 -0.0172
19694W        W24094  21.146   3.551  14.916  0.2328  0.1132 -0.0466
19695W        W24095  26.022   1.470  34.531 -0.0822  0.0761 -0.1802
19696W        W24096   6.026   3.414  24.586  0.0075  0.1523  0.1349
19697W        W24097  14.195   2.263  20.928  0.0682 -0.3121  0.1017
19698W        W24098   8.078   1.456  33.257 -0.2134  0.1950 -0.1221
19699W        W24099   0.400   2.192   3.365 -0.0193  0.1995 -0.0455
19700W        W24100  19.638   3.538  14.389  0.0053  0.1215  0.0632
19701W        W24101   2.960   2.885   1.394 -0.3087  0.2193 -0.2803
19702W        W24102   8.414   3.552  25.488  0.2139 -0.1873  0.0742
19703W        W24103   3.626   0.177  13.980 -0.0970 -0.2766 -0.0497
19704W        W24104  16.927   1.568  21.936  0.1850  0.3076  0.2709
19705W        W24105  23.477   2.447  30.408 -0.1480  0.0794  0.2951
19706W        W24106  19.976   4.188   1.203  0.1134  0.0687 -0.0569
19707W        W24107  18.416   1.267  30.641  0.0364 -0.0114 -0.2818
19708W        W24108  15.965   1.757  11.051  0.1889  0.0470  0.2591
19709W        W24109  23.765   2.560   8.485 -0.0504 -0.2421 -0.0088
19710W        W24110  17.647   2.204  35.773 -0.3586 -0.2346  0.1822
19711W        W24111  12.656   3.748  11.721  0.1328  0.3271 -0.0653
19712W        W24112   6.266   3.435  15.303  0.0525  0.3924  0.0129
19713W        W24113   2.334   4.553  22.756  0.0027  0.0550  0.0839
19714W        W24114  13.760   1.035  23.609 -0.3892 -0.0748  0.3557
19715W        W24115  11.818   0.810  21.384  0.1619 -0.3156 -0.0903
19716W        W24116   5.473   2.505  35.587 -0.0314  0.0903  0.3533
19717W        W24117  17.392   5.989  12.586 -0.1531 -0.1365  0.0308
19718W        W24118  22.326   2.306   1.528  0.3952 -0.2520  0.0523
19719W        W24119   4.358   0.948  34.882  0.0641  0.0385  0.0343
19720W        W24120  19.428   0.505  28.028  0.1977 -0.1682  0.0302
19721W        W24121  25.550   2.723  35.445 -0.1167  0.0506 -0.1812
19722W        W24122  18.669   0.903  21.279  0.0197 -0.1338  0.3434
19723W        W24123  23.330   1.869  14.349  0.0053  0.0008  0.4901
19724W        W24124  15.153   1.840   0.187  0.0410  0.1361  0.1014
19725W        W24125  11.588   2.141  22.761 -0.2644  0.1386 -0.0210
19726W        W24126   9.559   6.497  11.430  0.3204  0.0337 -0.5183
19727W        W24127   2.736   5.416  13.349 -0.4187 -0.0195  0.0064
19728W        W24128  17.065   5.613  12.851  0.0397 -0.0352 -0.0542
19729W        W24129   9.064   5.367  29.582 -0.0296  0.0030 -0.3636
19730W        W24130   8.210   3.587  29.900 -0.1127 -0.1859  0.1861
19731W        W24131  25.238   3.261  25.818 -0.2861  0.1689  0.0473
19732W        W24132  26.379   0.836   7.414 -0.0456 -0.1354 -0.3055
19733W        W24133   7.711   2.030  35.725 -0.0794  0.3535  0.1114
19734W        W24134  21.933   4.550   1.628 -0.0217 -0.1096  0.2761
19735W        W24135   4.411   2.319  35.930  0.0481 -0.3221  0.3324
19736W        W24136  10.071   5.469   7.835  0.2465 -0.2192 -0.0500
19737W        W24137   6.571   5.473   2.708 -0.0505 -0.0142  0.1587
19738W        W24138  22.685   1.082  34.603 -0.2631 -0.0599  0.1692
19739W        W24139  16.268   1.149  35.200 -0.0872 -0.0021 -0.0452
19740W        W24140   2.588   3.427   8.562 -0.0933 -0.2445 -0.0491
19741W        W24141  18.854   4.405  32.304  0.1254  0.0166 -0.1342
19742W        W24142   9.312   4.811  25.784  0.2843  0.1055  0.1010
19743W        W24143  13.985   2.859  24.151  0.0437 -0.2635  0.1734
19744W        W24144   9.194   2.883  31.481 -0.0005  0.2563  0.0791
19745W        W24145  16.843   3.031  12.522  0.0415 -0.2454  0.1105
19746W        W24146  21.221   0.024   6.279 -0.1906  0.3423 -0.2679
19747W        W24147   5.678   1.682  30.155  0.0585  0.0502 -0.0975
19748W        W24148  13.589   5.716  30.322 -0.1269 -0.1781 -0.0978
19749W        W24149   2.152   5.216  33.689  0.0619 -0.0833  0.1109
19750W        W24150  17.400   1.946  21.934  0.0868  0.0325  0.0018
19751W        W24151  23.287   1.414   5.176  0.3270  0.0580 -0.0524
19752W        W24152  11.165   5.312   0.433  0.2497 -0.0175 -0.2054
19753W        W24153  11.497   0.849   5.198 -0.0503  0.1152 -0.1997
19754W        W24154   3.534   3.918   9.983 -0.2475 -0.0391  0.0382
19755W        W24155  24.892   0.330  25.747  0.1598  0.0743 -0.1681
19756W        W24156  18.751   2.086   0.478 -0.3367  0.3217  0.0941
19757W        W24157  22.039   4.041   0.690 -0.1279  0.4015  0.1382
19758W        W24158  16.114   5.462  29.076  0.2197 -0.1046  0.1402
19759W        W24159   8.765   4.806  26.022 -0.3622 -0.1018 -0.0211
19760W        W24160   7.461   2.023  35.043 -0.2331 -0.0768 -0.1394
19761W        W24161   9.770   1.493  23.007  0.0102  0.0979  0.0892
19762W        W24162  18.329   4.031  10.975 -0.0806  0.1262  0.0201
19763W        W24163   1.988   6.175  35.876 -0.0287 -0.1717 -0.0506
19764W        W24164  12.683   6.193  12.646  0.1140  0.2282 -0.1225
19765W        W24165   5.157   4.804   9.509  0.1466  0.1854 -0.0683
19766W        W24166  19.743   6.180  11.235 -0.3868  0.0298 -0.0227
19767W        W24167  18.693   5.543   4.978  0.0000 -0.0293  0.2308
19768W        W24168   8.097   3.935  25.420 -0.2384 -0.2167  0.3353
19769W        W24169   0.372   1.229   3.627  0.0096  0.0130 -0.0330
19770W        W24170  16.975   1.975  22.921  0.4022  0.0717 -0.0821
19771W        W24171  13.429   4.447   0.007  0.0282  0.0131  0.1020
19772W        W24172  19.794   4.488  23.797 -0.1857 -0.0959  0.2120
19773W        W24173  24.231   2.891  10.089 -0.0091  0.0385 -0.1404
19774W        W24174  17.348   3.497  14.660  0.0335  0.0274  0.2922
19775W        W24175  26.303   5.810   4.109 -0.2954 -0.0859  0.2753
19776W        W24176   5.739   4.095   0.209  0.2033  0.2188 -0.0700
19777W        W24177  12.318   0.201   2.783  0.0678 -0.1712  0.1008
19778W        W24178  13.033   4.392   6.953 -0.0745  0.1856  0.0424
19779W        W24179  18.707   3.553  21.952  0.2734 -0.0108 -0.2282
19780W        W24180   0.965   2.890   0.543  0.0236 -0.0548  0.2825
19781W        W24181  18.860   4.029  22.986 -0.2056  0.3528 -0.2231
19782W        W24182  19.716   3.965  34.192  0.0314  0.1395  0.1288
19783W        W24183  10.887   4.251  31.837 -0.0300 -0.2464 -0.0291
19784W        W24184   6.772   0.022  33.287  0.1150 -0.2754  0.1102
19785W        W24185  10.635   6.045   6.195  0.0043  0.0900 -0.2300
19786W        W24186  10.518   2.073  21.318 -0.2433 -0.0413 -0.1619
19787W        W24187  25.890   4.975  32.526  0.1329 -0.1371  0.0691
19788W        W24188  21.498   1.358   3.608  0.1670 -0.2934  0.1484
19789W        W24189  17.540   0.308  33.036  0.1362  0.0399  0.0731
19790W        W24190   6.711   1.250   4.163  0.0359 -0.1354  0.0798
19791W        W24191  13.925   1.260   1.881  0.3103  0.1039  0.0424
19792W        W24192  19.164   5.283  21.774 -0.1550 -0.0581 -0.1074
19793W        W24193   1.386   3.803  32.430  0.1015 -0.2064 -0.0120
19794W        W24194   0.737   5.479  28.759  0.0348  0.0580 -0.2146
19795W        W24195  12.345   5.307  28.424  0.2412 -0.0474 -0.1438
19796W        W24196   6.820   0.946  35.425 -0.2985  0.2324 -0.0445
19797W        W24197  16.326   3.684  31.365  0.0042  0.2121 -0.0234
19798W        W24198   9.900   0.346   8.416  0.3974 -0.0609  0.0496
19799W        W24199  19.254   1.194   4.594  0.2383 -0.2365 -0.1524
19800W        W24200   3.380   3.090  14.868  0.0810 -0.1677  0.3344
19801W        W24201   8.389   4.771  30.145 -0.2932 -0.0587 -0.3599
19802W        W24202  23.253   6.150   9.247  0.2743 -0.5427  0.1523
19803W        W24203   0.076   4.360   0.640  0.2443  0.3588  0.1945
19804W        W24204   7.206   2.898   3.301  0.1917 -0.1929  0.0159
19805W        W24205   2.403   6.240  22.026  0.2845 -0.1856  0.2754
19806W        W24206   2.644   2.869  21.046  0.0088  0.0740 -0.0606
19807W        W24207   9.761   1.233   7.359 -0.2929 -0.0230 -0.0713
19808W        W24208  24.168   3.255   1.184  0.0572 -0.0063  0.2378
19809W        W24209  19.741   4.594   5.424 -0.2774 -0.1231 -0.1434
19810W        W24210   4.185   4.299   7.576  0.0427  0.0828  0.2292
19811W        W24211  18.807   5.956   0.597  0.0173 -0.0121 -0.0696
19812W        W24212  14.054   5.282  10.051 -0.0075  0.1469 -0.0170
19813W        W24213  18.295   5.985   5.631  0.0896 -0.1229  0.2506
19814W        W24214  21.142   0.412   5.295  0.1936  0.0896  0.0086
19815W        W24215  15.612   2.391   7.062  0.1527 -0.4190 -0.1835
19816W        W24216   7.589   1.868   2.287  0.1057  0.0907  0.0493
19817W        W24217  16.005   3.293  27.027 -0.0051 -0.2434  0.0480
19818W        W24218  14.410   5.855   9.016  0.0817  0.2379  0.5016
19819W        W24219  17.871   5.655   2.176 -0.0605 -0.2723  0.1428
19820W        W24220  14.926   0.282  11.149  0.1575 -0.2709  0.1429
19821W        W24221   7.300   4.151   0.071  0.3827  0.0377  0.4233
19822W        W24222   0.489   5.871  21.295  0.1133 -0.1384  0.4217
19823W        W24223  15.027   5.126  26.538 -0.0075 -0.2044 -0.1004
19824W        W24224  13.521   5.192   4.590 -0.1428 -0.3438 -0.2605
19825W        W24225  18.269   6.401  25.935 -0.2185  0.0667  0.0307
19826W        W24226   9.519   5.135   3.108  0.1726 -0.1163  0.1606
19827W        W24227  19.478   2.497   7.591  0.0785  0.2118 -0.0023
19828W        W24228   9.005   5.943  28.410  0.0837  0.0950 -0.1311
19829W        W24229  18.700   4.258  24.268 -0.0676  0.1077  0.0341
19830W        W24230   8.754   0.915  32.230  0.0494 -0.1580  0.2612
19831W        W24231   3.063   2.990  32.737  0.1543  0.3963  0.2481
19832W        W24232   8.108   2.027  31.294  0.0282 -0.0122 -0.0606
19833W        W24233  10.391   3.327  25.926  0.4097  0.1200 -0.2946
19834W        W24234   9.152   2.339  15.301 -0.0326 -0.3030  0.1394
19835W        W24235  19.290   3.930   5.195  0.0070 -0.2064  0.1581
19836W        W24236  24.788   5.016   7.345  0.1188 -0.2198  0.3231
19837W        W24237   1.687   0.549  33.950  0.5549  0.1720  0.3330
19838W        W24238  21.464   2.184  23.771  0.4191  0.0369 -0.0969
19839W        W24239  20.348   5.845  30.219  0.1928  0.0777  0.1025
19840W        W24240   2.215   6.296  27.411  0.1423 -0.0094 -0.1577
19841W        W24241   6.638   3.287  10.536  0.1285 -0.1517 -0.1256
19842W        W24242  20.484   5.779  25.630  0.0150  0.0360 -0.0472
19843W        W24243  16.422   0.505  20.695 -0.2170 -0.1399  0.1218
19844W        W24244   7.083   2.496  10.927  0.0734  0.0733  0.0231
19845W        W24245   7.301   2.742  22.509  0.2568  0.2103  0.2293
19846W        W24246  11.798   5.253  33.388  0.1499 -0.2469 -0.0080
19847W        W24247  26.090   3.762  27.885  0.0145  0.0558 -0.0936
19848W        W24248  18.224   0.854  30.289 -0.2789 -0.0480 -0.0015
19849W        W24249  24.764   6.271  33.475  0.2469 -0.1150  0.1336
19850W        W24250  20.389   3.935  27.834 -0.1519 -0.0146 -0.0094
19851W        W24251  13.093   2.130  24.792  0.0735 -0.2227  0.2043
19852W        W24252  18.796   6.516  29.487  0.0611 -0.1430  0.0781
19853W        W24253   9.314   2.477   4.438  0.3226 -0.2437 -0.1923
19854W        W24254  10.697   5.900   2.925 -0.0122  0.0195 -0.2714
19855W        W24255  14.407   5.513  25.292  0.2828  0.3526 -0.2475
19856W        W24256  18.646   6.578   9.398 -0.2300  0.1320 -0.0365
19857W        W24257  16.594   3.236  15.574  0.1557  0.1131 -0.0947
19858W        W24258   0.241   3.634  28.250 -0.0338 -0.0223 -0.2376
19859W        W24259   9.697   3.675  29.938 -0.1429 -0.3991  0.2308
19860W        W24260  12.696   0.490   6.522  0.1534 -0.1307  0.0281
19861W        W24261   6.497   6.536   7.142 -0.0817  0.1106  0.0747
19862W        W24262  22.672   1.681  33.490  0.0073 -0.0758 -0.2862
19863W        W24263   0.660   4.527  33.788  0.0347 -0.1275  0.0313
19864W        W24264  16.468   4.990   7.022  0.1237 -0.0443  0.0592
19865W        W24265  25.508   3.648  33.229 -0.2616  0.0445  0.2597
19866W        W24266  20.971   5.574  22.568  0.0751  0.5204 -0.0014
19867W        W24267  21.977   1.284   4.399  0.1576 -0.1355 -0.1842
19868W        W24268   0.912   4.421   4.457  0.0866  0.0559  0.1944
19869W        W24269  15.861   1.770  14.562  0.0335 -0.2366  0.1269
19870W        W24270   1.729   0.108  35.871  0.1321 -0.1592  0.2566
19871W        W24271  14.713   4.839  14.844  0.2044 -0.1948 -0.1077
19872W        W24272  25.807   1.634   4.907 -0.0741 -0.0290 -0.0687
19873W        W24273  20.829   2.932  25.636  0.1128  0.0045 -0.0082
19874W        W24274  25.328   5.249  22.507 -0.0418 -0.3204  0.1666
19875W        W24275   6.319   2.613  23.901 -0.0641 -0.0575  0.3643
19876W        W24276  14.397   5.096  13.016  0.3949  0.2811  0.0352
19877W        W24277   6.196   0.704   8.133  0.0607 -0.0174 -0.3277
19878W        W24278  25.897   0.995  28.631 -0.3268 -0.0463 -0.0380
19879W        W24279   8.587   0.652   9.752  0.1247 -0.0929  0.2771
19880W        W24280  10.079   3.330  20.921  0.3390  0.0940  0.4391
19881W        W24281  23.560   1.889   1.845  0.0373  0.1366  0.0710
19882W        W24282  11.219   6.594  22.372  0.1405  0.3503 -0.1318
19883W        W24283   9.980   4.024  34.722  0.3479 -0.0680 -0.2163
19884W        W24284  19.157   2.663  13.877 -0.0488 -0.0912 -0.0807
19885W        W24285  15.120   1.310  35.228 -0.2102  0.2076  0.2717
19886W        W24286  13.458   2.758  14.521  0.0807 -0.1687 -0.0852
19887W        W24287  25.487   2.508  24.436 -0.0724 -0.1198  0.0859
19888W        W24288  23.813   0.876  24.867 -0.2492 -0.4356 -0.1446
19889W        W24289   8.644   5.699  23.424 -0.1018  0.0093 -0.3363
19890W        W24290  15.526   2.340   0.653 -0.0292  0.2310 -0.0418
19891W        W24291  15.585   6.521  24.682 -0.0433 -0.0442 -0.0935
19892W        W24292   6.053   2.030  23.858 -0.2651  0.0982  0.0026
19893W        W24293   6.642   6.422  33.773  0.0423  0.2138 -0.2596
19894W        W24294   9.431   3.698  23.760  0.0673 -0.2211 -0.3140
19895W        W24295  25.633   3.377  32.710  0.0270 -0.1580 -0.3515
19896W        W24296  14.750   5.601  29.813 -0.0409 -0.3728  0.3366
19897W        W24297  25.695   1.915  27.565 -0.1127 -0.1327 -0.5849
19898W        W24298   0.105   1.511  21.781  0.1946  0.0140 -0.1665
19899W        W24299   5.241   4.169   2.451  0.0514 -0.0891 -0.1461
19900W        W24300  25.137   1.303   5.670  0.2914  0.2244 -0.2032
19901W        W24301   8.001   1.244  27.495 -0.0596  0.3196  0.4576
19902W        W24302   0.601   1.099  13.551  0.0345  0.0385 -0.3093
19903W        W24303   1.799   2.519  25.199  0.2327 -0.1329 -0.2214
19904W        W24304   3.867   5.770   8.639  0.0511 -0.0967  0.0478
19905W        W24305  13.675   1.721  25.968  0.2119 -0.1960 -0.2295
19906W        W24306  19.329   2.854  27.651 -0.0763  0.2755  0.1629
19907W        W24307  25.509   3.517  32.260  0.0517  0.1455 -0.0208
19908W        W24308   0.190   3.004  32.914 -0.1833  0.1299  0.1482
19909W        W24309  21.538   4.345   3.804  0.0456 -0.1348  0.1896
19910W        W24310  20.494   4.707  11.360 -0.1109  0.0785 -0.2132
19911W        W24311  25.316   1.147  22.315  0.0982 -0.1262  0.1173
19912W        W24312  11.003   0.178   1.776  0.2369  0.2049 -0.1368
19913W        W24313   8.544   5.421  21.420  0.3711  0.0962 -0.0425
19914W        W24314  22.316   3.455  33.366  0.3085 -0.1739 -0.1027
19915W        W24315   0.714   2.074  10.140  0.1453  0.1063 -0.0970
19916W        W24316   3.910   3.578  33.476  0.0643 -0.0949 -0.0383
19917W        W24317  14.035   5.552   2.454 -0.1008 -0.2320 -0.1513
19918W        W24318  17.713   1.308  11.094  0.2839  0.5135  0.1406
19919W        W24319   3.315   1.810  24.142  0.2899  0.0706 -0.1777
19920W        W24320  10.237   6.336  28.131 -0.0324  0.1903  0.0756
19921W        W24321  19.616   2.156  24.690  0.0413 -0.0892 -0.0247
19922W        W24322   6.974   1.072   8.523 -0.4020 -0.1414  0.3316
19923W        W24323  15.977   2.955  11.056  0.0802 -0.1152 -0.6520
19924W        W24324  23.783   1.116   6.388 -0.0048 -0.1198 -0.1603
19925W        W24325   1.564   2.747   2.484  0.2027  0.1080  0.0004
19926W        W24326  13.942   0.794  35.723  0.1003 -0.0373 -0.0551
19927W        W24327  21.628   3.677  35.780  0.2822  0.0437  0.0319
19928W        W24328   6.317   4.351  27.872 -0.0812  0.0669  0.2980
19929W        W24329  25.454   1.396  12.156 -0.0268  0.0851 -0.3670
19930W        W24330   7.408   6.274   4.569 -0.4063 -0.2643 -0.0612
19931W        W24331  16.000   0.006  26.874  0.2110 -0.3074  0.1946
19932W        W24332   8.677   2.467   8.684 -0.0023  0.0608 -0.3728
19933W        W24333  21.982   3.265   5.242 -0.2181  0.2033  0.3262
19934W        W24334   3.176   3.222  26.794  0.1808 -0.1084  0.0216
19935W        W24335   4.686   5.405  22.088  0.4608 -0.1009 -0.0556
19936W        W24336   8.993   0.135   6.789 -0.1221 -0.0706  0.0410
19937W        W24337   1.791   0.989  21.056 -0.2654 -0.0993 -0.0445
19938W        W24338  13.713   3.927  15.241  0.1407 -0.3655  0.0224
19939W        W24339   6.404   1.074  34.329 -0.0659  0.1998  0.1095
19940W        W24340  23.285   2.052   2.358  0.1121  0.2617  0.1410
19941W        W24341  11.850   0.375   8.287  0.2827  0.1752 -0.1203
19942W        W24342   9.535   5.364  25.212  0.3298  0.2942  0.1521
19943W        W24343   5.551   6.030  13.464 -0.0773  0.1000  0.2340
19944W        W24344  14.934   5.477  34.263 -0.1732  0.1274 -0.3767
19945W        W24345   5.800   0.563  11.836  0.2061 -0.0827 -0.1938
19946W        W24346  16.234   3.100  10.200  0.3556 -0.1730 -0.0182
19947W        W24347   2.823   1.105  21.284 -0.1168  0.0922  0.3880
19948W        W24348  23.636   1.116  28.006  0.2266 -0.0849  0.0142
19949W        W24349  14.638   2.596  12.944  0.2152 -0.0605  0.1308
19950W        W24350  19.680   4.849  33.180 -0.2766 -0.1707  0.2224
19951W        W24351  12.993   1.210  24.999  0.0986  0.3458 -0.0440
19952W        W24352  16.241   4.025  15.898  0.0431 -0.2466  0.1652
19953W        W24353   2.166   4.235  25.166  0.0830 -0.0999 -0.1403
19954W        W24354  20.608   3.603  32.198  0.1876 -0.1238 -0.1284
19955W        W24355  14.014   1.094  31.507 -0.1349 -0.0799 -0.1258
19956W        W24356  14.464   4.167   4.292  0.1927  0.2153 -0.1121
19957W        W24357  14.248   1.946   2.330 -0.2667  0.1456 -0.1502
19958W        W24358  21.760   4.734  15.099 -0.0983  0.1870  0.1691
19959W        W24359   4.502   3.627   0.345 -0.0271  0.0304  0.0001
19960W        W24360  25.423   0.724  22.558  0.1413 -0.0559  0.0011
19961W        W24361  21.161   2.893  15.097  0.3398  0.0969  0.3067
19962W        W24362  24.891   5.767   2.658  0.1823  0.2217  0.4933
19963W        W24363  13.795   2.719   4.482  0.1629 -0.0455 -0.2305
19964W        W24364  21.884   5.971  14.889 -0.0066  0.0903  0.1339
19965W        W24365  14.286   2.458   0.014 -0.0507  0.2160  0.2299
19966W        W24366  18.924   5.080   1.815  0.3191  0.2304 -0.0448
19967W        W24367  15.486   3.708   9.616  0.0277 -0.2462 -0.2133
19968W        W24368  14.390   2.744  15.648  0.2167 -0.1707  0.0838
19969W        W24369  12.691   2.670  13.837  0.0710  0.3291  0.1233
19970W        W24370  10.444   5.545   9.319 -0.0216  0.2692  0.0353
19971W        W24371   1.826   0.567   9.313  0.1358  0.0023  0.0237
19972W        W24372  25.444   6.230  13.498 -0.3548  0.0004 -0.2100
19973W        W24373  23.361   2.711  21.281  0.2959  0.2896  0.0953
19974W        W24374   1.322   6.097   9.718  0.1420  0.1379 -0.1096
19975W        W24375  24.040   4.369  23.627 -0.2984 -0.1892  0.1469
19976W        W24376   0.412   1.080  25.356 -0.0176 -0.0845  0.0676
19977W        W24377   6.406   2.697   7.145 -0.1149 -0.1099  0.1207
19978W        W24378  17.159   4.752   3.979 -0.0806  0.0271 -0.1529
19979W        W24379   7.073   0.316  13.889 -0.1559  0.1334 -0.3013
19980W        W24380  10.102   4.634  26.004 -0.3752 -0.0902  0.0077
19981W        W24381   3.440   3.829  31.668 -0.3781 -0.1673  0.1228
19982W        W24382   4.309   0.524   3.804  0.0588 -0.0779 -0.3485
19983W        W24383  24.520   0.753   4.290 -0.0610  0.0186 -0.0706
19984W        W24384   1.252   0.267  34.518 -0.1047  0.0738  0.0181
19985W        W24385  13.189   1.405  14.347 -0.1254 -0.1206  0.0262
19986W        W24386  16.233   3.672  22.531  0.2970  0.2784  0.0667
19987W        W24387  17.025   4.635  12.051 -0.0382  0.0625 -0.1181
19988W        W24388   0.317   6.575  35.479  0.1935 -0.1487 -0.0241
19989W        W24389  19.590   2.928  29.522  0.0296 -0.0515 -0.3027
19990W        W24390  22.736   1.931  35.908 -0.0929 -0.0222  0.2174
19991W        W24391   8.858   5.942  34.523 -0.0678  0.1956  0.0573
19992W        W24392   5.256   0.352  11.300  0.2801  0.0551 -0.0124
19993W        W24393  20.144   3.988  33.888  0.0643  0.2003  0.0597
19994W        W24394  10.352   6.358  24.535 -0.0639  0.1163 -0.1517
19995W        W24395   5.479   2.880  10.599  0.1788  0.1530 -0.0670
19996W        W24396  11.600   2.287  25.637 -0.0874  0.0869  0.0546
19997W        W24397  10.615   3.514   9.982 -0.1355  0.2398 -0.0369
19998W        W24398  20.243   4.077   0.145 -0.0506 -0.0966 -0.1651
19999W        W24399  24.673   3.151   5.212  0.0288  0.0653 -0.0831
20000W        W24400  26.048   4.187  22.022  0.1779  0.1775  0.1761
20001W        W24401   1.321   4.594  32.757  0.0408 -0.1736  0.1699
20002W        W24402  22.633   3.828  13.732  0.0351 -0.2615  0.0481
20003W        W24403  21.627   2.602  34.115  0.2744 -0.1395  0.0431
20004W        W24404  10.734   5.286  34.293  0.3385 -0.0300  0.1058
20005W        W24405   1.849   5.572  14.983  0.4555 -0.3915 -0.3448
20006W        W24406  10.054   1.900  28.913 -0.1869 -0.2427  0.2143
20007W        W24407  20.600   0.501  22.391  0.0253  0.0591  0.0250
20008W        W24408  21.490   5.389   2.021  0.0361  0.2038  0.0788
20009W        W24409  11.544   1.141  29.300  0.1751 -0.2171  0.0147
20010W        W24410   6.775   2.587  29.372  0.3543  0.0305  0.1134
20011W        W24411  10.110   0.980  32.765 -0.0532 -0.1569 -0.1156
20012W        W24412   3.791   2.373  35.889  0.0930 -0.0479 -0.1245
20013W        W24413  19.338   6.601  25.725 -0.3972 -0.1074  0.2136
20014W        W24414   3.985   3.122  25.642 -0.3144  0.0233 -0.0200
20015W        W24415   0.756   0.450  33.873  0.1009 -0.0797 -0.1900
20016W        W24416  20.927   4.562   7.227 -0.2331  0.2113 -0.1017
20017W        W24417   2.417   4.392  31.673  0.1735 -0.0299  0.0485
20018W        W24418  23.193   0.475   3.174 -0.3079  0.3080 -0.1449
20019W        W24419   5.623   5.552   3.168  0.0246  0.0711  0.1854
20020W        W24420  17.526   3.003  22.732 -0.1065 -0.0435 -0.0610
20021W        W24421  15.720   0.608   9.355 -0.0316 -0.0276 -0.1208
20022W        W24422  16.650   4.691   8.753 -0.1151 -0.1434  0.3495
20023W        W24423   9.218   0.256  12.681  0.0078 -0.4356  0.2081
20024W        W24424   4.163   5.643  21.989  0.0221  0.0490  0.0705
20025W        W24425  25.867   4.413   9.190  0.0491  0.2125  0.4234
20026W        W24426  20.701   3.986   9.145  0.0721  0.0658  0.0777
20027W        W24427   8.807   2.959  21.976  0.0913 -0.1472  0.1565
20028W        W24428  20.224   4.451  34.127  0.1503 -0.0701  0.0285
20029W        W24429   4.234   1.249  33.239 -0.0566 -0.2170 -0.2105
20030W        W24430  22.590   1.094   1.099  0.0135  0.1776 -0.2351
20031W        W24431   3.719   5.585   7.283 -0.1446  0.2883  0.2379
20032W        W24432   9.047   3.646   1.796 -0.2902 -0.0515  0.0424
20033W        W24433  12.076   0.790  14.360  0.0561  0.0167 -0.0731
20034W        W24434  22.349   0.593   4.218 -0.1478  0.2817 -0.0895
20035W        W24435  12.397   2.582  22.806 -0.0024 -0.1443  0.0077
20036W        W24436   4.416   4.437  21.981  0.0388  0.2661 -0.0256
20037W        W24437  14.233   5.671  29.791 -0.0229  0.0693  0.1513
20038W        W24438  16.439   5.358  24.437  0.3818 -0.2940 -0.0786
20039W        W24439  11.911   1.292  35.929 -0.0648 -0.1914 -0.3122
20040W        W24440  24.003   0.498   8.635  0.2118  0.2927  0.2622
20041W        W24441   2.084   0.048  28.441  0.0673  0.2444  0.0369
20042W        W24442  12.920   0.761  35.925  0.1590 -0.3208  0.2778
20043W        W24443   9.588   4.516  21.379  0.2867  0.1509  0.0189
20044W        W24444  24.522   5.593  33.547  0.0168 -0.0225 -0.0670
20045W        W24445  17.655   0.499  20.639 -0.0429  0.3332  0.3622
20046W        W24446  18.633   5.053   8.155 -0.0281 -0.2207 -0.1161
20047W        W24447  10.488   5.096   4.421  0.0582 -0.0546 -0.0844
20048W        W24448   5.246   0.607  23.959 -0.2654  0.1373  0.1575
20049W        W24449   5.320   5.054  34.063  0.1305  0.0053 -0.1339
20050W        W24450   8.419   2.375  35.138  0.0782 -0.0420 -0.2146
20051W        W24451  10.006   0.714  29.267 -0.1953 -0.1227  0.1676
20052W        W24452  22.816   2.069   7.270  0.3261  0.0059  0.0305
20053W        W24453  10.718   6.208  24.948  0.2430 -0.1537  0.4530
20054W        W24454  26.262   4.575   3.966 -0.0708  0.1028 -0.2156
20055W        W24455   9.330   0.122  24.726  0.2170 -0.0410 -0.0538
20056W        W24456  21.053   2.507   2.635 -0.0182 -0.1415  0.0066
20057W        W24457   3.545   6.251  22.060  0.2711 -0.2639 -0.1335
20058W        W24458   9.864   1.826  31.623 -0.0788 -0.2781 -0.1774
20059W        W24459  18.201   0.431  12.794  0.0754 -0.2419 -0.2841
20060W        W24460  17.409   4.241   7.178  0.3226  0.0107 -0.1193
20061W        W24461   6.550   1.585   3.260 -0.1643  0.0580 -0.2122
20062W        W24462   9.171   5.173   1.337  0.0081  0.1824 -0.1071
20063W        W24463   2.871   4.355  26.541 -0.2072 -0.4704  0.0200
20064W        W24464  11.448   5.732  35.640  0.1249 -0.0945  0.2729
20065W        W24465  16.064   3.837  24.613  0.4826 -0.0130 -0.1496
20066W        W24466   8.074   0.135   3.754  0.0878  0.0913  0.1346
20067W        W24467   3.746   5.199  23.945  0.1698 -0.2439 -0.1781
20068W        W24468   5.078   0.899  22.013  0.0685  0.2478  0.2145
20069W        W24469   1.836   1.785  33.792  0.1255 -0.2169 -0.2097
20070W        W24470  23.437   3.493  21.107  0.0746  0.0516 -0.0668
20071W        W24471  17.401   1.206  31.165 -0.1896  0.1383  0.1055
20072W        W24472   5.800   4.995  14.412 -0.1621 -0.1043  0.0763
20073W        W24473   1.252   0.492  22.525 -0.0124 -0.1203 -0.2401
20074W        W24474   5.766   1.898   1.338 -0.2580 -0.2376  0.2691
20075W        W24475  23.254   2.431   1.701  0.3121 -0.1550  0.1254
20076W        W24476  25.348   6.445   0.335 -0.0931  0.2003  0.2750
20077W        W24477  18.609   1.840  12.044  0.3658 -0.1523  0.0709
20078W        W24478  22.485   0.908  15.479  0.0750  0.3191 -0.2542
20079W        W24479  22.145   5.570  22.745 -0.0299 -0.2227  0.1502
20080W        W24480   6.916   5.174   0.745 -0.0641  0.0785 -0.1374
20081W        W24481   7.127   3.348   7.131 -0.2066  0.0780  0.1516
20082W        W24482   3.796   2.571  23.820  0.4078 -0.0410  0.0824
20083W        W24483  20.345   2.131   1.188 -0.0860 -0.0296 -0.1249
20084W        W24484  12.227   6.424  14.295 -0.2730 -0.0267  0.3853
20085W        W24485   5.745   3.913   2.440  0.0024 -0.1095 -0.1398
20086W        W24486  12.093   5.444  14.251  0.1418  0.0375  0.1641
20087W        W24487  24.667   3.854   0.507 -0.0503  0.2963 -0.3090
20088W        W24488   6.146   5.451  22.010  0.0220 -0.0184  0.2547
20089W        W24489   7.425   3.690  15.443 -0.0616 -0.2709  0.3667
20090W        W24490  15.433   4.564  30.075 -0.0933  0.2939 -0.2017
20091W        W24491  18.522   1.383   6.253 -0.0660  0.1464  0.0319
20092W        W24492   9.096   1.065  13.694  0.2669 -0.1244  0.0743
20093W        W24493  15.652   6.520  22.446  0.0255 -0.0337  0.1038
20094W        W24494   2.319   1.299   2.854 -0.1274 -0.2195 -0.0530
20095W        W24495  13.816   4.826  32.755 -0.1006 -0.4287 -0.0437
20096W        W24496  25.471   3.714   3.880 -0.2153 -0.2140  0.0177
20097W        W24497   8.445   1.899  34.481  0.3302 -0.0988 -0.1037
20098W        W24498  24.498   1.661   1.049  0.0276 -0.2128  0.1454
20099W        W24499  11.329   4.396  10.732  0.0891  0.0349  0.0482
20100W        W24500  19.374   3.856  28.573  0.2540 -0.3885 -0.1854
20101W        W24501  25.987   5.045  34.460 -0.0494 -0.1694 -0.2273
20102W        W24502  23.161   4.824  25.507 -0.1968  0.2381  0.2381
20103W        W24503  25.967   5.438  33.198 -0.0926  0.1602  0.3881
20104W        W24504  12.656   6.211  31.224 -0.0573 -0.1003 -0.2198
20105W        W24505  18.058   6.153  35.332 -0.1029  0.3195 -0.0489
20106W        W24506   8.772   5.806  29.076  0.1778 -0.0100  0.1728
20107W        W24507  24.400   3.537  31.248  0.1076  0.2301  0.0879
20108W        W24508  19.903   0.703  28.094  0.2331  0.1596 -0.0848
20109W        W24509   0.583   0.900  24.331  0.0939 -0.3509 -0.3157
20110W        W24510  13.624   1.733  14.643 -0.1973 -0.0796 -0.0119
20111W        W24511  11.292   3.629  13.354 -0.1648 -0.1614 -0.0308
20112W        W24512   7.817   5.463  13.528 -0.0095 -0.1100  0.0386
20113W        W24513  11.936   5.397   3.671 -0.2691  0.2784  0.3356
20114W        W24514   7.847   4.331   9.138  0.1229 -0.1090 -0.1268
20115W        W24515   1.659   4.213   9.237  0.1832  0.2576 -0.0280
20116W        W24516  18.340   1.150  21.570  0.1654  0.1081 -0.0961
20117W        W24517  12.645   0.675   0.990  0.0271  0.0845 -0.3032
20118W        W24518   5.739   4.126  29.765  0.3924 -0.1285 -0.2064
20119W        W24519  12.542   4.817  27.253 -0.0158 -0.0658  0.0080
20120W        W24520  14.004   1.401  22.852 -0.1643  0.2993 -0.0534
20121W        W24521   9.894   4.250   8.814 -0.2487 -0.0222  0.2392
20122W        W24522   9.546   5.488  10.423 -0.3825  0.0248  0.1583
20123W        W24523  13.585   1.718   8.048  0.1941  0.1775 -0.1202
20124W        W24524  26.219   3.507  30.507  0.0237 -0.2343  0.0805
20125W        W24525   0.955   2.457  13.521  0.2389  0.0960 -0.0335
20126W        W24526   2.543   2.048  34.948 -0.1445  0.1080  0.0844
20127W        W24527   6.597   6.102   1.489  0.0154 -0.0079  0.1410
20128W        W24528  23.090   5.875   4.249 -0.1807 -0.1909 -0.0274
20129W        W24529  11.487   0.161   2.387  0.1387 -0.2117 -0.1780
20130W        W24530  10.633   4.579  20.988 -0.4020 -0.0486  0.0161
20131W        W24531  20.999   3.802  13.301 -0.1495  0.2873 -0.1104
20132W        W24532  12.118   2.821   1.549  0.2304 -0.1211 -0.1519
20133W        W24533  22.141   6.430  29.398 -0.2112  0.2403 -0.3516
20134W        W24534   0.333   5.990  24.663 -0.1513  0.4127 -0.2700
20135W        W24535  14.807   1.655   7.104  0.1724 -0.3709  0.1083
20136W        W24536   4.051   5.115  23.272  0.3291 -0.1316 -0.1411
20137W        W24537  25.077   2.402  25.494  0.1386  0.5261  0.0171
20138W        W24538   4.994   4.180   1.044  0.1658 -0.3987  0.0474
20139W        W24539  24.172   4.134   3.148  0.0548  0.0643 -0.1849
20140W        W24540  20.943   5.007  35.418  0.0391  0.0392  0.2381
20141W        W24541  23.872   0.258   3.446  0.0236 -0.2921 -0.0876
20142W        W24542  23.743   0.230  34.114 -0.1596  0.3231  0.0293
20143W        W24543  24.093   2.120  13.521  0.1001 -0.0481  0.0803
20144W        W24544  15.038   3.592  29.012  0.0168 -0.0482  0.0091
20145W        W24545   9.728   0.636  34.130 -0.0481  0.2041  0.2907
20146W        W24546  23.123   0.835   5.166 -0.0417 -0.0824  0.1395
20147W        W24547  12.471   0.152  24.188  0.1551 -0.0339 -0.0606
20148W        W24548  19.262   0.943  20.449 -0.0181 -0.1481 -0.0905
20149W        W24549  20.306   5.295   4.514  0.0700 -0.1143  0.0897
20150W        W24550  18.829   6.382  25.844  0.3153  0.0828  0.0628
20151W        W24551   1.039   5.522   4.444 -0.0953  0.1620 -0.1175
20152W        W24552  26.188   6.289   4.615 -0.1076 -0.1524  0.1719
20153W        W24553   4.188   2.869   7.987  0.1750 -0.1142 -0.0323
20154W        W24554  16.437   2.813   1.715  0.0386  0.0900 -0.2167
20155W        W24555  14.434   4.677  24.025  0.0957 -0.0337 -0.0587
20156W        W24556  22.991   1.535  12.902  0.1384  0.0445 -0.0890
20157W        W24557   6.941   3.659  12.407 -0.0908  0.0822  0.2878
20158W        W24558  25.640   0.042  31.351 -0.1517  0.1037  0.1012
20159W        W24559  21.455   6.303  22.353 -0.0346  0.1661 -0.1292
20160W        W24560  22.487   0.676  13.257 -0.0100  0.1242  0.3203
20161W        W24561  11.516   6.070  36.040 -0.0544 -0.2959 -0.1643
20162W        W24562  18.218   1.524  28.994 -0.2339  0.1795 -0.0917
20163W        W24563  13.259   3.320  30.322 -0.0919  0.2728  0.1218
20164W        W24564   1.259   1.449  23.321 -0.1022 -0.1083 -0.1121
20165W        W24565  14.166   3.906   7.804 -0.2079 -0.1416  0.2821
20166W        W24566  15.325   0.946  23.278  0.1951  0.2010  0.3445
20167W        W24567  22.264   3.688  21.457  0.4852 -0.2696 -0.3014
20168W        W24568  20.730   0.195   5.478  0.1698  0.2474  0.1532
20169W        W24569  16.013   3.003  12.787 -0.1644  0.0272  0.4538
20170W        W24570  12.446   4.988  23.880 -0.0530  0.0644  0.1622
20171W        W24571  19.944   0.570  30.160 -0.0638  0.1375 -0.1017
20172W        W24572  14.738   1.312  22.577  0.3404 -0.3239 -0.2060
20173W        W24573   7.949   1.738  14.431 -0.1980 -0.0520  0.0103
20174W        W24574   2.955   1.016  11.228 -0.5491 -0.0687  0.3605
20175W        W24575   8.878   2.526  31.696  0.2076  0.0343  0.1314
20176W        W24576  22.445   1.753  30.207 -0.1014 -0.0793  0.3219
20177W        W24577   9.627   6.486  12.797  0.0608 -0.3093 -0.1254
20178W        W24578  10.312   0.848  15.070 -0.1053 -0.0307  0.3079
20179W        W24579   3.001   1.269  33.069  0.0131  0.1378 -0.2503
20180W        W24580  23.287   4.147  34.690 -0.1657 -0.0769 -0.3671
20181W        W24581  25.139   4.735  30.590  0.1081 -0.1877  0.0930
20182W        W24582  13.595   0.189  21.894 -0.0679  0.0602  0.1799
20183W        W24583   9.158   5.979  15.646 -0.3525 -0.0120 -0.0984
20184W        W24584  11.813   2.260   7.210 -0.0648 -0.0425 -0.1827
20185W        W24585  25.127   3.018  10.759  0.0832  0.1889  0.2731
20186W        W24586  25.723   2.559   2.428 -0.2704 -0.1447  0.0424
20187W        W24587  22.505   5.010  31.620 -0.0503 -0.0303  0.0437
20188W        W24588  14.641   4.153  12.238  0.2535  0.0032 -0.0826
20189W        W24589   1.463   3.877  24.017  0.3580  0.0013  0.3423
20190W        W24590   5.361   2.257  35.117 -0.0325  0.2461 -0.2867
20191W        W24591  19.090   0.513   6.592  0.0575 -0.1354 -0.3366
20192W        W24592  12.091   1.475  34.195  0.1815  0.1211 -0.2586
20193W        W24593   9.034   2.675   1.843  0.4329  0.1219 -0.1812
20194W        W24594  25.763   5.024  26.963  0.3481  0.0883  0.4832
20195W        W24595  15.516   6.400   3.415 -0.2006 -0.0806 -0.1055
20196W        W24596   7.682   5.509   9.646  0.1648  0.0182 -0.1427
20197W        W24597   4.548   3.986  21.342  0.0448 -0.2868  0.0494
20198W        W24598  21.111   2.455  27.568  0.0212  0.1054 -0.4584
20199W        W24599   0.138   4.917  11.923 -0.2753 -0.0447  0.0422
20200W        W24600  23.059   4.674  30.131  0.2621 -0.1144 -0.0839
20201W        W24601  14.338   3.296  11.795 -0.1183 -0.2486 -0.3968
20202W        W24602  17.502   5.472  13.663 -0.1895 -0.1118  0.2357
20203W        W24603  19.868   1.085   0.812  0.2421  0.0157  0.3115
20204W        W24604   8.682   5.079   7.747 -0.3215  0.1264  0.0518
20205W        W24605  17.198   2.848  32.287  0.4697  0.2444 -0.1999
20206W        W24606  21.329   2.249  15.251 -0.1046 -0.0230 -0.3146
20207W        W24607   2.490   5.630   1.939 -0.1464  0.4073  0.0311
20208W        W24608  16.432   1.592  24.146 -0.2351  0.2258  0.0536
20209W        W24609  18.270   2.685  20.815  0.1885  0.1509  0.2279
20210W        W24610   4.798   4.875  28.057 -0.1251  0.1777 -0.0051
20211W        W24611   8.655   4.403  10.761 -0.1085 -0.0225  0.4531
20212W        W24612  11.836   1.476   6.840  0.1923 -0.3244 -0.0466
20213W        W24613   2.914   6.182  31.424 -0.1837 -0.3834  0.2759
20214W        W24614  20.681   5.823  12.698 -0.3192 -0.0913 -0.0649
20215W        W24615   7.602   1.097   3.347 -0.0325 -0.1465 -0.1812
20216W        W24616   3.153   4.769  27.007  0.2161 -0.0436 -0.0526
20217W        W24617  11.403   3.591   1.203 -0.0200  0.2413 -0.1230
20218W        W24618   8.974   2.957  27.423  0.2000  0.1280 -0.1042
20219W        W24619   6.743   2.975  28.972  0.0774 -0.3179  0.2210
20220W        W24620  19.138   6.162  20.871 -0.0048 -0.1663 -0.1806
20221W        W24621   1.574   2.425   1.749  0.0248 -0.1563 -0.0980
20222W        W24622  24.764   2.286   5.326 -0.0295 -0.0143 -0.2019
20223W        W24623   0.873   2.223  26.647 -0.4662 -0.0606 -0.1106
20224W        W24624  25.311   6.406  32.815 -0.0390 -0.2174  0.2557
20225W        W24625  20.470   4.501  29.096  0.2308  0.0394 -0.4413
20226W        W24626  20.570   1.304  11.351  0.1252  0.2801 -0.2059
20227W        W24627  21.654   6.038  26.236 -0.0675  0.2830 -0.3858
20228W        W24628  20.331   2.537  10.419  0.1110  0.0219 -0.0821
20229W        W24629   8.510   3.682  13.799  0.1788 -0.1490  0.2699
20230W        W24630  10.652   6.445  11.499  0.0320 -0.4845 -0.2817
20231W        W24631   7.956   0.028   1.811  0.2538  0.0188  0.1328
20232W        W24632   2.351   4.869  12.860 -0.0189  0.2304  0.2268
20233W        W24633  17.833   1.468  10.662 -0.1099 -0.0806  0.1723
20234W        W24634  21.933   0.587  30.870  0.0376  0.1308  0.0757
20235W        W24635  14.182   0.380  34.950  0.0365  0.0589 -0.3482
20236W        W24636  25.424   4.537  27.722  0.1246  0.2013 -0.1628
20237W        W24637   5.596   0.530   8.185 -0.1053  0.2647  0.0700
20238W        W24638  20.777   0.572  26.667  0.1266  0.1588  0.1324
20239W        W24639  24.628   4.424  26.494 -0.0028 -0.0459  0.2905
20240W        W24640   7.028   6.482  21.052  0.1789 -0.3247  0.0706
20241W        W24641   5.880   1.878  10.008 -0.2366  0.0198  0.2210
20242W        W24642   0.080   4.469  22.954  0.0512  0.2957  0.2366
20243W        W24643   7.807   0.205  29.716 -0.1529  0.2370 -0.0730
20244W        W24644  23.372   4.014  21.443  0.0034  0.1616 -0.1229
20245W        W24645  24.045   0.599   6.991  0.2108 -0.0247 -0.1361
20246W        W24646   8.248   5.197  29.542  0.1327  0.4822  0.0378
20247W        W24647  14.612   5.050  20.787  0.0397 -0.0236 -0.0123
20248W        W24648  25.121   0.346   1.554 -0.0695 -0.0434  0.1937
20249W        W24649  12.466   3.379   2.531  0.0085 -0.3038  0.3057
20250W        W24650   0.245   1.624  27.820 -0.1796  0.0297  0.0672
20251W        W24651  11.286   3.498   4.129  0.1437 -0.1013  0.0099
20252W        W24652  10.157   3.026  31.487 -0.1598 -0.4000 -0.2445
20253W        W24653  18.108   5.202   9.377 -0.0546  0.4741  0.0413
20254W        W24654   5.211   2.801  31.352 -0.2112 -0.0241 -0.0602
20255W        W24655   9.543   6.359   4.740 -0.1920  0.0092 -0.0990
20256W        W24656  15.538   2.958  22.401  0.3150 -0.0852 -0.2676
20257W        W24657   8.957   1.093  31.841  0.0265 -0.3112  0.3247
20258W        W24658  25.757   6.315   1.220 -0.1524 -0.0908 -0.2619
20259W        W24659  22.843   5.654   1.849 -0.1130 -0.0645  0.0259
20260W        W24660   4.299   2.099  27.825  0.2225 -0.3490  0.2367
20261W        W24661  21.519   4.251   5.013 -0.0006  0.1570  0.2453
20262W        W24662  17.907   2.783  28.960 -0.0538 -0.2017  0.0834
20263W        W24663   7.329   2.786  34.659 -0.4033  0.0267 -0.1855
20264W        W24664  19.034   5.867   8.819 -0.0645  0.0180 -0.0234
20265W        W24665  15.931   4.809  14.994 -0.1652  0.2949  0.2883
20266W        W24666  11.430   3.370  11.794 -0.4043  0.3239 -0.0206
20267W        W24667  13.428   2.747   7.154  0.0646 -0.2113  0.2065
20268W        W24668   5.365   5.437  31.606 -0.1147  0.2738 -0.2741
20269W        W24669  22.905   0.730  28.040  0.1141 -0.1810 -0.0612
20270W        W24670  23.038   1.860  31.168  0.1769 -0.0919 -0.0008
20271W        W24671  14.429   2.322   2.702  0.0149  0.1669  0.0822
20272W        W24672  26.057   5.162   8.861  0.0219 -0.1370  0.3809
20273W        W24673  14.856   2.054  31.255 -0.1884  0.0095  0.0153
20274W        W24674  23.573   5.883  33.904  0.2165 -0.0092 -0.3073
20275W        W24675   8.972   1.154  34.622 -0.3800 -0.1685  0.0807
20276W        W24676  19.562   5.492  29.675  0.2683  0.4856 -0.1232
20277W        W24677   3.601   5.135  32.017  0.4020  0.1595 -0.3888
20278W        W24678  16.326   4.632  26.314 -0.1525 -0.3127  0.2093
20279W        W24679   2.404   1.241  33.068  0.0119  0.0330 -0.0719
20280W        W24680  11.688   2.888  22.402  0.1676 -0.1268  0.1937
20281W        W24681  13.230   3.351   4.416 -0.0909  0.0221 -0.0153
20282W        W24682  25.645   5.184   1.214 -0.1504  0.0584  0.0417
20283W        W24683   4.464   3.279  24.502 -0.1665 -0.2741 -0.1121
20284W        W24684  25.869   5.063  25.077 -0.0566  0.0457 -0.1445
20285W        W24685  21.421   3.907   6.667  0.0801 -0.0987 -0.1404
20286W        W24686  25.431   6.443   8.185 -0.0892  0.2652 -0.3447
20287W        W24687  21.446   3.164  27.512 -0.2884 -0.1870  0.2085
20288W        W24688   3.443   4.825  33.266 -0.1474 -0.0564 -0.3973
20289W        W24689   5.620   1.913   7.051 -0.3191  0.2155  0.1636
20290W        W24690  20.714   1.642  11.764 -0.0614  0.1265  0.0614
20291W        W24691  11.924   1.392  14.083 -0.3539 -0.1084 -0.1504
20292W        W24692   3.897   5.619   3.190  0.1022  0.0036 -0.2484
20293W        W24693  23.822   2.570  21.118  0.1800 -0.0282 -0.0766
20294W        W24694  25.893   1.709  12.362 -0.0773  0.0857  0.3691
20295W        W24695  13.057   1.179   5.060 -0.0709  0.0245 -0.0058
20296W        W24696   6.442   0.263  33.690 -0.0322 -0.0336 -0.1366
20297W        W24697   4.815   0.944  23.202  0.2088 -0.1405 -0.0197
20298W        W24698  13.925   4.337  22.423  0.0921 -0.0694 -0.0766
20299W        W24699  10.821   0.961  31.306 -0.1506  0.1607  0.0310
20300W        W24700   6.414   0.059  25.903  0.0559 -0.0110 -0.3295
20301W        W24701   7.792   6.550  31.064 -0.0824  0.0706 -0.0686
20302W        W24702   1.028   6.242  30.008 -0.0935 -0.0693 -0.1470
20303W        W24703   4.079   2.175  33.302 -0.2711  0.0326  0.1244
20304W        W24704  22.161   4.937  11.263  0.0204  0.1155 -0.1738
20305W        W24705  18.563   2.194  13.762 -0.0967 -0.0023  0.2047
20306W        W24706   2.961   3.617  23.816 -0.2063  0.3490 -0.2375
20307W        W24707  24.860   0.967   9.483  0.1000  0.1088  0.0897
20308W        W24708  22.573   5.762  30.683 -0.0294 -0.1423  0.2209
20309W        W24709   2.408   1.667  34.611  0.1060 -0.2326  0.0997
20310W        W24710  14.354   4.297  13.158  0.1472 -0.0193  0.1694
20311W        W24711  24.461   0.978  22.675 -0.1418 -0.3112 -0.0093
20312W        W24712  26.143   1.018  32.798 -0.1081 -0.0055 -0.4060
20313W        W24713   8.838   4.255  35.613  0.0693 -0.1845 -0.0559
20314W        W24714   5.466   6.552  29.902 -0.1448  0.2791 -0.1545
20315W        W24715   9.434   5.276   1.794  0.1657  0.2488  0.2126
20316W        W24716  17.754   4.776   3.959  0.0111 -0.0780  0.0777
20317W        W24717  16.549   3.618  25.427  0.5399 -0.1836 -0.1871
20318W        W24718   4.841   2.600  32.699  0.0490 -0.0714 -0.0639
20319W        W24719  12.237   2.413  14.974  0.0496 -0.0311 -0.0683
20320W        W24720   3.416   3.527  29.328 -0.2505 -0.1618 -0.3163
20321W        W24721   7.033   4.182  12.111 -0.1064  0.1550 -0.1794
20322W        W24722  20.215   0.181   7.416 -0.2511 -0.1364 -0.1868
20323W        W24723  20.743   0.760  31.380 -0.3572 -0.1014  0.0156
20324W        W24724  20.547   2.511  29.690  0.0339  0.2052 -0.1314
20325W        W24725  21.379   5.996  24.199  0.0024 -0.0897  0.2756
20326W        W24726   3.694   0.608   3.848 -0.2429  0.1232  0.0787
20327W        W24727  15.869   6.526  12.312 -0.0447  0.0408 -0.2919
20328W        W24728   8.758   5.663  14.190 -0.1717 -0.1227 -0.1824
20329W        W24729   4.312   2.641   1.467  0.1384  0.0549 -0.0195
20330W        W24730  19.291   6.117  32.122 -0.0477  0.0397 -0.0708
20331W        W24731   2.328   2.970   0.628 -0.1038 -0.3231 -0.1469
20332W        W24732  21.746   3.491   7.667  0.0808  0.1431 -0.3315
20333W        W24733   7.179   2.140  30.616 -0.1656 -0.0655 -0.0900
20334W        W24734  10.402   5.380   2.031 -0.1971 -0.2483 -0.1870
20335W        W24735   8.859   2.444  28.892  0.1598  0.0766  0.1864
20336W        W24736  11.231   0.949  11.007 -0.2871  0.1874 -0.0053
20337W        W24737   8.714   5.013  35.728 -0.3365  0.1048 -0.1364
20338W        W24738  23.500   0.692  10.493  0.0564  0.2068  0.1844
20339W        W24739  23.971   2.477  32.635 -0.1326 -0.0276  0.2519
20340W        W24740  22.031   2.383   9.549  0.1715  0.0007  0.2579
20341W        W24741  19.795   5.520   5.874  0.1321 -0.3144 -0.1925
20342W        W24742   3.287   2.652   1.686 -0.2324  0.0879 -0.0470
20343W        W24743  14.832   2.435  32.173  0.2519 -0.0557  0.1851
20344W        W24744  12.122   4.031  13.786 -0.1246 -0.0481 -0.1076
20345W        W24745  22.741   3.367  23.580 -0.1897  0.0059  0.0220
20346W        W24746   7.056   0.637   8.708  0.1500 -0.1786 -0.1875
20347W        W24747  19.956   5.809   7.393 -0.0499 -0.1566  0.0899
20348W        W24748   6.903   5.806  35.443  0.0391 -0.2391 -0.1822
20349W        W24749  12.400   0.891  34.879 -0.3621  0.6046 -0.0424
20350W        W24750  16.871   3.617  14.864 -0.0795  0.3671  0.0289
20351W        W24751  21.254   2.288  22.167  0.1875 -0.0395  0.2311
20352W        W24752  25.784   4.120   8.035  0.1851  0.0711  0.1925
20353W        W24753  22.642   1.379   3.416 -0.0788 -0.1477  0.0192
20354W        W24754  13.213   5.959  28.923  0.1967  0.0457  0.0356
20355W        W24755  14.981   5.686   0.444  0.0488 -0.0206  0.0852
20356W        W24756  22.786   2.834  21.365 -0.0247 -0.2761  0.0464
20357W        W24757  21.821   2.617  10.119 -0.0197 -0.1414 -0.1948
20358W        W24758   0.544   1.226  34.186  0.1263 -0.3246  0.0604
20359W        W24759  11.545   1.323  23.603  0.3939 -0.0917  0.0156
20360W        W24760  19.394   6.252  31.271  0.0481 -0.1143  0.0786
20361W        W24761  23.846   1.615  14.416 -0.0244 -0.0506  0.0169
20362W        W24762  19.469   2.934  25.774  0.0363  0.1236  0.0413
20363W        W24763   5.521   6.055   3.037  0.1123 -0.2033 -0.0916
20364W        W24764  11.276   3.825   5.557 -0.0323  0.0469  0.0644
20365W        W24765  23.765   6.409   8.715 -0.0475 -0.2358 -0.0727
20366W        W24766  19.890   3.246  34.475  0.3577  0.1290  0.0477
20367W        W24767  15.694   1.478  13.679 -0.3072  0.1581 -0.1736
20368W        W24768   8.390   1.274   9.186 -0.1149  0.0881 -0.0686
20369W        W24769  23.197   6.139  31.807 -0.3461  0.3174 -0.1278
20370W        W24770  23.191   5.256   8.188  0.0980 -0.1033 -0.0294
20371W        W24771  20.233   6.167  12.438 -0.0493  0.0607 -0.0729
20372W        W24772  10.747   4.364  21.418 -0.2197 -0.2453  0.1597
20373W        W24773   9.217   5.322  32.009  0.0864 -0.1811  0.0232
20374W        W24774   5.900   4.876   2.259 -0.0199  0.1088  0.0362
20375W        W24775  21.119   5.708  27.379 -0.0734  0.0397  0.0251
20376W        W24776  25.027   6.296   7.586 -0.2398 -0.0201 -0.0676
20377W        W24777   5.496   4.173   6.902 -0.3602  0.2488  0.0976
20378W        W24778  24.605   3.035   0.927  0.0834 -0.1000 -0.2032
20379W        W24779  25.370   0.454  14.379  0.1433  0.1678 -0.2789
20380W        W24780  18.428   1.730   7.038  0.1112  0.0363 -0.0785
20381W        W24781  25.406   0.341  25.780 -0.1017  0.0960 -0.1414
20382W        W24782  25.252   6.087  23.989 -0.2675 -0.3270  0.2767
20383W        W24783  12.102   1.441   9.927  0.3548 -0.2142  0.0979
20384W        W24784   4.226   0.645   0.199 -0.2024 -0.0068  0.1760
20385W        W24785   9.117   6.469   9.415  0.0968 -0.1530 -0.0010
20386W        W24786  16.783   0.793  25.001 -0.0270 -0.1726 -0.2666
20387W        W24787   2.791   5.587  28.594  0.1640  0.0849 -0.0725
20388W        W24788   2.152   6.572  25.086  0.1300  0.1131 -0.2025
20389W        W24789  16.602   4.295   3.400 -0.2821 -0.0351  0.0071
20390W        W24790  22.257   1.292  11.983  0.1305  0.1527 -0.0712
20391W        W24791  19.968   1.570  21.930  0.1670 -0.0792  0.0831
20392W        W24792  22.453   4.049  28.775  0.3232  0.0827  0.0860
20393W        W24793   5.432   0.098  35.852 -0.1549 -0.0048 -0.0598
20394W        W24794  17.335   2.911   9.454  0.1350 -0.0623 -0.1340
20395W        W24795  24.073   2.571  22.920  0.1479 -0.1361 -0.2813
20396W        W24796  22.514   4.269  30.172  0.1357  0.0630 -0.0274
20397W        W24797  22.460   3.297   5.997 -0.2688  0.1796  0.1977
20398W        W24798  18.335   1.964  31.218  0.0591  0.1487 -0.2497
20399W        W24799  17.012   3.189   1.593  0.3748  0.1757 -0.0848
20400W        W24800   1.225   5.528  26.284 -0.2705  0.0996  0.1045
20401W        W24801  12.681   6.143  25.459  0.1036 -0.2154 -0.0404
20402W        W24802  13.865   3.955  24.785 -0.0314  0.1084 -0.0565
20403W        W24803   3.334   3.962   2.203 -0.4692  0.0059  0.2464
20404W        W24804   2.321   5.331  10.350 -0.1626 -0.0488 -0.3630
20405W        W24805  12.570   0.853  23.905  0.0484 -0.2904 -0.1347
20406W        W24806  18.098   3.428  27.834  0.2601  0.2240 -0.1192
20407W        W24807   4.284   1.293  29.977  0.1193 -0.1275 -0.0520
20408W        W24808  11.360   3.982   3.037 -0.0670 -0.3965  0.1497
20409W        W24809  22.617   5.601  31.183 -0.0009  0.1362  0.4652
20410W        W24810  16.010   3.753  29.535 -0.0898  0.3948  0.1237
20411W        W24811  20.643   1.209  27.342  0.2829 -0.2732 -0.0137
20412W        W24812  14.775   6.553  13.442  0.4145  0.3288 -0.0246
20413W        W24813  21.168   0.221   8.342 -0.0586 -0.2880  0.1191
20414W        W24814  13.906   4.693  27.711  0.3516 -0.0813 -0.2772
20415W        W24815  13.919   1.846  12.012 -0.0433 -0.0481  0.1154
20416W        W24816  12.217   6.214  12.509  0.2110 -0.1245 -0.0616
20417W        W24817   8.398   6.542  32.437 -0.1497  0.0445 -0.1194
20418W        W24818   4.913   1.501  24.982  0.2460  0.2562 -0.1963
20419W        W24819  13.366   3.671  22.544  0.1563  0.0725  0.0795
20420W        W24820   9.158   0.683  30.750  0.1435 -0.2285  0.3401
20421W        W24821   3.710   2.893  36.054  0.2141  0.1695  0.1454
20422W        W24822   8.365   2.189  28.759 -0.2822  0.1281 -0.0305
20423W        W24823  24.912   4.620  30.188 -0.0571 -0.0083 -0.0911
20424W        W24824  11.248   1.163  31.004 -0.0815  0.0839  0.1365
20425W        W24825   3.499   2.379   5.420 -0.0412  0.4962 -0.1075
20426W        W24826  21.274   4.162  23.829  0.0199 -0.0055  0.0922
20427W        W24827  17.689   1.766  24.399 -0.4864  0.4425 -0.1022
20428W        W24828   1.933   2.220  33.564 -0.2678  0.2851 -0.0005
20429W        W24829   0.194   3.996  20.501 -0.0348  0.0386  0.1408
20430W        W24830   2.813   6.550   9.555  0.2688  0.0255 -0.1704
20431W        W24831   8.983   1.388   3.048  0.1329  0.0561  0.0963
20432W        W24832  25.869   0.637  14.304 -0.0076 -0.1277 -0.1272
20433W        W24833  25.843   5.974  35.393  0.2701  0.0984 -0.2005
20434W        W24834   5.816   4.059  28.680  0.0991 -0.1198  0.1651
20435W        W24835   8.081   5.359  26.233 -0.1040  0.2485  0.1146
20436W        W24836   1.720   0.894  29.608 -0.0869  0.0488 -0.0806
20437W        W24837   2.556   5.305  27.343 -0.1433  0.0335  0.1578
20438W        W24838   3.514   3.027  29.652  0.0257 -0.0128  0.0182
20439W        W24839  24.846   6.161   8.539  0.2948  0.0574  0.0684
20440W        W24840  11.056   1.562   3.471  0.2481  0.2318 -0.1209
20441W        W24841   3.462   1.978  29.765 -0.0072  0.2333  0.2848
20442W        W24842   5.265   5.568  24.509  0.3123 -0.1178  0.0062
20443W        W24843  19.228   2.644  34.068  0.0104 -0.0560 -0.3507
20444W        W24844  15.634   0.882  22.897  0.0352  0.2410  0.2410
20445W        W24845  26.002   1.026  26.914 -0.0044 -0.0096  0.1379
20446W        W24846  18.129   0.583   3.385  0.1108 -0.0184  0.1150
20447W        W24847  24.526   4.609   7.544 -0.2746  0.0393 -0.1456
20448W        W24848  24.122   1.440   9.703  0.1495 -0.0593 -0.1587
20449W        W24849  24.537   0.706  12.379  0.1994 -0.1782  0.3231
20450W        W24850  11.574   1.603  14.466  0.0290  0.2546 -0.1808
20451W        W24851  16.039   4.006  22.213  0.1672 -0.0847  0.0911
20452W        W24852   4.227   3.357  33.796  0.0483  0.0402  0.0748
20453W        W24853  25.997   3.806  34.895 -0.0720 -0.0006 -0.1126
20454W        W24854  19.189   2.174   9.384 -0.0031 -0.1288 -0.1003
20455W        W24855  15.172   5.897  27.591 -0.1524  0.2979  0.1813
20456W        W24856  19.493   4.506   6.349  0.0298 -0.1089  0.0040
20457W        W24857  12.233   0.745  13.419 -0.2359 -0.1860  0.0155
20458W        W24858  24.232   1.145  27.071 -0.0155 -0.0023 -0.1212
20459W        W24859  11.952   2.078  35.880 -0.0120  0.0527  0.1271
20460W        W24860  26.311   1.137   6.042  0.0644 -0.0915 -0.2729
20461W        W24861  19.634   5.896   4.180 -0.1959 -0.2041  0.0176
20462W        W24862  26.337   2.783  26.758 -0.1202  0.0795 -0.1247
20463W        W24863   9.994   2.840   8.335  0.2682  0.1016 -0.0425
20464W        W24864   1.012   0.506  27.921 -0.0593 -0.0591  0.0995
20465W        W24865  24.997   1.956  13.881 -0.0819  0.1167 -0.2648
20466W        W24866   4.858   5.992  27.707  0.0559  0.2860  0.0290
20467W        W24867   8.655   2.971   5.267 -0.1659  0.2186  0.0011
20468W        W24868   0.840   4.645  29.113 -0.0964  0.2156 -0.0951
20469W        W24869  24.636   2.703  24.734 -0.0635 -0.3692 -0.0811
20470W        W24870  20.463   1.034  14.525  0.1297 -0.2972 -0.3525
20471W        W24871  14.940   1.455  29.607 -0.0441 -0.1959 -0.3057
20472W        W24872  11.832   1.763  29.710  0.2242  0.1177  0.0459
20473W        W24873   6.026   5.454  33.114 -0.4041  0.2848  0.0818
20474W        W24874   2.469   2.853   6.331  0.2207  0.0337  0.2014
20475W        W24875  20.767   2.461   9.051 -0.3232 -0.0408 -0.4438
20476W        W24876  16.489   5.591  26.071  0.1972 -0.0607  0.1783
20477W        W24877  20.608   1.479  34.622 -0.0588 -0.2057 -0.1502
20478W        W24878   7.507   1.636   7.157 -0.0043  0.0916  0.1887
20479W        W24879  24.746   5.140   9.171  0.1709 -0.0936  0.3916
20480W        W24880  14.067   4.826  35.916  0.0591  0.0465 -0.0096
20481W        W24881  25.647   0.721  28.340  0.1208 -0.0438 -0.0023
20482W        W24882  19.556   0.422  34.787  0.3548 -0.0133 -0.4559
20483W        W24883   6.315   5.069  25.774 -0.2170 -0.0300  0.0995
20484W        W24884   0.284   2.095  26.733 -0.0723  0.0084 -0.3399
20485W        W24885  10.847   4.953  28.088 -0.1036  0.0659  0.0088
20486W        W24886   5.473   4.847   0.581  0.0740 -0.1268 -0.2850
20487W        W24887  21.898   1.313   7.348  0.1947  0.1428 -0.0277
20488W        W24888  14.814   1.489  34.187 -0.2068 -0.1184  0.0794
20489W        W24889   4.255   5.008  11.685  0.3602 -0.1803 -0.1052
20490W        W24890  17.284   4.705  25.434  0.0767  0.0203  0.0018
20491W        W24891  25.393   3.505   4.365  0.2809  0.0776 -0.2983
20492W        W24892  16.692   2.655  21.756 -0.2303 -0.1897 -0.1240
20493W        W24893   0.017   0.766  25.120  0.1610  0.3078  0.2565
20494W        W24894   9.049   4.587  20.613  0.2015  0.0088  0.3180
20495W        W24895  26.040   5.554  25.071 -0.1678 -0.1187 -0.0077
20496W        W24896   3.233   1.647  34.370 -0.2015  0.0507 -0.2292
20497W        W24897   5.244   1.911  34.158 -0.0052 -0.0840 -0.2713
20498W        W24898   2.376   2.529  21.484 -0.1533  0.1820  0.2111
20499W        W24899  11.026   2.424  22.089  0.0092 -0.1108 -0.2511
20500W        W24900  21.077   5.705  33.668  0.1584 -0.0728 -0.0353
20501W        W24901   2.339   4.128   2.225  0.0262  0.0476 -0.2425
20502W        W24902  12.725   2.888  27.683 -0.1334  0.0547  0.0777
20503W        W24903   0.642   5.990  22.428  0.2583 -0.1666  0.0617
20504W        W24904   3.462   5.516  21.780  0.0868  0.2080  0.0152
20505W        W24905  13.435   5.889  31.907 -0.0479 -0.0680 -0.3051
20506W        W24906  24.045   4.360  27.025 -0.3001 -0.4020 -0.1819
20507W        W24907  11.488   5.322   1.203 -0.2287 -0.0678 -0.1378
20508W        W24908  20.983   2.417  35.306 -0.2369  0.1020  0.0734
20509W        W24909  23.951   2.462  35.520  0.2320 -0.0039 -0.0743
20510W        W24910  22.324   6.526   7.627 -0.3455 -0.3235  0.0681
20511W        W24911  12.451   5.701  34.502 -0.0341  0.0146 -0.1068
20512W        W24912   8.026   2.163  30.241  0.1034 -0.1964 -0.1165
20513W        W24913  18.852   3.084  31.052  0.1053  0.2066 -0.3749
20514W        W24914  14.794   0.009  25.273 -0.2531 -0.0829  0.4599
20515W        W24915  25.176   3.199  32.042  0.0148 -0.0410 -0.0643
20516W        W24916   2.835   4.432  36.011  0.0869 -0.3036  0.2847
20517W        W24917  25.185   3.244  26.320 -0.2384 -0.0778 -0.0728
20518W        W24918   7.280   5.674  32.402 -0.1666  0.2083 -0.1823
20519W        W24919  22.415   2.606  23.210 -0.2022  0.1031 -0.0453
20520W        W24920   2.772   3.109   0.271  0.0453  0.0109  0.1187
20521W        W24921  26.079   4.346   6.738  0.1930  0.0460  0.2408
20522W        W24922   7.252   2.790   2.587  0.1608  0.0718 -0.0553
20523W        W24923  15.322   3.516  11.757 -0.1360 -0.1810 -0.2328
20524W        W24924   5.031   5.791  31.463  0.3014  0.0443 -0.1884
20525W        W24925  26.152   0.101  30.275  0.3718 -0.0207 -0.0685
20526W        W24926  10.695   3.063  29.341  0.3339 -0.1208 -0.0370
20527W        W24927  13.430   1.512   7.610 -0.2416  0.0904 -0.0784
20528W        W24928  13.072   1.852   6.874  0.1612  0.1123  0.2503
20529W        W24929   4.107   4.509  11.766 -0.0041 -0.0007  0.1071
20530W        W24930   9.769   6.457   8.663  0.0661 -0.2708 -0.2356
20531W        W24931   5.875   1.811  30.656  0.1055  0.0984  0.1580
20532W        W24932  22.610   1.263  30.516  0.0264  0.2116 -0.0523
20533W        W24933   3.831   1.567  10.448 -0.3095 -0.2539  0.2563
20534W        W24934  15.860   4.608   7.054 -0.1233  0.2068  0.0957
20535W        W24935   8.507   4.342  12.334 -0.1272  0.0381  0.0730
20536W        W24936  14.917   3.803   2.007 -0.0897 -0.2085 -0.1198
20537W        W24937  13.334   0.704  28.791 -0.0909  0.1894 -0.0869
20538W        W24938   3.217   4.368   4.564  0.1568  0.0054 -0.1485
20539W        W24939   4.816   4.621   3.701 -0.1752  0.0663 -0.0403
20540W        W24940   4.994   3.277  29.193 -0.1237 -0.0455  0.1396
20541W        W24941   4.680   2.491  20.474 -0.1450  0.0295  0.0800
20542W        W24942   2.935   1.512  13.719 -0.2285 -0.0449  0.1662
20543W        W24943  11.572   5.669  21.345  0.2140  0.1150  0.2900
20544W        W24944  20.652   1.648  25.082  0.1132 -0.3474 -0.1081
20545W        W24945  20.476   1.268   5.909  0.1261  0.1453 -0.2100
20546W        W24946  10.940   5.036  13.172 -0.0295  0.0770  0.1552
20547W        W24947   7.053   2.655  11.401 -0.1041  0.1642  0.0791
20548W        W24948   3.549   2.519  22.906 -0.1293 -0.1440 -0.1459
20549W        W24949  17.129   5.592  25.569  0.2046 -0.2717 -0.1491
20550W        W24950  12.728   0.724  10.424  0.2064  0.2850  0.0521
20551W        W24951  26.053   6.333  33.294 -0.1004 -0.0463 -0.0923
20552W        W24952  11.968   5.630  24.889 -0.0973  0.1032 -0.1675
20553W        W24953   2.996   2.549   9.018  0.0302  0.0288  0.0170
20554W        W24954   6.690   4.023  28.995 -0.1325 -0.0553 -0.0889
20555W        W24955  13.829   5.559  35.748 -0.2473 -0.0130 -0.0080
20556W        W24956  14.926   0.727   7.382 -0.1657  0.3529  0.2229
20557W        W24957  16.763   3.223  33.426  0.0852  0.0319  0.0934
20558W        W24958   9.647   5.460  33.143  0.3598  0.2507 -0.1666
20559W        W24959   6.038   6.062  22.551  0.0003 -0.1260 -0.1447
20560W        W24960  19.536   5.146   0.513  0.4034  0.3885 -0.0962
20561W        W24961  20.419   3.325   8.681 -0.1540  0.1730 -0.0152
20562W        W24962   0.627   1.916   1.301 -0.0809 -0.1405 -0.1066
20563W        W24963   4.006   4.134  11.496 -0.3447 -0.0165 -0.0535
20564W        W24964   7.919   1.866   1.149 -0.1315 -0.1845  0.1053
20565W        W24965  20.732   5.829  22.964 -0.0908 -0.1773  0.0659
20566W        W24966  16.793   2.217   6.784  0.1268 -0.0036  0.2232
20567W        W24967   6.822   4.039  34.700 -0.0869  0.0277 -0.1464
20568W        W24968  16.233   3.806   0.541  0.1890  0.1476 -0.0382
20569W        W24969  17.661   0.064   8.247  0.0746 -0.3980  0.0274
20570W        W24970  10.748   0.471  30.063 -0.2620  0.1601  0.0336
20571W        W24971   4.697   5.078  30.463 -0.1146  0.1902 -0.0673
20572W        W24972   8.029   5.728   6.542  0.1720  0.1636  0.3250
20573W        W24973  13.656   3.890  23.228  0.5190 -0.0920  0.1253
20574W        W24974  11.370   0.116  14.162  0.2321 -0.2717 -0.0310
20575W        W24975   4.507   4.421   0.003 -0.1724 -0.1169 -0.0781
20576W        W24976   7.826   0.947  13.998  0.2681 -0.2896  0.1654
20577W        W24977  21.998   4.995  22.221 -0.1651  0.0164  0.4309
20578W        W24978  23.447   0.654  28.840 -0.0961  0.0158 -0.0643
20579W        W24979   6.948   4.179  10.557  0.2829 -0.1515  0.2880
20580W        W24980  19.588   2.544  26.170  0.2334  0.1867  0.0440
20581W        W24981   0.528   3.269   3.786 -0.1221  0.1265  0.1797
20582W        W24982  23.646   6.051  30.162  0.0054 -0.2402 -0.0672
20583W        W24983   1.092   5.215  21.851  0.1550 -0.2591  0.0381
20584W        W24984   2.071   1.120  27.192  0.0840  0.1148 -0.2913
20585W        W24985  14.709   4.553   6.412 -0.4886  0.1129  0.2097
20586W        W24986   6.561   3.543  32.351 -0.1678 -0.1345 -0.1872
20587W        W24987   2.146   3.692  30.460  0.0547  0.0658 -0.1374
20588W        W24988  14.942   1.852  16.194  0.1105 -0.0958  0.2280
20589W        W24989  26.102   2.485  31.503 -0.0371  0.1732  0.0683
20590W        W24990  26.358   5.155   6.242 -0.2428  0.4249 -0.2917
20591W        W24991   5.459   3.633  23.233  0.1117 -0.2358  0.0592
20592W        W24992   2.029   2.957  22.433 -0.2263 -0.0713  0.0669
20593W        W24993  17.122   0.330  21.211 -0.1195 -0.0913 -0.0297
20594W        W24994   7.097   0.683  35.756 -0.2448 -0.0198  0.2654
20595W        W24995   1.010   1.088  13.886  0.0086 -0.2450  0.0076
20596W        W24996   0.426   6.422   2.531  0.0640 -0.0002 -0.0427
20597W        W24997  24.361   4.854   9.463  0.1212  0.1042 -0.1828
20598W        W24998  21.044   5.021   2.117  0.0010  0.1630 -0.1010
20599W        W24999  18.976   6.400   4.624  0.2782  0.1570 -0.0719
20600W        W25000  17.600   6.000  29.378  0.1604 -0.0595 -0.1330
20601W        W25001   1.594   4.309   7.526 -0.1421 -0.0242  0.2455
20602W        W25002  18.105   2.091   1.729  0.3044 -0.1334 -0.5648
20603W        W25003   4.473   4.439  14.599  0.1331 -0.0805 -0.2289
20604W        W25004  23.056   5.529  29.538  0.0299 -0.0274  0.0845
20605W        W25005   0.211   3.032  28.934 -0.0077  0.0581  0.1295
20606W        W25006   4.302   5.777  33.248  0.1305  0.0384 -0.1781
20607W        W25007   1.469   0.168   7.808  0.0853  0.2059  0.0166
20608W        W25008   7.276   1.970   3.214  0.3137 -0.1015 -0.1794
20609W        W25009   4.261   4.671   5.731 -0.0800  0.1841 -0.0107
20610W        W25010   9.524   5.720  30.506  0.2588 -0.2116 -0.0317
20611W        W25011  24.891   3.074  33.951  0.2199 -0.0605  0.0614
20612W        W25012   0.446   1.257  20.337 -0.1179 -0.0477 -0.4128
20613W        W25013  12.391   0.038  33.838  0.0774  0.1324  0.3904
20614W        W25014  12.883   2.813   9.508  0.0416 -0.2769  0.0132
20615W        W25015  18.225   2.582  10.664  0.2794 -0.3583  0.1236
20616W        W25016  12.204   2.016  32.773 -0.4271 -0.0376 -0.4986
20617W        W25017   3.274   3.723   0.315 -0.0841  0.1669  0.0006
20618W        W25018  23.913   1.553  33.713  0.1204 -0.3153 -0.0521
20619W        W25019  19.414   6.182  10.822 -0.1839  0.2559 -0.1421
20620W        W25020   1.554   2.882  25.531  0.3521 -0.0780 -0.2052
20621W        W25021   9.195   0.802  28.616  0.1846 -0.0361  0.0295
20622W        W25022  23.354   3.789  26.591 -0.2139  0.0452 -0.0748
20623W        W25023  19.767   0.487   1.514 -0.1476  0.1910  0.1179
20624W        W25024   3.856   0.408   5.598 -0.1259 -0.0108  0.1143
20625W        W25025  21.964   6.047   0.497 -0.1503 -0.1328 -0.0810
20626W        W25026  15.725   1.875   7.910  0.0835  0.1938 -0.1884
20627W        W25027   3.956   3.181  35.697  0.2116  0.3269 -0.0261
20628W        W25028  14.169   1.367  28.656 -0.1003  0.1458  0.1324
20629W        W25029   4.925   2.613  34.992  0.0189  0.0323  0.3042
20630W        W25030  10.126   2.970  30.477 -0.1594  0.0887  0.1100
20631W        W25031  17.618   4.277  25.550 -0.2409  0.0865 -0.1141
20632W        W25032   6.651   4.730   7.646 -0.4008 -0.1295 -0.1063
20633W        W25033  24.077   4.587  35.116  0.2667 -0.0575 -0.2594
20634W        W25034  20.129   0.440  34.347  0.1088  0.1572 -0.0075
20635W        W25035  22.103   2.337   6.269 -0.1136  0.0253 -0.1095
20636W        W25036   8.988   1.238  36.044 -0.3045  0.1278 -0.0666
20637W        W25037  18.363   6.150  22.966  0.1662 -0.0244 -0.1070
20638W        W25038  25.026   4.605  20.476  0.1889 -0.2862 -0.1921
20639W        W25039  12.572   6.450   9.481 -0.1237  0.2208 -0.2119
20640W        W25040  25.471   2.775   2.839 -0.0063  0.0334 -0.0837
20641W        W25041  10.869   4.430  33.643 -0.0418 -0.4466 -0.1866
20642W        W25042  25.120   4.768  34.469  0.0478  0.0356 -0.0952
20643W        W25043  17.758   0.910  35.096 -0.1315  0.0805  0.1894
20644W        W25044   9.745   0.195  11.763 -0.2844  0.0479 -0.0763
20645W        W25045  18.975   6.053  26.206 -0.0390 -0.1249  0.2576
20646W        W25046  10.226   3.655  14.779  0.0171  0.2330 -0.2461
20647W        W25047   6.675   6.508  32.192 -0.0393  0.1915 -0.0868
20648W        W25048   6.359   0.269  13.418  0.1396  0.1851 -0.3778
20649W        W25049  17.111   5.580  21.099 -0.5581 -0.3318 -0.0118
20650W        W25050   9.315   2.845  32.970 -0.0332 -0.2494  0.0594
20651W        W25051   2.340   1.752  31.358  0.0209 -0.1381 -0.1502
20652W        W25052   7.627   1.902  29.877 -0.0628 -0.7031  0.0039
20653W        W25053   2.836   3.422   1.349  0.2385 -0.3419  0.1142
20654W        W25054   3.194   1.689  35.678  0.2932 -0.3622 -0.0047
20655W        W25055  21.863   2.534  21.727  0.2051 -0.0481  0.2427
20656W        W25056   3.960   0.284  31.435 -0.1369 -0.0504 -0.2697
20657W        W25057  26.372   4.469  35.962 -0.0755  0.1717  0.2159
20658W        W25058  10.460   5.985   7.324 -0.2016 -0.1654 -0.0377
20659W        W25059   0.263   6.138  31.596  0.0437 -0.0138 -0.2471
20660W        W25060  21.622   6.305  34.546 -0.0729  0.0172 -0.1219
20661W        W25061   7.357   3.933  26.057 -0.2580 -0.0188 -0.0116
20662W        W25062  17.081   5.564  32.896 -0.2910 -0.3609  0.0385
20663W        W25063  16.705   4.457   5.113 -0.0959 -0.1010  0.0872
20664W        W25064  19.717   5.214  21.772  0.0007 -0.1089 -0.1166
20665W        W25065  11.388   1.578  15.017  0.0837 -0.1512 -0.0536
20666W        W25066   8.109   1.403  27.983  0.0992  0.1738  0.1497
20667W        W25067  10.011   1.291  31.897 -0.0957  0.0271  0.0369
20668W        W25068  18.988   0.487  10.210  0.1392 -0.1305  0.0545
20669W        W25069   8.827   2.495  29.459 -0.2048 -0.0969  0.0082
20670W        W25070   5.884   4.951  29.031 -0.0062  0.2369 -0.0740
20671W        W25071  11.400   3.127  10.435 -0.4059 -0.0223  0.0142
20672W        W25072  18.597   0.514   3.227 -0.2613  0.1607 -0.1706
20673W        W25073  21.328   5.128  13.017  0.2758  0.2245 -0.0218
20674W        W25074  18.853   2.237  25.250 -0.1544 -0.0282  0.0492
20675W        W25075   3.550   2.503   9.578 -0.2378 -0.1788 -0.2506
20676W        W25076  20.955   5.077  14.800  0.0451 -0.0684  0.0844
20677W        W25077  16.538   1.001  27.792  0.1652  0.0094 -0.1131
20678W        W25078  11.266   2.063  33.869 -0.0198 -0.0496 -0.1675
20679W        W25079  26.018   4.624  33.062  0.0264  0.1167  0.2236
20680W        W25080   8.868   3.488   9.589  0.1530  0.3390 -0.1338
20681W        W25081   5.892   0.009   5.242 -0.1097 -0.1416  0.2410
20682W        W25082  18.127   0.947   0.717 -0.0996 -0.0368  0.2506
20683W        W25083  20.483   4.177   2.781 -0.1008 -0.3606  0.0862
20684W        W25084  17.547   3.863  33.288  0.4247 -0.1533  0.1739
20685W        W25085   5.596   1.587  23.086  0.0749  0.0631 -0.1251
20686W        W25086   2.553   0.525  29.854  0.2538 -0.0703  0.2974
20687W        W25087   8.732   5.226  23.050 -0.1364  0.0959  0.4694
20688W        W25088  12.031   4.522  15.665  0.1068 -0.1922 -0.1291
20689W        W25089  16.148   0.879   0.848  0.3274 -0.1597  0.0751
20690W        W25090  14.987   0.602   8.482 -0.0653 -0.2436  0.3402
20691W        W25091  26.261   3.456  19.805  0.0823 -0.3665  0.1405
20692W        W25092  24.799   0.043   8.580 -0.0871  0.0177  0.0221
20693W        W25093  16.768   4.720  30.511  0.0153  0.2519  0.0742
20694W        W25094   8.137   2.463  33.440  0.1279  0.1973  0.2650
20695W        W25095  15.614   2.828  29.910  0.2728  0.0040  0.2510
20696W        W25096  18.780   3.955  10.711  0.0185  0.0088 -0.1681
20697W        W25097  10.306   0.763   0.845 -0.2266  0.1156 -0.0109
20698W        W25098  19.255   3.668  26.817 -0.0302 -0.0522  0.1022
20699W        W25099  26.020   3.496  35.723 -0.0504 -0.3164  0.1231
20700W        W25100  25.857   4.419   0.157 -0.2242  0.0276  0.0657
20701W        W25101  25.228   3.294  23.947  0.0388 -0.1937  0.1081
20702W        W25102   4.752   4.394   0.514 -0.1038 -0.0525 -0.1118
20703W        W25103  17.638   5.135  15.241 -0.0379  0.0457  0.1244
20704W        W25104  18.257   3.829  31.030  0.1542 -0.0403  0.0681
20705W        W25105  14.445   3.186   8.217  0.1659 -0.1337  0.3456
20706W        W25106  16.698   2.710  25.188 -0.0668  0.0525  0.3009
20707W        W25107  13.945   5.409  22.993 -0.0978 -0.3151 -0.1983
20708W        W25108   7.480   4.167   5.435  0.1628 -0.0410 -0.2422
20709W        W25109  24.857   1.076  29.976  0.0257  0.1974  0.2583
20710W        W25110  26.398   5.414  29.996  0.0437 -0.3198 -0.0529
20711W        W25111   8.240   6.496  28.055 -0.0652  0.2570 -0.0670
20712W        W25112  14.811   4.352  14.578 -0.0891 -0.0716 -0.2436
20713W        W25113   5.002   0.900  10.021 -0.2759 -0.1285 -0.0162
20714W        W25114   1.739   0.835  13.918 -0.4371  0.1085 -0.3184
20715W        W25115  14.706   3.677  11.272  0.1196 -0.1354 -0.0156
20716W        W25116  16.007   2.044   0.030 -0.0787  0.2666 -0.3006
20717W        W25117  12.153   5.220   9.830  0.0165 -0.1022 -0.0717
20718W        W25118  21.115   6.525  10.940 -0.1354 -0.0887 -0.0362
20719W        W25119  22.879   6.293   4.494 -0.2309 -0.3556  0.1293
20720W        W25120  20.020   4.660  33.490 -0.0569  0.1944  0.0005
20721W        W25121  17.628   4.388   3.218  0.1866  0.0726  0.2326
20722W        W25122  12.295   2.777  14.585  0.1934 -0.1174 -0.2527
20723W        W25123   4.607   3.383  11.188  0.0836 -0.0787 -0.0915
20724W        W25124   4.366   2.374  14.602 -0.1615 -0.2029  0.0456
20725W        W25125   3.012   4.901   9.841  0.1322  0.1586  0.3091
20726W        W25126   2.331   1.473  32.345  0.1272  0.1835  0.2568
20727W        W25127   2.859   0.258  22.722 -0.1903 -0.0353 -0.1177
20728W        W25128  11.736   1.952  25.980  0.0566  0.0084  0.1069
20729W        W25129  24.625   4.935  34.623  0.0023 -0.0728  0.1304
20730W        W25130   6.303   2.560   6.074 -0.0712 -0.1263 -0.0757
20731W        W25131  25.883   5.880  33.428  0.0165 -0.2594 -0.3237
20732W        W25132   1.666   3.775  29.594 -0.2152  0.3199 -0.1873
20733W        W25133  20.004   4.280   4.486  0.1477 -0.1946 -0.0622
20734W        W25134  17.959   5.786  28.395 -0.1955  0.1127  0.2985
20735W        W25135  19.977   0.569  22.571 -0.0514 -0.1097 -0.0329
20736W        W25136  16.064   4.453  32.759 -0.1657 -0.1223  0.1185
20737W        W25137  17.946   1.009  10.715  0.3931  0.1655  0.0237
20738W        W25138  13.761   4.440  29.784  0.1247 -0.1530 -0.0900
20739W        W25139   5.818   1.210   1.044 -0.2435 -0.0239  0.2622
20740W        W25140   0.898   0.247  27.491  0.0113 -0.0875  0.0062
20741W        W25141  19.403   4.188  12.824  0.3101 -0.1637 -0.1760
20742W        W25142  10.079   3.384   4.984  0.0507  0.1921  0.1331
20743W        W25143   1.613   1.368  33.497  0.0982 -0.2545  0.0554
20744W        W25144  23.623   1.890   7.939  0.1401  0.2242 -0.0077
20745W        W25145   6.385   3.750   8.744 -0.2773 -0.2471  0.0378
20746W        W25146  11.852   3.271   0.182 -0.3099  0.1869  0.1403
20747W        W25147   1.124   2.809  14.607 -0.2427  0.1624  0.0918
20748W        W25148   1.572   1.489   9.280 -0.2562 -0.1296  0.1388
20749W        W25149  22.627   4.458  21.956  0.0359 -0.3601  0.0954
20750W        W25150  25.843   4.874   2.655 -0.1497 -0.0553  0.1458
20751W        W25151  16.831   3.481  31.292 -0.2286  0.0246  0.0619
20752W        W25152   7.008   3.367  21.881 -0.0119 -0.0353 -0.1289
20753W        W25153  14.856   0.657  15.212  0.1450  0.0339  0.3060
20754W        W25154   8.603   3.916  10.619 -0.1593  0.1476 -0.1410
20755W        W25155  20.787   5.008  25.847 -0.4243  0.1156 -0.0077
20756W        W25156   3.373   4.162  25.388  0.0123  0.2734  0.1344
20757W        W25157   5.353   0.707   8.620 -0.0612 -0.1191  0.0055
20758W        W25158   8.977   0.687   2.192  0.1437  0.2956  0.2187
20759W        W25159  18.232   3.664   4.996  0.0115 -0.0627 -0.0726
20760W        W25160   5.505   2.380  34.307 -0.1687  0.1192  0.0011
20761W        W25161   1.504   4.675  32.137 -0.0871 -0.0287 -0.0289
20762W        W25162   5.547   5.294  14.909 -0.0997 -0.1624 -0.3908
20763W        W25163   1.106   2.104  26.208 -0.1854  0.0041 -0.0509
20764W        W25164  19.580   5.426  12.153 -0.3548 -0.1824 -0.0544
20765W        W25165   6.225   3.230   7.293  0.0454 -0.2895 -0.1262
20766W        W25166  26.010   2.517  27.188  0.1544 -0.0487  0.2144
20767W        W25167   4.595   4.792   9.883  0.1496 -0.2081  0.0523
20768W        W25168  17.541   4.653  29.917  0.0285 -0.0269  0.0682
20769W        W25169  23.346   6.064  35.802 -0.0609 -0.1684  0.0983
20770W        W25170  15.531   2.279  27.177  0.1349  0.2838 -0.0499
20771W        W25171   8.438   1.250   0.033  0.3263  0.0509 -0.0882
20772W        W25172  15.810   0.170  24.286  0.4733 -0.2205  0.0009
20773W        W25173   6.331   6.283  21.665 -0.0739 -0.0989  0.2617
20774W        W25174   7.138   5.139  34.943 -0.1869  0.0162 -0.3978
20775W        W25175  16.924   4.387  15.518  0.1955 -0.0383 -0.2653
20776W        W25176  19.564   0.435  28.495  0.2427  0.1400 -0.0110
20777W        W25177  16.426   6.591  34.972 -0.2088 -0.0052 -0.2229
20778W        W25178  15.828   6.185  32.394  0.2082  0.1944 -0.1043
20779W        W25179   7.683   0.299  30.590 -0.0770 -0.3009  0.1038
20780W        W25180   4.726   1.196  24.544 -0.0305 -0.0020 -0.1285
20781W        W25181  20.086   5.874   7.874  0.3369 -0.0296 -0.0272
20782W        W25182  24.093   1.658  28.618 -0.0456  0.1413 -0.0525
20783W        W25183  18.114   4.174   9.573 -0.0459 -0.0902  0.3508
20784W        W25184  15.440   0.884  22.129 -0.0752  0.2323 -0.1639
20785W        W25185   3.686   4.311   2.497  0.1378  0.0796 -0.1055
20786W        W25186  14.802   6.399  29.106  0.0250  0.0377 -0.1244
20787W        W25187  13.030   0.508   4.483 -0.0668  0.0409  0.0638
20788W        W25188  18.147   1.309   5.854  0.1887 -0.0105  0.0079
20789W        W25189  11.016   2.681   5.193  0.3260 -0.2170 -0.2800
20790W        W25190   4.643   3.734  34.492  0.3731  0.0042 -0.4143
20791W        W25191  11.394   6.548   5.259 -0.4164  0.0818  0.6205
20792W        W25192  15.646   5.802  34.717  0.2959 -0.2524  0.0211
20793W        W25193   5.242   1.468   3.783 -0.0773  0.1014  0.0951
20794W        W25194   5.851   3.358  11.626 -0.1064 -0.5071  0.2789
20795W        W25195   2.431   0.435   2.524  0.2530 -0.0925  0.2181
20796W        W25196  19.442   6.433  28.680 -0.4087 -0.1472 -0.1637
20797W        W25197  13.212   4.474  32.247 -0.1663  0.0841 -0.3431
20798W        W25198  20.088   0.922   4.500 -0.3272  0.1384  0.2754
20799W        W25199   1.368   2.695   3.726 -0.0022  0.2717 -0.0923
20800W        W25200   6.305   4.908  13.229 -0.3051  0.3261  0.0055
20801W        W25201  19.459   3.790   8.177 -0.0107  0.0724 -0.0327
20802W        W25202  10.151   0.719   8.664  0.0047 -0.1174 -0.1633
20803W        W25203  25.417   4.734   3.681  0.2375  0.1265  0.2161
20804W        W25204   3.572   0.207  30.896 -0.0900 -0.1741 -0.0825
20805W        W25205   1.458   4.503   2.748 -0.0932  0.1091  0.0642
20806W        W25206  19.292   1.380  10.558 -0.2620 -0.1062 -0.1310
20807W        W25207   7.842   5.356  14.185  0.0402 -0.0451  0.0555
20808W        W25208   1.199   1.054  10.890  0.0924  0.2910  0.1347
20809W        W25209  12.095   2.907   1.052  0.3259 -0.1515 -0.2099
20810W        W25210  14.294   2.698   9.415  0.1440  0.4132 -0.1927
20811W        W25211  25.874   5.083   4.442  0.2912  0.0159  0.1518
20812W        W25212   6.241   2.682   8.414  0.2911  0.0132  0.3620
20813W        W25213  19.215   5.826   5.561 -0.1124  0.0070  0.0734
20814W        W25214  10.967   1.294  13.284  0.3232  0.1221  0.1043
20815W        W25215  10.135   5.121   9.159 -0.1361  0.1080 -0.0970
20816W        W25216  20.816   4.267  33.275  0.1644  0.2406 -0.0145
20817W        W25217  11.239   3.934  32.009  0.2869  0.2996  0.1255
20818W        W25218   3.668   3.769  10.469 -0.2433  0.1597  0.0074
20819W        W25219  13.889   0.014   1.201 -0.1028  0.1998  0.3598
20820W        W25220  25.123   3.040  11.963  0.0092 -0.0238  0.2002
20821W        W25221  10.732   1.983  30.102 -0.1160  0.2232  0.0103
20822W        W25222  25.728   6.419  22.645  0.2939 -0.0239 -0.1233
20823W        W25223   8.467   2.586  21.288 -0.1254  0.0496  0.0640
20824W        W25224   4.387   6.467   2.350 -0.0290  0.2283  0.3277
20825W        W25225   3.340   1.744   7.382  0.0581  0.0793 -0.1494
20826W        W25226   8.163   0.368  32.548  0.0277 -0.0954  0.2682
20827W        W25227  24.782   2.594  11.644  0.0835 -0.0890  0.0010
20828W        W25228   0.609   4.167   1.563  0.0587  0.1592 -0.1377
20829W        W25229  24.104   2.791  21.701 -0.0019  0.1024 -0.1031
20830W        W25230  21.565   4.893   6.468  0.1665 -0.0349 -0.5989
20831W        W25231   9.812   4.223  21.053  0.2338 -0.0810 -0.0502
20832W        W25232  11.672   6.015  24.918  0.1131 -0.0050 -0.0983
20833W        W25233   7.805   2.358  13.535 -0.0414  0.0257 -0.2594
20834W        W25234  20.287   0.217   5.248  0.0220  0.1347  0.3288
20835W        W25235   0.323   6.463  13.562  0.0349  0.1451 -0.1232
20836W        W25236  10.042   4.265  32.115 -0.0098  0.1044  0.1605
20837W        W25237   1.305   3.621  35.668  0.0207  0.1258 -0.0522
20838W        W25238   8.239   2.571  33.895  0.0807  0.1529  0.1337
20839W        W25239  14.825   2.460  28.915  0.1158 -0.1624  0.0131
20840W        W25240   1.457   1.648  34.228 -0.2211  0.1065 -0.2553
20841W        W25241  21.651   2.610  31.702 -0.0939 -0.1725  0.0660
20842W        W25242   1.318   4.010   4.434  0.0380 -0.0252 -0.5225
20843W        W25243  20.169   1.119  24.095  0.2624 -0.0067 -0.2383
20844W        W25244   0.470   4.622   7.868 -0.0178 -0.1401  0.0831
20845W        W25245  15.934   6.381  21.746 -0.2354 -0.2070 -0.2895
20846W        W25246  24.892   4.750   3.575  0.0758  0.3381  0.0166
20847W        W25247   8.801   6.157   9.006  0.1063 -0.1231 -0.0409
20848W        W25248   7.509   5.444  27.932 -0.0961 -0.2250 -0.0935
20849W        W25249  10.740   2.830  11.591 -0.3240  0.1162  0.2162
20850W        W25250  18.742   4.720   9.610  0.1649 -0.0454 -0.1311
20851W        W25251  21.674   6.088  20.976 -0.1531  0.1209  0.1402
20852W        W25252  23.655   0.488   5.772  0.0996  0.0741  0.0026
20853W        W25253  23.233   0.000   3.391  0.2127  0.0090  0.1567
20854W        W25254   0.225   5.398  29.468  0.2541 -0.0253 -0.1783
20855W        W25255  14.152   5.347   7.024  0.1631  0.0782  0.1023
20856W        W25256  10.275   3.822  10.240 -0.2897 -0.0674  0.2382
20857W        W25257   7.131   3.437   5.390 -0.0054 -0.0054 -0.0630
20858W        W25258  14.061   5.818  33.008  0.2034  0.0527 -0.0662
20859W        W25259  19.856   5.249  29.158  0.0340  0.1680  0.0569
20860W        W25260  15.707   2.909  13.901  0.3239  0.0733 -0.2469
20861W        W25261  17.230   1.191  22.846 -0.1708 -0.0314  0.0013
20862W        W25262   5.594   1.544  15.080 -0.3408 -0.1914  0.2603
20863W        W25263   8.347   5.336  14.321  0.2600  0.1806  0.2339
20864W        W25264  18.350   0.021  28.340 -0.0759  0.0627 -0.2967
20865W        W25265   9.099   6.281  32.116  0.0548  0.2868 -0.0726
20866W        W25266  24.745   4.927   3.117 -0.1051  0.2001  0.1282
20867W        W25267   6.594   4.888   3.399  0.1333  0.1831  0.0554
20868W        W25268   0.512   2.274  11.441  0.1411 -0.0274 -0.0606
20869W        W25269   6.372   6.447  15.205 -0.1055 -0.0535  0.0557
20870W        W25270  23.418   6.554  12.122 -0.2249 -0.1253 -0.0282
20871W        W25271  20.966   2.419  14.211 -0.1808  0.2247 -0.1572
20872W        W25272   0.434   6.389  34.600 -0.1589  0.0153  0.0328
20873W        W25273  18.182   4.601  33.258 -0.0299 -0.0793  0.0036
20874W        W25274  18.855   4.669   3.042  0.3558  0.0165 -0.0121
20875W        W25275   2.069   3.234  21.183 -0.0137 -0.2076 -0.1043
20876W        W25276  23.831   4.966  10.804  0.2657  0.0814  0.3305
20877W        W25277   1.076   5.968  10.819 -0.0421 -0.1258  0.2782
20878W        W25278  18.078   1.686   8.416 -0.0020 -0.1748 -0.2294
20879W        W25279  12.355   1.070  20.084 -0.0535  0.0651  0.1900
20880W        W25280  25.091   0.141   3.308 -0.0656 -0.1089 -0.2070
20881W        W25281  22.660   0.463  10.120  0.0996 -0.0615  0.1190
20882W        W25282  10.289   1.051  27.064 -0.2302  0.0362  0.0598
20883W        W25283   7.710   1.095  22.403  0.2646 -0.0967  0.2250
20884W        W25284  13.663   5.746   0.589  0.0625  0.1176  0.1978
20885W        W25285  22.194   5.531  25.259  0.0548 -0.1576 -0.1768
20886W        W25286  22.325   3.988  30.556  0.2447  0.0275  0.1156
20887W        W25287  25.416   2.881  21.588 -0.0057 -0.3646 -0.1080
20888W        W25288   4.524   2.916  24.835 -0.2587  0.0013  0.1097
20889W        W25289   1.021   4.316  23.981 -0.0080  0.0880 -0.0357
20890W        W25290  15.776   3.959  26.810  0.2814 -0.3146 -0.0234
20891W        W25291  17.388   1.658  10.962  0.1116  0.0395  0.0989
20892W        W25292   7.688   6.287  11.520 -0.1339 -0.1895 -0.2192
20893W        W25293   7.705   0.561  14.820  0.3147  0.0531  0.1944
20894W        W25294   4.736   4.061  31.659 -0.1626  0.0914  0.0373
20895W        W25295   1.115   5.726  13.090 -0.1046 -0.0590 -0.0083
20896W        W25296   1.553   4.431  11.338 -0.1562 -0.1083  0.1850
20897W        W25297  13.006   0.802  30.697  0.0541  0.0492 -0.1757
20898W        W25298  21.959   1.185  10.568  0.1471 -0.2245 -0.3134
20899W        W25299  21.135   0.148   1.097 -0.0676 -0.1296 -0.1168
20900W        W25300  23.177   3.843  14.213  0.0328  0.1179 -0.0223
20901W        W25301  12.502   0.572  33.795  0.0818  0.0433  0.3475
20902W        W25302  24.417   0.324   0.209 -0.0424 -0.1657  0.1510
20903W        W25303   8.871   4.530  26.562 -0.1652  0.3053 -0.2430
20904W        W25304  20.962   5.571  14.905  0.1960 -0.1231 -0.0399
20905W        W25305  26.243   3.040  24.639  0.1716  0.4317 -0.2132
20906W        W25306   7.057   3.811   9.757 -0.2263 -0.0985  0.0757
20907W        W25307   8.777   3.032   9.874  0.2335 -0.0040  0.2210
20908W        W25308  23.763   5.457  24.771 -0.1138  0.3287  0.1310
20909W        W25309   9.179   1.539   7.048  0.0716  0.0519 -0.2976
20910W        W25310  14.044   0.381  26.890  0.1426 -0.1297  0.0185
20911W        W25311  24.485   6.590  27.699 -0.0295 -0.0130 -0.2431
20912W        W25312  19.460   5.894  25.997 -0.0423 -0.1840 -0.0437
20913W        W25313  20.515   3.175   3.806  0.2439 -0.0125  0.0477
20914W        W25314  11.706   0.757   0.639 -0.1396  0.1448 -0.2668
20915W        W25315  23.106   4.544  35.025  0.2322 -0.0912  0.1339
20916W        W25316  24.759   4.484  27.182 -0.0875 -0.2056 -0.1095
20917W        W25317  24.668   1.857   6.568 -0.0471 -0.2140  0.3640
20918W        W25318  14.482   1.217  31.405 -0.0073 -0.1022  0.0918
20919W        W25319  25.191   1.193   0.443 -0.0674 -0.0949 -0.0052
20920W        W25320   1.286   0.491   5.872  0.0350 -0.0765  0.3739
20921W        W25321   1.528   0.146   9.198 -0.1737 -0.1559  0.1564
20922W        W25322   3.092   1.579   6.315  0.0135  0.1362  0.0835
20923W        W25323  20.222   1.149  34.782  0.0893 -0.0924 -0.2534
20924W        W25324   0.238   2.733  13.640 -0.0345  0.3903 -0.0317
20925W        W25325  23.794   3.767  30.064  0.1017 -0.0434  0.1857
20926W        W25326  20.555   3.310   8.163 -0.0945  0.2666 -0.1555
20927W        W25327   5.571   4.350  12.676  0.1040 -0.2492  0.0205
20928W        W25328  17.436   3.340   8.098 -0.1774 -0.0844 -0.0438
20929W        W25329  12.914   1.866  22.392 -0.1142  0.0663 -0.1564
20930W        W25330   6.847   4.020  27.018 -0.3419 -0.1372  0.0610
20931W        W25331  14.664   1.985   5.254 -0.0430 -0.0161 -0.2847
20932W        W25332  20.330   2.123   6.723  0.1373 -0.0814  0.3516
20933W        W25333   5.952   5.137   8.789 -0.3639 -0.0202  0.1002
20934W        W25334  16.098   3.836  21.449  0.2473  0.1741 -0.0844
20935W        W25335   1.309   4.547  12.135 -0.0358  0.1474 -0.0509
20936W        W25336  14.308   5.668   5.867 -0.2818 -0.2097  0.2516
20937W        W25337   2.803   1.958  34.181 -0.0710  0.0784 -0.3551
20938W        W25338  18.815   5.823  26.603  0.1990 -0.2230 -0.0635
20939W        W25339  14.906   3.911  26.230 -0.0035 -0.0798 -0.0664
20940W        W25340  13.495   0.510  31.834  0.1073 -0.1296  0.1054
20941W        W25341  16.955   1.036   2.744 -0.2200 -0.2735 -0.3259
20942W        W25342  19.407   3.434  14.909  0.0613  0.0049 -0.1418
20943W        W25343  25.193   4.217  29.584 -0.1068 -0.0606 -0.0206
20944W        W25344  24.703   6.117  25.630  0.0624  0.0690 -0.1366
20945W        W25345   8.321   5.552  10.701 -0.3165  0.1160  0.2241
20946W        W25346  22.103   5.879  26.155 -0.1416  0.0584  0.2501
20947W        W25347  10.508   4.465  23.874  0.1234  0.2712 -0.1146
20948W        W25348   8.975   0.551  10.809  0.1851 -0.0188  0.1098
20949W        W25349   7.571   0.616   8.636 -0.1672  0.1161 -0.1893
20950W        W25350  14.551   0.200   1.795 -0.0623 -0.1022  0.1679
20951W        W25351  19.647   3.113  27.421  0.1738 -0.0612  0.1287
20952W        W25352  20.684   3.933   7.387 -0.1331 -0.0676 -0.3866
20953W        W25353  12.561   3.382   1.053 -0.0485  0.0870  0.0506
20954W        W25354  17.037   0.571   1.925  0.1668  0.1337 -0.0797
20955W        W25355   8.705   6.006  12.479 -0.1805  0.0211 -0.3932
20956W        W25356  10.681   1.605  23.956 -0.0384 -0.2458 -0.3157
20957W        W25357   4.871   4.503  22.352  0.0337 -0.2156 -0.0640
20958W        W25358  18.623   5.203   4.644 -0.0011 -0.0221 -0.0278
20959W        W25359   2.034   1.200  11.668  0.2289 -0.0312  0.0163
20960W        W25360  14.623   2.459  24.433  0.1269 -0.0116  0.2353
20961W        W25361  19.283   3.684  32.779 -0.1022 -0.1128  0.0102
20962W        W25362   6.680   6.405  28.895 -0.0461 -0.0883 -0.2223
20963W        W25363  16.596   0.110  10.972  0.1838  0.2850 -0.1776
20964W        W25364   8.048   3.141  30.066 -0.3289 -0.0822  0.0738
20965W        W25365   3.776   5.504  21.369 -0.0983  0.2662  0.0740
20966W        W25366  15.533   4.733  26.505  0.0332  0.1027 -0.0151
20967W        W25367  11.336   2.792  34.116 -0.2116  0.2957 -0.0018
20968W        W25368  19.851   0.828   0.091  0.0615 -0.1467  0.0262
20969W        W25369   1.730   3.851  24.889 -0.1909 -0.0281  0.3570
20970W        W25370   8.617   3.133  23.034  0.2899  0.1834 -0.1546
20971W        W25371   8.152   1.750  23.496  0.0038 -0.1267  0.2522
20972W        W25372  10.965   2.214  11.312 -0.2470  0.0362  0.3564
20973W        W25373   5.996   2.893  25.687  0.0662  0.1039 -0.0392
20974W        W25374  19.903   0.023  30.331  0.0605  0.0586  0.2282
20975W        W25375  17.759   6.458  15.253  0.0946 -0.0640  0.0682
20976W        W25376  11.172   1.654   5.860  0.0677  0.0671 -0.0322
20977W        W25377  19.293   1.882  21.055 -0.0146 -0.2172 -0.2217
20978W        W25378  25.047   3.694  32.000 -0.3113  0.1562  0.1430
20979W        W25379  23.430   0.072   4.888  0.0728  0.1359 -0.1812
20980W        W25380  22.119   4.469  35.281 -0.1620  0.1486  0.0023
20981W        W25381  10.523   2.603  33.277 -0.0885  0.0347  0.0998
20982W        W25382  16.726   5.370   9.833  0.2202  0.0396  0.3275
20983W        W25383   9.084   0.658  22.867 -0.3050  0.1527  0.0522
20984W        W25384  23.944   0.236  25.655 -0.1109  0.0189  0.1070
20985W        W25385   9.160   3.656   7.229 -0.1478  0.0982  0.1987
20986W        W25386   7.963   2.365  27.349 -0.2057  0.2216 -0.0340
20987W        W25387   0.103   0.013  33.254  0.1926  0.0616  0.0824
20988W        W25388   0.474   4.299   9.766  0.1146  0.3145  0.0013
20989W        W25389  14.487   4.097   0.943 -0.2573  0.1816  0.0571
20990W        W25390  10.054   1.770  24.233 -0.3100 -0.1406 -0.0520
20991W        W25391   7.579   1.518  21.544  0.2235 -0.0997 -0.0426
20992W        W25392   2.850   5.125  23.301 -0.1000  0.1178 -0.1147
20993W        W25393   1.311   5.687  11.362  0.1300 -0.4608 -0.0441
20994W        W25394   7.818   4.065  34.897 -0.0463 -0.0027 -0.0833
20995W        W25395  11.484   5.606  31.225 -0.1792 -0.1395 -0.0095
20996W        W25396   8.398   0.417  35.692 -0.0447  0.1362 -0.0075
20997W        W25397  21.687   6.369  13.692  0.1311 -0.2625  0.1893
20998W        W25398   1.764   4.965   9.769  0.0923  0.0514 -0.0599
20999W        W25399  15.664   5.995  21.510  0.0483 -0.1998  0.1218
21000W        W25400  10.266   2.905   0.189  0.0274  0.2188 -0.2223
21001W        W25401  25.571   4.231   0.580 -0.0080 -0.2594  0.2378
21002W        W25402  19.292   1.501  10.065  0.0685  0.0290  0.1194
21003W        W25403  23.914   5.179  14.464 -0.0546 -0.1065  0.1090
21004W        W25404  22.051   2.156  27.737  0.0771  0.1806 -0.0859
21005W        W25405   0.919   3.220   1.482 -0.1213 -0.2295 -0.1658
21006W        W25406   5.616   4.217  13.862 -0.1508 -0.1299  0.2712
21007W        W25407  13.636   3.341  11.075 -0.1688  0.0162  0.3665
21008W        W25408   0.106   0.507  33.830  0.0214  0.3419  0.0687
21009W        W25409  23.061   5.782   5.790 -0.0720 -0.1058  0.1019
21010W        W25410  24.971   1.983  34.656 -0.0081  0.0751  0.0241
21011W        W25411   5.783   4.530   5.962  0.0683  0.0357 -0.1088
21012W        W25412   8.648   2.471   6.045  0.1119  0.1672  0.1006
21013W        W25413   6.314   0.512  12.101 -0.2195  0.0559  0.0082
21014W        W25414  12.013   1.142  13.180  0.1030 -0.1008  0.0766
21015W        W25415  16.656   5.080  32.911  0.2902  0.1455 -0.0150
21016W        W25416   3.481   4.439   5.030  0.0176  0.2234  0.0895
21017W        W25417   1.902   1.815   9.454  0.0279 -0.3738  0.1364
21018W        W25418   2.579   5.860   3.373 -0.2644  0.0199 -0.0154
21019W        W25419  12.102   3.146  33.593 -0.1097 -0.0799  0.1200
21020W        W25420   9.610   5.190  14.715  0.0731  0.1063 -0.0494
21021W        W25421  13.127   2.418  14.548  0.1807  0.2025 -0.0228
21022W        W25422  16.425   6.388  21.767 -0.3441  0.0062  0.0984
21023W        W25423  11.354   1.632   7.070 -0.1199 -0.0915  0.0110
21024W        W25424   1.224   6.199  12.678 -0.4085  0.1822  0.0221
21025W        W25425   6.484   2.091  13.590  0.2665 -0.1363  0.1001
21026W        W25426   5.147   3.506   0.896  0.0606  0.3315 -0.0213
21027W        W25427  12.990   0.635  11.045 -0.0126 -0.2781  0.0846
21028W        W25428   1.338   3.033  23.444  0.3539  0.0786 -0.0383
21029W        W25429  25.538   6.017  10.871  0.0851 -0.1225 -0.0919
21030W        W25430  13.237   0.334   3.638  0.0285 -0.1088  0.0172
21031W        W25431  19.559   3.427  28.343 -0.2461 -0.0344  0.0373
21032W        W25432  12.413   5.380  28.977  0.1039  0.4032 -0.1763
21033W        W25433   9.863   0.623  33.097  0.1267  0.3425  0.2234
21034W        W25434  23.904   0.664  28.256  0.1964 -0.3309 -0.1478
21035W        W25435  24.216   3.536  13.293 -0.0996  0.2912 -0.0749
21036W        W25436   5.985   4.207  28.221 -0.1981  0.0393 -0.1251
21037W        W25437   9.431   2.740  34.722 -0.1495  0.3126  0.1869
21038W        W25438   3.229   1.060  13.555  0.3495  0.0971  0.0101
21039W        W25439  10.835   4.269  10.788 -0.3168  0.0119  0.0054
21040W        W25440  20.675   2.889   6.192  0.1133  0.1042 -0.0068
21041W        W25441   5.732   3.048   0.329  0.1655 -0.3994  0.2292
21042W        W25442   4.922   5.294  10.769 -0.0283 -0.5135 -0.0808
21043W        W25443  16.618   4.568  10.100 -0.0302  0.0378  0.0525
21044W        W25444  15.348   6.312   7.988  0.0780  0.0489  0.0278
21045W        W25445   6.615   2.709   3.639  0.0296  0.1067 -0.0270
21046W        W25446  17.563   0.372  33.535  0.1629  0.0826 -0.3168
21047W        W25447   3.607   1.810  31.935 -0.3733  0.1426 -0.1117
21048W        W25448  16.509   1.130  23.917 -0.3204  0.0071 -0.1556
21049W        W25449   5.903   3.503  30.991  0.3829 -0.0664 -0.2298
21050W        W25450  22.540   5.224  24.554  0.1206 -0.2259 -0.0850
21051W        W25451  11.980   3.201  21.993  0.2538 -0.1613  0.4413
21052W        W25452  26.114   0.051  31.253 -0.1044 -0.2024  0.1578
21053W        W25453  10.316   0.899   1.852 -0.4244 -0.1716 -0.0676
21054W        W25454   7.793   0.019  22.567 -0.0961  0.1241 -0.2455
21055W        W25455  18.743   3.935  32.132 -0.1178 -0.2810  0.0164
21056W        W25456  17.806   4.383  10.262  0.0789 -0.4618  0.0539
21057W        W25457  13.244   6.244   0.579  0.0612 -0.0538  0.0524
21058W        W25458   9.152   2.967   4.322 -0.2269  0.1792  0.2521
21059W        W25459  15.385   3.287  34.911  0.1486 -0.0696  0.3888
21060W        W25460  14.067   1.794   2.795  0.2975  0.1719 -0.1991
21061W        W25461   2.563   6.580  24.382 -0.1827 -0.1459 -0.0299
21062W        W25462   8.794   6.319  31.732  0.0286 -0.3376 -0.1463
21063W        W25463  11.831   2.081  23.542 -0.2394 -0.2139  0.0615
21064W        W25464   0.125   0.878   3.987  0.1643 -0.1541  0.0316
21065W        W25465  22.269   5.968  31.319  0.0217  0.2110  0.0501
21066W        W25466   0.164   1.445  24.000 -0.0501 -0.0355  0.0086
21067W        W25467   4.589   6.412  22.359  0.1689 -0.2399  0.1188
21068W        W25468   2.899   1.968   0.450 -0.2621 -0.0896  0.1770
21069W        W25469   3.448   5.570  11.534  0.1559 -0.1979 -0.0714
21070W        W25470  16.300   2.001  35.643 -0.0293 -0.2174  0.2159
21071W        W25471   3.900   1.060  26.939 -0.2073 -0.3169 -0.2272
21072W        W25472   4.069   5.182   7.413 -0.0992 -0.0016  0.0364
21073W        W25473   0.641   4.940  32.077 -0.2832 -0.0677  0.2983
21074W        W25474  20.055   3.111  29.586  0.1671  0.6319 -0.3055
21075W        W25475  15.413   0.189  31.371  0.1616 -0.0212 -0.0888
21076W        W25476   4.050   6.394  27.704  0.1174  0.3056 -0.1849
21077W        W25477  20.078   3.858  31.247 -0.1432 -0.1852 -0.1737
21078W        W25478  15.425   1.230   2.582 -0.2221  0.0082  0.0079
21079W        W25479   0.073   3.551  20.862  0.1619  0.0231  0.0079
21080W        W25480   8.011   2.535   2.959 -0.3448  0.2991 -0.0512
21081W        W25481  20.534   1.530  35.158 -0.0278  0.1144  0.4430
21082W        W25482  15.843   5.925  29.052  0.1824 -0.0831 -0.1414
21083W        W25483  16.410   2.515   1.306 -0.3406 -0.0693 -0.0921
21084W        W25484   0.151   0.049  21.447  0.0089  0.0028  0.1619
21085W        W25485  25.202   0.168  11.909  0.1957 -0.0889  0.1359
21086W        W25486  22.243   2.466  34.137  0.1497 -0.0046 -0.2378
21087W        W25487  11.900   3.307  11.636 -0.0105 -0.1013 -0.0015
21088W        W25488  22.591   2.792   3.187 -0.1669  0.1323  0.2584
21089W        W25489  25.461   0.754   6.009 -0.3229 -0.0811 -0.1739
21090W        W25490  24.936   2.266   6.812  0.0053  0.1392 -0.2267
21091W        W25491  21.489   1.133   8.540 -0.0683  0.1237  0.0280
21092W        W25492  17.959   6.283  31.517  0.1560 -0.1460  0.2351
21093W        W25493  14.854   3.471   0.187  0.3547 -0.1786 -0.3654
21094W        W25494  20.342   2.260  29.241  0.5689  0.1998  0.0831
21095W        W25495  10.977   5.781   1.258  0.2218 -0.1572 -0.3313
21096W        W25496  21.987   0.063   4.879 -0.0416 -0.1530  0.0964
21097W        W25497  16.141   3.382   8.401 -0.2425 -0.2802 -0.2423
21098W        W25498  22.676   6.470  27.529  0.2861 -0.2101 -0.0419
21099W        W25499  17.677   4.524   9.407 -0.1378 -0.1058 -0.1853
21100W        W25500  16.386   5.938   0.744  0.0554 -0.2528 -0.1277
21101W        W25501  18.415   4.863  25.223  0.0324  0.0462 -0.0652
21102W        W25502  16.306   3.475  22.950  0.1804  0.0046  0.1841
21103W        W25503   7.501   4.041   0.544 -0.2429 -0.2027  0.2119
21104W        W25504   8.377   5.178   0.953 -0.1382  0.0535  0.2222
21105W        W25505  24.547   3.622   4.368  0.0505 -0.4885 -0.2023
21106W        W25506  23.470   5.763   5.445 -0.1822 -0.4541  0.1038
21107W        W25507  25.318   2.304   6.480 -0.0569  0.0350  0.0407
21108W        W25508  15.063   4.704  13.458 -0.0841  0.3195 -0.1760
21109W        W25509   2.043   1.112  29.188  0.2809 -0.2079 -0.3300
21110W        W25510  17.083   4.914  11.131  0.0326 -0.1289 -0.1453
21111W        W25511  11.819   2.439  15.718  0.0439 -0.4243  0.0337
21112W        W25512   0.685   3.954   7.394 -0.1574 -0.3518  0.1559
21113W        W25513  24.229   5.964  33.406 -0.0237 -0.0966  0.0258
21114W        W25514  21.693   1.987  14.482 -0.1691 -0.0456 -0.2480
21115W        W25515   0.124   4.171  25.204 -0.0702 -0.1941 -0.2753
21116W        W25516   0.011   3.882  12.877  0.2080  0.0680 -0.2816
21117W        W25517  15.338   6.364  27.061  0.1934  0.1240 -0.2768
21118W        W25518   0.725   5.361  21.454  0.0775 -0.1050  0.1733
21119W        W25519  23.215   3.552  11.645  0.0278  0.1008  0.2335
21120W        W25520  18.489   4.376   1.125  0.2104  0.1492  0.2150
21121W        W25521  22.325   1.007   9.014 -0.4319 -0.1416 -0.1293
21122W        W25522   2.332   6.122  25.153  0.1062  0.2572  0.2255
21123W        W25523  16.868   4.200  28.886  0.0703  0.0137  0.0091
21124W        W25524  16.630   5.035  10.696 -0.0470  0.1601 -0.0922
21125W        W25525  13.869   3.315  31.764 -0.0050  0.1671 -0.1448
21126W        W25526  17.183   1.871  10.161  0.0398  0.1261  0.0432
21127W        W25527  14.575   5.061  15.364  0.1869  0.0451  0.0891
21128W        W25528  12.074   1.600   7.494 -0.0940 -0.1015  0.1598
21129W        W25529  16.482   4.973  30.164  0.1256 -0.2294 -0.2466
21130W        W25530  12.330   3.523  25.346 -0.0947  0.1497  0.0645
21131W        W25531  17.536   0.918  22.182  0.2026  0.0687  0.1269
21132W        W25532  19.540   4.365  32.458  0.0417 -0.1577 -0.1278
21133W        W25533  10.294   5.154   6.177  0.1456 -0.1832 -0.1128
21134W        W25534   2.029   6.447   0.275 -0.1766  0.1125 -0.1852
21135W        W25535   5.981   5.209  24.210 -0.0249  0.2314 -0.0711
21136W        W25536  14.468   4.074   2.800 -0.1196 -0.0945  0.0003
21137W        W25537   3.616   0.761  22.272  0.0330 -0.1070  0.0848
21138W        W25538  24.468   5.256  28.199  0.0004 -0.0177 -0.1525
21139W        W25539   5.504   6.583  11.120 -0.0859 -0.0667  0.1670
21140W        W25540  14.002   5.118  27.080 -0.0812 -0.1572  0.1443
21141W        W25541  17.143   0.308  35.592  0.3175  0.0831 -0.2285
21142W        W25542  26.263   5.689   7.486 -0.1286  0.1154 -0.3197
21143W        W25543  10.417   2.706  28.543  0.0211 -0.0399  0.1305
21144W        W25544  14.478   3.612  22.269 -0.1939 -0.0434 -0.0076
21145W        W25545   7.130   5.737  23.923 -0.2022 -0.0510  0.0965
21146W        W25546  11.617   1.964  35.292 -0.2363 -0.1336  0.0115
21147W        W25547  22.292   0.768  10.479 -0.0439  0.1903  0.0386
21148W        W25548   2.755   3.554   9.369  0.0066 -0.1982  0.0551
21149W        W25549  13.173   0.173  28.083  0.1416  0.1972 -0.2482
21150W        W25550  20.151   4.142   8.400  0.0228 -0.0014 -0.0065
21151W        W25551  23.798   3.364   0.739  0.2196 -0.3139 -0.0906
21152W        W25552  14.601   1.370  33.443  0.1380  0.0408 -0.2743
21153W        W25553  25.473   5.175   2.839  0.1194  0.3719 -0.0780
21154W        W25554  23.281   6.378  10.241 -0.1151 -0.2932 -0.1483
21155W        W25555   2.873   4.884  14.584 -0.1637 -0.1125  0.0148
21156W        W25556  20.489   2.166  14.002  0.0309 -0.0020  0.0083
21157W        W25557  19.322   2.087  26.077 -0.2068  0.2595 -0.0753
21158W        W25558  12.548   2.240  23.151  0.0714  0.3901  0.1193
21159W        W25559   0.626   6.003  30.204  0.1009 -0.0349  0.1507
21160W        W25560  25.131   1.492   4.389 -0.1433 -0.1956 -0.1073
21161W        W25561  15.604   3.649   3.789  0.2949 -0.0552 -0.3640
21162W        W25562  10.945   4.266  23.931  0.0702  0.2223 -0.3283
21163W        W25563  22.967   4.785  12.815  0.0670  0.1442 -0.0785
21164W        W25564  18.310   1.793  28.189  0.2717  0.2272  0.1779
21165W        W25565  13.621   5.665   4.796  0.2781  0.0813 -0.0677
21166W        W25566  15.410   0.642   3.788 -0.0501  0.0827  0.0444
21167W        W25567  23.107   6.363  14.686  0.0040 -0.1246  0.0065
21168W        W25568  19.860   3.019   1.479 -0.0286  0.0580 -0.1265
21169W        W25569   7.469   4.675   6.956 -0.2116  0.0643  0.2749
21170W        W25570   2.180   4.973  26.074 -0.0700  0.2959  0.0350
21171W        W25571  11.146   4.732   3.697  0.1557 -0.0904 -0.2952
21172W        W25572  11.223   2.362  10.880 -0.2651 -0.0916 -0.3246
21173W        W25573   2.080   4.095  26.197  0.3640 -0.1907  0.1643
21174W        W25574  18.055   5.587  34.412 -0.1007 -0.3320  0.2455
21175W        W25575  10.656   2.627   8.827  0.0242  0.0775  0.0337
21176W        W25576   8.163   5.197  10.285 -0.0214 -0.0689 -0.2508
21177W        W25577   0.188   0.794  31.168 -0.0432  0.0393  0.1260
21178W        W25578  20.439   6.288  11.965  0.0768 -0.0482  0.2183
21179W        W25579   4.931   2.055  11.714 -0.3693 -0.2572 -0.1188
21180W        W25580   6.882   6.146  12.660 -0.0246 -0.1326  0.2187
21181W        W25581  22.469   0.901  27.288  0.1579  0.0545 -0.2566
21182W        W25582  13.545   4.992  34.428 -0.2213 -0.1165 -0.0996
21183W        W25583  17.235   4.165   9.168 -0.1425  0.0057  0.2325
21184W        W25584  20.687   0.552   6.023 -0.0612 -0.0418  0.3029
21185W        W25585  13.231   6.298  31.063  0.1596 -0.1555 -0.2628
21186W        W25586   3.654   5.912  31.188 -0.2216  0.1074 -0.1806
21187W        W25587   2.137   0.251   7.185  0.2137  0.0209 -0.4428
21188W        W25588  11.848   6.513  31.334 -0.0207 -0.0906 -0.1944
21189W        W25589   9.864   0.698   0.081 -0.0514 -0.0748  0.1886
21190W        W25590  25.673   5.101   9.821 -0.1836  0.1598  0.1370
21191W        W25591  16.660   1.111  29.850  0.0827  0.0628 -0.1259
21192W        W25592  16.500   3.539  10.501  0.0516 -0.0394 -0.1436
21193W        W25593  22.023   6.112   9.636  0.4289  0.0460 -0.1919
21194W        W25594  24.328   5.159  32.814  0.0782 -0.1951  0.2743
21195W        W25595   6.589   5.438   5.506  0.0709  0.0453  0.1984
21196W        W25596  10.604   3.148  20.951 -0.0863  0.1309  0.1090
21197W        W25597  23.624   5.053  27.071 -0.2025  0.1856  0.0898
21198W        W25598   3.514   6.363  23.368  0.0682  0.0553 -0.0013
21199W        W25599  13.008   6.196   6.428  0.2690 -0.1556  0.1880
21200W        W25600  18.010   3.912  26.312  0.0952  0.1563  0.0366
21201W        W25601   9.048   2.488  23.563 -0.1033 -0.1285  0.0582
21202W        W25602   7.416   1.113  10.843 -0.0535  0.1407  0.1279
21203W        W25603   1.101   4.528   3.625  0.2340 -0.3051 -0.1625
21204W        W25604  13.169   3.080   8.719 -0.1587 -0.0108 -0.0483
21205W        W25605  15.806   2.864  10.166  0.2657 -0.0399 -0.0194
21206W        W25606  11.434   4.462  31.990  0.1203  0.1970 -0.1385
21207W        W25607   1.945   4.010   3.644 -0.4442 -0.4384 -0.0958
21208W        W25608  19.790   4.628   9.863 -0.0073  0.1841  0.0780
21209W        W25609   3.347   2.300  26.993  0.2185 -0.0300  0.1516
21210W        W25610  21.167   5.274  24.777  0.0271  0.2754 -0.0992
21211W        W25611  14.091   6.452  13.743  0.0685 -0.2929  0.0255
21212W        W25612  20.903   3.116  35.932  0.1007  0.0925 -0.1736
21213W        W25613  15.435   2.471   5.355  0.1052  0.1412  0.1378
21214W        W25614  15.640   4.782   5.104 -0.0696  0.0214  0.1440
21215W        W25615   5.117   1.540   1.484  0.2101  0.0041  0.0598
21216W        W25616  15.072   0.516  34.594 -0.2009  0.0847 -0.1276
21217W        W25617  24.165   6.484  15.488 -0.0413 -0.0917  0.1128
21218W        W25618  24.847   2.308  23.352  0.0434 -0.0924  0.0173
21219W        W25619  23.918   4.237  25.488 -0.0449 -0.0040 -0.0393
21220W        W25620  11.610   1.966   0.144 -0.2308  0.1268 -0.1550
21221W        W25621  21.142   4.236  15.157  0.1333  0.2610 -0.1785
21222W        W25622  22.229   5.331   6.982  0.1711 -0.1354  0.2096
21223W        W25623  21.178   2.350  31.920 -0.1765 -0.3094  0.2609
21224W        W25624   6.960   0.117   2.453  0.3630  0.0371  0.2734
21225W        W25625   5.463   4.554   0.178  0.0426  0.1551 -0.0459
21226W        W25626  24.070   1.982   3.268  0.2804  0.0792 -0.0561
21227W        W25627   8.516   2.611  14.135 -0.1439 -0.3273  0.3568
21228W        W25628  20.441   4.996  31.544  0.0098  0.0329 -0.0190
21229W        W25629  22.820   0.430  33.035 -0.2491 -0.1063 -0.1984
21230W        W25630  25.580   2.437  21.334 -0.1485  0.2266  0.0675
21231W        W25631  25.111   1.769   9.579  0.0174  0.2569 -0.0543
21232W        W25632  18.991   4.174  14.494  0.3313  0.0432  0.2094
21233W        W25633   1.228   6.184  24.211 -0.0145 -0.0959  0.1677
21234W        W25634  23.414   5.438  29.928 -0.0386 -0.3808  0.0893
21235W        W25635  11.805   0.024   5.641 -0.0179  0.0045 -0.1781
21236W        W25636  19.273   5.608  15.076  0.2306  0.1762 -0.0704
21237W        W25637   4.241   4.720  35.329 -0.0172 -0.3743  0.2224
21238W        W25638  17.887   0.221   1.636  0.0379  0.0663 -0.0901
21239W        W25639  15.087   3.366  30.409  0.1916  0.2252  0.1414
21240W        W25640   4.076   5.569  28.893  0.2633  0.1839 -0.0370
21241W        W25641  18.841   5.978  35.214  0.0225 -0.1783  0.3101
21242W        W25642   2.371   5.786  29.383  0.4940  0.0900 -0.1652
21243W        W25643   3.158   1.619  31.786  0.0252 -0.0252  0.1473
21244W        W25644   7.746   0.822   5.488  0.1256 -0.2501 -0.0637
21245W        W25645  19.348   1.473   4.201  0.0763 -0.2103  0.2519
21246W        W25646   7.262   3.002  35.672 -0.0054  0.0099  0.1167
21247W        W25647  24.667   5.404  35.188  0.0810 -0.1096  0.0569
21248W        W25648  20.164   0.066   4.173  0.1982 -0.0055 -0.0933
21249W        W25649  16.916   3.354  21.686 -0.2021  0.2839  0.0682
21250W        W25650  17.564   1.886  10.512 -0.0913 -0.1058  0.1367
21251W        W25651   8.390   2.954  23.962  0.2130  0.1428 -0.0726
21252W        W25652  11.048   5.832   7.699  0.0836 -0.0266  0.0728
21253W        W25653   1.684   1.696   1.100  0.3338  0.2072 -0.1805
21254W        W25654  16.469   0.390  23.319  0.0448  0.3058 -0.0851
21255W        W25655  23.793   3.141  22.851 -0.1533  0.1855  0.0146
21256W        W25656  14.858   0.154  10.461 -0.0411  0.1651  0.3150
21257W        W25657  13.768   2.116  27.761  0.1428 -0.0496  0.0234
21258W        W25658   9.339   6.498  25.304  0.0416  0.0207 -0.0717
21259W        W25659   9.110   0.335   1.318  0.0635 -0.2278  0.2714
21260W        W25660   3.094   2.132  33.145  0.2563  0.3184  0.2766
21261W        W25661   5.960   6.340  31.425 -0.0892  0.1309  0.1432
21262W        W25662   8.015   2.382  21.176 -0.0387  0.1041 -0.1620
21263W        W25663   8.566   1.553  29.723 -0.0695  0.0735 -0.1138
21264W        W25664  23.504   2.210   8.790  0.3711  0.1561 -0.0242
21265W        W25665  19.244   0.033  32.826 -0.1255  0.0742 -0.0984
21266W        W25666  12.271   2.854  33.957 -0.2353  0.2224 -0.0234
21267W        W25667   1.537   2.491  35.292  0.0464  0.4362  0.0312
21268W        W25668  16.821   6.199  32.748  0.2085 -0.4157  0.1393
21269W        W25669  24.841   5.935  33.841  0.0144  0.1118 -0.1521
21270W        W25670  13.249   3.010  15.849 -0.1463  0.1424  0.2403
21271W        W25671  26.402   4.035  11.326 -0.0546  0.1537  0.0566
21272W        W25672   5.129   2.320   2.191 -0.1466 -0.1986  0.0079
21273W        W25673   9.034   3.281   8.569 -0.2057  0.1194  0.2014
21274W        W25674  21.258   4.434  32.917  0.4470  0.1894 -0.0826
21275W        W25675   4.136   2.735  35.746  0.1651 -0.0446 -0.1778
21276W        W25676  14.508   6.543  31.431  0.1496 -0.1335  0.0345
21277W        W25677  24.961   5.207  14.053 -0.0722 -0.1077 -0.1363
21278W        W25678   7.822   5.037  29.710 -0.4070 -0.0871  0.2651
21279W        W25679   2.946   0.290  30.216  0.1848  0.0883  0.1831
21280W        W25680  23.921   4.270  32.820  0.0893 -0.1391  0.0782
21281W        W25681  24.899   5.162  31.572  0.1766 -0.2479  0.0752
21282W        W25682  17.664   4.905  25.895 -0.1817  0.1593  0.0577
21283W        W25683  20.741   6.259   7.904 -0.0257 -0.0216 -0.3484
21284W        W25684  20.448   6.155   5.963  0.0359 -0.1839  0.2120
21285W        W25685   4.282   3.101   0.030  0.1304  0.6056  0.0198
21286W        W25686   0.990   4.158  27.416 -0.1928  0.1971  0.1511
21287W        W25687   2.942   4.593  23.964 -0.3987  0.0841 -0.0424
21288W        W25688  19.450   3.008   4.874 -0.0389  0.0507 -0.0544
21289W        W25689  21.818   2.655   5.303  0.0491 -0.1815 -0.1787
21290W        W25690  12.578   1.508   9.982 -0.1937  0.3076  0.0875
21291W        W25691   5.769   4.280   5.214  0.0320  0.1055  0.1792
21292W        W25692  20.177   4.938   5.429  0.1014 -0.0661  0.0493
21293W        W25693   1.474   0.213   2.262  0.1946 -0.2593  0.0330
21294W        W25694  24.340   0.936  31.368  0.1427  0.0054  0.0187
21295W        W25695  11.618   6.348  27.875  0.1047 -0.2385 -0.0181
21296W        W25696  14.157   1.813   4.261 -0.2806 -0.1570  0.2062
21297W        W25697  24.273   4.324   9.043 -0.1485  0.2589  0.0397
21298W        W25698   5.210   2.440  22.535 -0.1504  0.2917 -0.2349
21299W        W25699  18.471   2.851   6.733  0.0817 -0.3884 -0.1081
21300W        W25700  10.743   5.242  30.785 -0.1815  0.2846 -0.0323
21301W        W25701   0.137   5.922  14.237  0.1612 -0.0753  0.0178
21302W        W25702  14.715   5.683  30.329  0.0336  0.0171  0.0232
21303W        W25703  11.516   2.903  32.817  0.0795 -0.0639 -0.0616
21304W        W25704  23.348   3.217  35.456 -0.2533 -0.1701 -0.2480
21305W        W25705  18.065   5.536  15.013  0.0712 -0.1352  0.2169
21306W        W25706  11.786   5.249  12.131  0.0746  0.2227 -0.0507
21307W        W25707   9.816   5.833   6.298 -0.1364  0.1679  0.0055
21308W        W25708  15.055   2.861  29.583 -0.0374  0.0339  0.2939
21309W        W25709   3.841   0.443  29.487 -0.0706  0.1648 -0.6801
21310W        W25710   9.027   1.227  11.517 -0.0460  0.1423  0.2011
21311W        W25711   5.480   6.589  33.477 -0.0112  0.2075 -0.4435
21312W        W25712  21.234   1.708   3.309 -0.1804 -0.4044  0.1504
21313W        W25713  15.576   1.001  13.931  0.3235  0.0386 -0.2184
21314W        W25714  16.218   2.317  29.508 -0.3088  0.0321  0.1790
21315W        W25715   4.949   3.412   7.908 -0.1630 -0.0864 -0.3125
21316W        W25716   4.400   1.593  33.593 -0.3333  0.0929  0.1228
21317W        W25717  22.311   6.493  21.875 -0.2935 -0.0497  0.3422
21318W        W25718   8.869   2.261  21.283 -0.3710 -0.1698 -0.2228
21319W        W25719   8.070   0.699  21.677 -0.1037  0.1567 -0.0578
21320W        W25720   4.904   1.344   4.570 -0.3351 -0.0194 -0.0179
21321W        W25721   1.779   3.543   1.162 -0.0042 -0.0069 -0.0915
21322W        W25722  22.109   1.940  24.256 -0.0385  0.0577 -0.0940
21323W        W25723  25.886   2.823   8.271  0.3319  0.0496  0.1706
21324W        W25724   8.695   3.666  24.474 -0.2772  0.3320 -0.0394
21325W        W25725   9.017   4.786  23.303  0.1943 -0.0112 -0.0419
21326W        W25726  23.731   3.144  29.936  0.3002 -0.4107  0.1476
21327W        W25727   9.610   3.608  34.389  0.0776  0.2070  0.1960
21328W        W25728   3.587   1.664  26.679 -0.1205  0.0755  0.0316
21329W        W25729  21.395   3.907  35.214 -0.0324  0.2862  0.0152
21330W        W25730   5.865   4.749  32.303  0.0453  0.0182  0.0064
21331W        W25731  17.173   2.436  27.866 -0.0291 -0.0160  0.1207
21332W        W25732  21.143   5.696   0.986 -0.1011 -0.1494  0.0352
21333W        W25733  25.424   2.791  26.455  0.0674  0.1135  0.0839
21334W        W25734   1.604   2.542  21.110  0.2150 -0.0259  0.2466
21335W        W25735  10.335   0.735  10.998  0.0328  0.0506 -0.0497
21336W        W25736   8.655   3.193  25.654  0.0436 -0.0679 -0.2147
21337W        W25737   5.092   3.899   4.696 -0.6049 -0.2534 -0.1306
21338W        W25738  15.906   4.870  26.171  0.0197  0.3184 -0.1223
21339W        W25739   2.056   4.140   5.490 -0.0126  0.0254 -0.0071
21340W        W25740   4.461   1.447   0.746  0.0131  0.2946 -0.2923
21341W        W25741   0.300   0.223  22.987  0.0108  0.1198  0.2742
21342W        W25742   5.214   5.843  22.881  0.0351  0.2103 -0.1157
21343W        W25743  19.111   5.501  28.740 -0.2602 -0.2521 -0.2056
21344W        W25744  16.204   0.092   2.034 -0.1067 -0.3142 -0.2298
21345W        W25745  26.111   2.622  13.716 -0.3430 -0.1304 -0.0062
21346W        W25746  24.900   1.878   5.697 -0.1287 -0.0047 -0.2675
21347W        W25747   5.206   4.527  11.160 -0.1016  0.0368 -0.0744
21348W        W25748  22.199   0.323  35.030 -0.0128  0.0552 -0.3717
21349W        W25749  14.285   1.601   5.104 -0.1853  0.0416 -0.0837
21350W        W25750  11.152   3.015  15.412 -0.1498  0.2031 -0.0214
21351W        W25751   9.192   1.291  10.058  0.2709 -0.1337 -0.4635
21352W        W25752  25.719   6.337   1.690  0.0824  0.2827  0.1736
21353W        W25753  26.185   0.427   1.066 -0.0798 -0.0120 -0.2566
21354W        W25754   3.156   5.776   9.357 -0.0403  0.3237 -0.0643
21355W        W25755   6.601   2.969  34.564  0.2091  0.0134  0.1433
21356W        W25756  15.609   2.899   4.427  0.1300  0.0025  0.4073
21357W        W25757   4.172   6.561  30.555 -0.3333  0.3490 -0.1028
21358W        W25758   2.447   3.408  26.115  0.0222  0.0691 -0.1829
21359W        W25759  10.952   1.173  23.585  0.0491 -0.1271  0.2086
21360W        W25760   9.712   1.537  22.160 -0.0460  0.1100 -0.2751
21361W        W25761  23.976   0.446  23.111 -0.1974 -0.0764  0.1258
21362W        W25762  25.437   5.175  35.246  0.0441  0.0129 -0.1427
21363W        W25763   2.707   3.299   0.816  0.0180  0.0236 -0.0680
21364W        W25764  22.782   4.651  33.296  0.4455  0.0245  0.0724
21365W        W25765  22.539   5.114   9.389 -0.0654  0.1174  0.1334
21366W        W25766   6.510   4.030  32.106  0.2400  0.1230 -0.1302
21367W        W25767  19.479   1.798  10.756  0.1713 -0.1481  0.0528
21368W        W25768  25.856   4.205  27.969  0.1641  0.0532  0.0502
21369W        W25769  17.323   1.775  30.929  0.0212  0.2982  0.0809
21370W        W25770  18.029   0.843   6.730  0.2816  0.0309 -0.0351
21371W        W25771   4.782   5.925  33.293 -0.0630  0.0823 -0.3055
21372W        W25772   9.362   5.596   1.153 -0.1540  0.0229 -0.0523
21373W        W25773  16.162   3.176   9.663 -0.2509  0.0896  0.3033
21374W        W25774   6.016   5.002   4.795 -0.3295  0.1032 -0.3091
21375W        W25775  16.977   3.897   1.110  0.1602 -0.0964  0.0473
21376W        W25776  18.088   1.561  35.813 -0.1862 -0.3702  0.0264
21377W        W25777  25.041   6.158  10.779 -0.0251 -0.0054  0.1053
21378W        W25778   1.083   5.978  13.577 -0.0400 -0.0310  0.1229
21379W        W25779   8.451   5.390   6.544  0.1286 -0.1755 -0.0598
21380W        W25780  24.056   0.969   1.890 -0.0565 -0.0208  0.3871
21381W        W25781   2.962   5.034  13.686 -0.1606  0.0813  0.1483
21382W        W25782   8.314   6.459  21.851 -0.0786  0.1415  0.0130
21383W        W25783  10.725   6.167  34.122 -0.2420 -0.1996  0.1323
21384W        W25784   0.856   3.026  31.133  0.2000 -0.1425 -0.1542
21385W        W25785   7.388   5.746  35.593 -0.0007 -0.1586  0.3542
21386W        W25786  14.813   4.322  33.731  0.1559 -0.1129  0.1162
21387W        W25787   8.327   5.779  30.055 -0.0628 -0.4374  0.1529
21388W        W25788  11.596   2.624  24.260  0.0661 -0.0855 -0.1046
21389W        W25789   6.954   4.887   9.552  0.2809  0.1471 -0.0487
21390W        W25790  12.941   2.036  11.623  0.0359 -0.2885 -0.3106
21391W        W25791  21.651   3.995  28.890 -0.1725 -0.1635  0.0003
21392W        W25792  25.398   1.333  10.337  0.1943 -0.0878  0.0374
21393W        W25793  16.855   1.359   0.025 -0.4161 -0.1454  0.1257
21394W        W25794  19.516   5.107  13.194  0.2015  0.0247  0.2091
21395W        W25795  14.821   5.217  14.535 -0.0464  0.0003 -0.0309
21396W        W25796  23.746   2.490   6.036  0.1130  0.0040 -0.1095
21397W        W25797   4.883   6.383  24.959 -0.0011 -0.1185 -0.2896
21398W        W25798   0.381   3.227   5.297  0.2169 -0.2650  0.1207
21399W        W25799   9.548   2.052  24.147 -0.1637 -0.0133 -0.1185
21400W        W25800   0.901   5.399   9.530 -0.2515 -0.1837 -0.0496
21401W        W25801  22.237   6.123  13.732 -0.0208 -0.1565  0.0663
21402W        W25802  25.196   4.750   9.266 -0.0177 -0.0591 -0.3567
21403W        W25803  20.859   3.788  30.832  0.1088  0.1518  0.0387
21404W        W25804   7.084   6.214  26.822  0.0845  0.0560  0.0350
21405W        W25805  10.595   2.056  27.117  0.0406  0.2072  0.1029
21406W        W25806  12.880   4.697  14.587 -0.0717 -0.0314 -0.0184
21407W        W25807  11.637   2.202  33.379  0.1593 -0.1375  0.1247
21408W        W25808   2.728   4.702  29.533 -0.1295 -0.1546  0.1648
21409W        W25809  20.989   3.866  24.860 -0.0933 -0.1465 -0.1498
21410W        W25810   5.993   5.981  32.285 -0.1483  0.0066  0.0396
21411W        W25811   1.703   1.294  12.632 -0.1183 -0.0684 -0.0916
21412W        W25812   6.503   2.960  32.547  0.1337  0.1457 -0.1466
21413W        W25813   0.555   3.631   8.294 -0.1676  0.0859  0.3791
21414W        W25814  24.061   1.874  34.132  0.1864  0.1491  0.3012
21415W        W25815   4.095   1.505   3.799  0.2750 -0.0033 -0.0865
21416W        W25816   0.880   4.389   7.505  0.3134 -0.3014  0.2849
21417W        W25817   6.313   6.246  26.302  0.0010  0.2083  0.1347
21418W        W25818  16.236   0.117  26.134 -0.3145  0.3084  0.0399
21419W        W25819  22.193   1.762  31.419  0.3155  0.0781 -0.0623
21420W        W25820  17.925   3.306  24.459  0.0490 -0.0993 -0.1515
21421W        W25821   0.104   5.950  13.356  0.0757  0.0029 -0.0901
21422W        W25822   0.507   0.721  15.764  0.2715  0.1283 -0.0497
21423W        W25823  25.291   4.962  26.753  0.0059 -0.0891 -0.0269
21424W        W25824  24.736   5.259  10.756  0.0765 -0.0273  0.1938
21425W        W25825  13.628   5.410   9.146  0.0919  0.1822 -0.1258
21426W        W25826  22.065   2.178   9.102  0.1043  0.0468  0.4374
21427W        W25827  21.507   0.008  14.481 -0.2314 -0.0877  0.1209
21428W        W25828  18.206   1.850   3.239  0.0994 -0.2455  0.1350
21429W        W25829  12.697   4.804  27.818 -0.3939 -0.0191  0.2100
21430W        W25830   5.275   5.265  21.129 -0.0946 -0.1459  0.2185
21431W        W25831  10.917   0.381  29.630  0.1440 -0.1840  0.1974
21432W        W25832   5.317   4.951  14.602 -0.0555  0.1610  0.0079
21433W        W25833   3.756   0.882   8.818  0.1638  0.0673  0.0644
21434W        W25834  20.639   3.105  29.057 -0.1892  0.2044 -0.2380
21435W        W25835   1.299   0.434  23.869  0.1855 -0.0508 -0.1970
21436W        W25836   9.579   4.223   7.897 -0.0075 -0.0170  0.0995
21437W        W25837  11.057   1.391  22.628  0.0268 -0.2266 -0.3018
21438W        W25838   7.066   2.342  33.896 -0.1227 -0.0303 -0.1969
21439W        W25839  18.394   2.095   5.948  0.1568 -0.1943  0.0209
21440W        W25840  20.282   1.198   1.481  0.2446 -0.0064  0.2314
21441W        W25841   5.938   1.292   6.017  0.1602  0.2710  0.1008
21442W        W25842  12.733   1.994  35.483 -0.1415  0.1277 -0.1712
21443W        W25843  26.111   4.213  21.301  0.2530 -0.0607 -0.2561
21444W        W25844  20.221   3.419  13.894  0.0537 -0.2111  0.1028
21445W        W25845   7.522   4.383  22.274  0.0456 -0.3618 -0.1123
21446W        W25846  18.191   2.144  23.983 -0.0192  0.2435  0.1114
21447W        W25847   9.823   0.190  34.938  0.2824  0.0118 -0.0148
21448W        W25848   2.046   3.217  30.247  0.3562  0.0244  0.1392
21449W        W25849  23.779   6.395  35.861 -0.1534  0.0174  0.0117
21450W        W25850  20.833   1.927  22.013 -0.0985 -0.2506  0.1134
21451W        W25851   8.665   4.744  31.418  0.3218 -0.3014  0.2196
21452W        W25852   0.023   1.687  25.049  0.0425 -0.1865 -0.2574
21453W        W25853  15.681   4.309  32.446 -0.0531  0.1919  0.3206
21454W        W25854   6.570   4.275   2.226 -0.0202 -0.0090 -0.1528
21455W        W25855   1.173   5.361  34.667  0.1057 -0.1799 -0.1130
21456W        W25856   0.014   2.011  35.921 -0.1349 -0.2236 -0.0580
21457W        W25857  17.837   3.647  34.600 -0.1628  0.0333 -0.0061
21458W        W25858  14.806   5.398   6.772  0.2472  0.0090  0.0100
21459W        W25859  20.329   4.185   6.043  0.0410 -0.1604  0.0815
21460W        W25860  11.241   6.301  13.321  0.1983  0.2308  0.0041
21461W        W25861  13.427   3.333   5.122 -0.1015  0.2354 -0.0424
21462W        W25862   4.012   2.398  31.977 -0.1685  0.2902  0.0288
21463W        W25863   6.014   3.985   8.432 -0.0108  0.1932 -0.2242
21464W        W25864  10.283   3.970  23.044  0.0382  0.0147 -0.0493
21465W        W25865  21.763   4.922  23.584  0.2405 -0.2373 -0.0702
21466W        W25866  15.595   6.121   5.994 -0.1370 -0.0722  0.5220
21467W        W25867  24.614   4.502   3.929 -0.1139 -0.3100  0.1913
21468W        W25868   5.384   1.983  35.638 -0.2175  0.1022 -0.0087
21469W        W25869  15.411   6.458  24.036 -0.3335  0.3918  0.2141
21470W        W25870   6.021   1.140  12.638  0.0688 -0.1765  0.0961
21471W        W25871  24.440   0.039  22.481 -0.0066 -0.0082 -0.3772
21472W        W25872  13.120   3.167  27.966  0.1787  0.2781 -0.2917
21473W        W25873  24.308   5.598  12.231 -0.3244 -0.0400  0.2248
21474W        W25874   4.601   1.316  26.520  0.0216 -0.2408  0.0528
21475W        W25875  17.211   1.214  28.158  0.2649  0.1031  0.1366
21476W        W25876   7.241   0.810  21.786 -0.0220  0.0195  0.0615
21477W        W25877   1.321   1.582  24.415  0.1271  0.1149  0.0987
21478W        W25878   5.165   3.259  10.511  0.0331 -0.1970 -0.3394
21479W        W25879   2.557   0.216  26.156  0.3114  0.3667 -0.2948
21480W        W25880  16.057   1.027  33.571  0.1646  0.0935  0.0501
21481W        W25881  23.777   4.025   8.120  0.1995  0.0154 -0.0092
21482W        W25882   4.162   1.728  27.326  0.1407  0.0447 -0.2740
21483W        W25883   6.498   1.760  29.685  0.0358  0.1397 -0.0695
21484W        W25884  14.004   0.042  29.233  0.1745  0.0644 -0.0239
21485W        W25885   3.269   4.681   3.782 -0.0065  0.1545 -0.2580
21486W        W25886  20.766   5.478  13.967  0.0440 -0.0560  0.0959
21487W        W25887  14.625   4.420  15.787 -0.1576 -0.0815  0.0764
21488W        W25888   5.974   4.779   1.425  0.2052  0.1137 -0.0996
21489W        W25889  11.203   4.697  34.071  0.3647  0.2982 -0.2368
21490W        W25890  11.187   3.904  27.126 -0.0921  0.1348 -0.1813
21491W        W25891  12.176   4.175  21.431  0.1850  0.0035 -0.0995
21492W        W25892   1.320   0.482  35.682  0.0009 -0.1452  0.0705
21493W        W25893  13.152   4.454  29.800 -0.0279  0.0215  0.1136
21494W        W25894  25.164   3.628   9.034 -0.2730 -0.1561 -0.0343
21495W        W25895  15.488   3.863  23.748  0.1217  0.0475  0.0626
21496W        W25896  13.428   5.875   6.583  0.1404 -0.0987 -0.1778
21497W        W25897   5.433   5.457   7.149  0.0022  0.0046  0.3707
21498W        W25898  17.527   3.836  22.467  0.0446 -0.1082 -0.0073
21499W        W25899   3.409   4.320   9.077 -0.1310 -0.0369 -0.4932
21500W        W25900  12.992   3.580  27.680  0.1227  0.0848 -0.3701
21501W        W25901  25.391   4.336   5.521  0.0813  0.1303 -0.4265
21502W        W25902  23.539   4.856   0.065  0.0123  0.2193  0.0682
21503W        W25903   8.531   4.482  15.004 -0.2210  0.0529  0.0391
21504W        W25904   7.134   1.714  21.500  0.0935 -0.2674  0.2788
21505W        W25905  23.214   5.092   5.418 -0.1888  0.5028 -0.1162
21506W        W25906  12.631   1.558  11.509  0.4872 -0.1710  0.1166
21507W        W25907  19.612   6.373  29.941  0.1037 -0.1754 -0.2946
21508W        W25908  20.788   0.347  29.313  0.1803  0.0205 -0.1032
21509W        W25909  16.685   2.405  22.556 -0.2662  0.3487  0.0253
21510W        W25910   2.569   0.932  10.853 -0.0409 -0.3109 -0.2439
21511W        W25911   2.391   3.554  27.415 -0.5124  0.1828 -0.1321
21512W        W25912  15.210   2.481  27.582 -0.0836  0.0580 -0.1052
21513W        W25913  20.266   0.074  34.057  0.2331  0.0332  0.0567
21514W        W25914  13.810   5.309   9.623 -0.1128  0.0619  0.0803
21515W        W25915  15.263   4.957   8.389  0.2905 -0.2786 -0.1491
21516W        W25916  22.069   4.051  13.183  0.0836  0.0466  0.2775
21517W        W25917  13.087   0.511  12.677  0.0439 -0.0307  0.1246
21518W        W25918  23.116   1.225   7.570  0.2172 -0.1831 -0.1065
21519W        W25919   4.267   1.381  22.142  0.0621 -0.1450  0.1176
21520W        W25920  10.954   4.210  13.264 -0.0984 -0.3977 -0.0045
21521W        W25921  13.595   0.033   7.733 -0.3149 -0.0790  0.3490
21522W        W25922   0.211   5.328  27.970 -0.0519  0.0957 -0.0814
21523W        W25923  18.444   6.000  34.439  0.0259 -0.1272 -0.1089
21524W        W25924  25.247   1.666  35.752  0.3844  0.1352 -0.1165
21525W        W25925  11.391   0.645  20.660  0.2825  0.1336  0.1187
21526W        W25926  17.536   6.575   5.820  0.0383 -0.0028  0.0996
21527W        W25927  17.535   4.731   1.285 -0.0609  0.1489 -0.2486
21528W        W25928   4.459   3.423  11.670  0.1521  0.2176  0.1780
21529W        W25929  16.138   5.510   5.713  0.3161 -0.1200  0.1860
21530W        W25930   1.095   5.409  26.895 -0.1632  0.0784 -0.1766
21531W        W25931  10.579   0.090  25.750 -0.0030  0.2727  0.2345
21532W        W25932  19.973   4.234   3.961 -0.0330  0.0928  0.0358
21533W        W25933  15.234   4.609  32.305  0.1254  0.1496  0.1154
21534W        W25934  20.612   0.847   1.869  0.1530 -0.0944  0.1148
21535W        W25935   1.757   0.313  11.286  0.0289  0.1984 -0.0551
21536W        W25936   7.552   2.635   8.723 -0.1120 -0.1554  0.0863
21537W        W25937   4.423   2.081   5.695  0.0071  0.0232  0.1674
21538W        W25938  16.862   1.880   5.859 -0.0492  0.1279  0.1035
21539W        W25939  15.389   2.946   8.917 -0.0156 -0.0834 -0.4387
21540W        W25940  26.048   6.498  25.066 -0.0217  0.1621 -0.1975
21541W        W25941  15.918   0.911  23.895  0.0378 -0.3229 -0.2521
21542W        W25942   6.396   3.823  15.015  0.2842  0.1366  0.0416
21543W        W25943   8.424   2.214  20.947  0.2495 -0.2754 -0.1656
21544W        W25944   4.358   3.758  23.872  0.2661 -0.1379 -0.1861
21545W        W25945   9.062   5.732  23.208 -0.2375  0.0732  0.2899
21546W        W25946   9.691   0.237  35.940  0.0251  0.0368  0.0515
21547W        W25947   8.344   3.427  28.287  0.0644  0.0990  0.3346
21548W        W25948  15.170   1.239  20.847  0.0939 -0.0400 -0.1635
21549W        W25949  20.779   5.791  22.033 -0.0301  0.2383  0.1041
21550W        W25950  21.264   5.727  30.394  0.2187  0.0217  0.0244
21551W        W25951  23.071   1.773  35.549  0.0383 -0.0493 -0.1657
21552W        W25952  16.258   4.984  29.719  0.5542 -0.0583 -0.2556
21553W        W25953  20.990   4.114   2.601 -0.1015  0.0275  0.2189
21554W        W25954  20.433   1.393  32.524 -0.0623 -0.1344  0.0695
21555W        W25955  11.252   0.680  13.307  0.0589 -0.1880 -0.1848
21556W        W25956  11.147   1.685  34.664  0.0379 -0.0768 -0.0089
21557W        W25957  17.834   2.491   5.193  0.0312  0.1856  0.0453
21558W        W25958   6.055   2.020  22.109  0.2772  0.0343  0.0706
21559W        W25959  17.676   3.539   9.940  0.5844 -0.2467  0.2055
21560W        W25960  22.083   3.781   3.178 -0.0041  0.4075 -0.0265
21561W        W25961  10.166   3.380  27.295 -0.2188  0.1868 -0.1056
21562W        W25962   8.294   2.852  11.615  0.2140  0.2367 -0.0361
21563W        W25963  18.989   6.380   5.192  0.1489  0.1714 -0.0672
21564W        W25964   6.319   0.704  32.322 -0.2954  0.0175  0.0375
21565W        W25965  12.434   4.309  13.443 -0.3015  0.0267  0.1323
21566W        W25966   8.575   5.990   4.932  0.2585  0.0561 -0.0467
21567W        W25967  21.372   1.531  25.877  0.0462  0.0470  0.0981
21568W        W25968   8.468   5.726  11.716 -0.0069 -0.1375 -0.0411
21569W        W25969  11.298   5.980  10.394  0.1479 -0.0566  0.4276
21570W        W25970  23.519   1.938   7.399 -0.0675 -0.0607  0.1960
21571W        W25971   9.962   5.159  32.710 -0.1177 -0.1599 -0.4009
21572W        W25972   9.176   4.850  26.307 -0.2003 -0.3207  0.0309
21573W        W25973   9.884   1.195   3.256  0.0024  0.1634  0.2613
21574W        W25974   7.202   6.406  27.721 -0.2168  0.0284  0.1975
21575W        W25975  11.776   2.885  27.743  0.0119  0.0865  0.1201
21576W        W25976   6.350   1.758  12.836 -0.1401 -0.2120  0.0833
21577W        W25977  17.256   1.746   5.431  0.0286 -0.1038 -0.2234
21578W        W25978  23.057   1.066  30.299 -0.2174  0.1161 -0.1342
21579W        W25979  15.269   6.046  12.317  0.2791 -0.1799 -0.1336
21580W        W25980  16.777   5.467   1.791 -0.2854 -0.1628 -0.1395
21581W        W25981   4.772   0.951  25.680  0.0441 -0.0083  0.3082
21582W        W25982   5.975   2.505  12.274  0.0341  0.1396  0.0847
21583W        W25983  21.458   5.872  33.265  0.2493  0.0459 -0.3537
21584W        W25984   0.949   4.937   6.744 -0.0800  0.0583 -0.1963
21585W        W25985  14.438   0.212   0.218  0.3271  0.0901 -0.1498
21586W        W25986  10.013   5.627  28.680 -0.1399 -0.3374 -0.0480
21587W        W25987  25.426   4.781  14.834  0.0837  0.1116 -0.3277
21588W        W25988   4.153   1.559   6.363 -0.1361 -0.0065 -0.3520
21589W        W25989   5.599   2.689  33.320 -0.4019 -0.2942 -0.0800
21590W        W25990   1.886   1.910  25.009  0.2314 -0.1695  0.2849
21591W        W25991   1.517   5.999  26.206 -0.0194  0.0958  0.2243
21592W        W25992  18.579   4.145  30.666  0.0462  0.0804  0.0406
21593W        W25993   3.689   1.585   0.165  0.1393 -0.1151  0.0508
21594W        W25994   4.988   5.049   6.369 -0.1422  0.1744  0.2542
21595W        W25995  14.641   1.001  32.393 -0.0839 -0.0021  0.3312
21596W        W25996   5.613   2.325   2.706 -0.1966  0.2246  0.2588
21597W        W25997  13.772   6.493   4.517  0.0835  0.0471 -0.4327
21598W        W25998  23.760   5.976  15.128  0.3072  0.0926  0.2180
21599W        W25999  23.953   1.914  35.462  0.0214 -0.1819 -0.1893
21600W        W26000  18.307   5.537  27.006 -0.1184 -0.0492 -0.2843
21601W        W26001  21.561   5.140  33.005 -0.1769  0.0650 -0.0644
21602W        W26002  25.753   1.235   6.051 -0.2487  0.3029  0.0669
21603W        W26003   2.073   3.815   1.960  0.2548  0.1465 -0.0256
21604W        W26004   3.814   4.703   9.298 -0.1388  0.0840 -0.0105
21605W        W26005  13.807   2.181   0.090  0.3230 -0.1880 -0.1737
21606W        W26006   5.240   1.640   5.318  0.2013  0.1804 -0.0467
21607W        W26007  22.743   2.547   6.781 -0.1005  0.1666 -0.2586
21608W        W26008   8.324   4.078   4.791  0.0956 -0.2705  0.2394
21609W        W26009  22.436   4.993  33.995  0.2746 -0.3973 -0.0295
21610W        W26010  10.941   3.141   8.514 -0.3247 -0.0432  0.1264
21611W        W26011  12.243   0.758  26.207  0.1260  0.1442  0.1385
21612W        W26012  23.775   6.020   2.017 -0.0677 -0.1043 -0.0010
21613W        W26013  14.135   3.765  31.529 -0.0980  0.1507 -0.0643
21614W        W26014  15.223   0.264   6.840 -0.0688  0.0615 -0.3183
21615W        W26015  22.775   4.852  14.585  0.2593 -0.0069 -0.0172
21616W        W26016  11.724   1.620  26.438 -0.4841  0.2325 -0.1932
21617W        W26017   3.949   0.068   6.416  0.1068  0.0517  0.2520
21618W        W26018   8.352   1.862   6.552 -0.2934  0.1981 -0.1069
21619W        W26019  15.075   3.223  33.657 -0.3308 -0.0862 -0.1714
21620W        W26020  24.996   0.531  14.054  0.1517  0.1027  0.0690
21621W        W26021  18.038   6.249  28.604 -0.3045 -0.0910 -0.0209
21622W        W26022  19.856   6.021  11.777 -0.2026  0.0797  0.0378
21623W        W26023  10.324   5.023  23.854  0.0646 -0.2579  0.1602
21624W        W26024   1.533   3.392  31.640 -0.1228  0.1357 -0.2606
21625W        W26025   4.191   1.172  12.662  0.1340 -0.2488  0.1324
21626W        W26026  13.211   4.940  35.333 -0.2984  0.0861  0.1775
21627W        W26027  20.344   1.897  26.607 -0.0680 -0.2476  0.1951
21628W        W26028  16.432   2.499  35.369  0.2880  0.2401 -0.0706
21629W        W26029  12.723   5.867   3.667  0.3538 -0.0020  0.1062
21630W        W26030   7.446   1.847  10.581  0.0917  0.1823 -0.0098
21631W        W26031   5.625   4.674   4.930  0.1796  0.0120 -0.2871
21632W        W26032   7.475   5.228   7.815 -0.0254 -0.2377  0.2083
21633W        W26033  11.525   6.583  34.926  0.0309  0.0312 -0.1748
21634W        W26034  18.018   0.433   4.690  0.1792 -0.2624 -0.1998
21635W        W26035  14.450   0.301   6.129  0.0511  0.0557 -0.0795
21636W        W26036   1.716   5.741  24.831  0.4817 -0.1205 -0.0964
21637W        W26037  13.405   5.395  35.678  0.2315 -0.1140 -0.0109
21638W        W26038  19.492   2.283  12.753  0.0929 -0.3507 -0.0615
21639W        W26039  23.255   4.258   6.668 -0.1048  0.0304  0.0187
21640W        W26040   0.229   0.185  26.569  0.4072  0.1853 -0.2019
21641W        W26041  23.306   4.877  28.698 -0.3006 -0.0020  0.0265
21642W        W26042  25.531   1.035   0.870 -0.1791  0.0774 -0.1707
21643W        W26043  22.186   4.610   9.488  0.1802  0.0706  0.0618
21644W        W26044  20.916   5.237  12.707 -0.1683 -0.3824  0.0911
21645W        W26045  14.566   2.549   1.721  0.2527  0.3776 -0.0981
21646W        W26046  26.066   2.497   9.731 -0.1705 -0.0548 -0.1953
21647W        W26047   2.113   5.381  24.345  0.0849 -0.0068  0.2447
21648W        W26048   1.163   1.012   8.598 -0.2889 -0.0055  0.1607
21649W        W26049  23.905   4.261  31.176 -0.0048 -0.2448  0.3142
21650W        W26050  10.131   5.804  35.405  0.1279 -0.0055  0.0795
21651W        W26051  13.845   6.562  34.065 -0.1419 -0.1274 -0.0131
21652W        W26052   9.137   5.083   8.005  0.0771 -0.0210 -0.2716
21653W        W26053  26.005   1.667  23.930 -0.1109  0.0313  0.0141
21654W        W26054  25.996   4.335  31.650 -0.0630 -0.0335 -0.1551
21655W        W26055  19.470   3.111   6.383 -0.2316 -0.0273 -0.1428
21656W        W26056  22.488   3.204  10.444  0.0401  0.0740 -0.1266
21657W        W26057  11.564   5.086   8.956  0.0045 -0.1019 -0.0115
21658W        W26058   2.691   3.377  28.750  0.1983  0.0111  0.0660
21659W        W26059  21.059   1.681   4.619 -0.0862 -0.1550  0.0981
21660W        W26060  26.288   0.460   3.352  0.0255 -0.0682 -0.0380
21661W        W26061  19.954   2.875  11.597 -0.5644 -0.1143 -0.2299
21662W        W26062  13.084   4.336  22.023 -0.2308 -0.0206  0.0317
21663W        W26063  17.931   0.669   2.925 -0.1775  0.1140  0.0809
21664W        W26064  16.674   3.019  13.466 -0.1716 -0.1346 -0.0582
21665W        W26065  11.142   5.998  34.376 -0.1744 -0.0162  0.1660
21666W        W26066  19.514   5.758  31.211 -0.0336 -0.0354  0.0619
21667W        W26067   9.909   3.224   6.132  0.1361  0.0407 -0.1144
21668W        W26068   6.219   2.592  21.274 -0.0643 -0.0769 -0.1336
21669W        W26069  24.039   4.296  12.565  0.0692 -0.2427  0.0977
21670W        W26070   0.404   0.018   8.414 -0.0680  0.2716  0.3033
21671W        W26071  14.135   0.056  27.361  0.5637  0.1464  0.5285
21672W        W26072  11.356   1.327   5.217  0.1656 -0.2790  0.0887
21673W        W26073   1.483   4.120  35.676 -0.0288 -0.0696 -0.2076
21674W        W26074  21.371   5.070  22.322 -0.0241  0.0957  0.2000
21675W        W26075  19.394   2.616   3.843  0.2183  0.1514  0.1305
21676W        W26076  16.622   5.910  30.048  0.1062  0.0671 -0.1790
21677W        W26077  25.263   5.056   0.233  0.0794 -0.0451  0.0736
21678W        W26078  23.474   2.846   8.135 -0.1630  0.1029 -0.0610
21679W        W26079  16.802   2.476  28.672  0.0486  0.0874  0.1211
21680W        W26080  16.514   3.880  14.615 -0.4494  0.0881  0.2556
21681W        W26081  12.148   2.677   2.349  0.0880 -0.0687 -0.0743
21682W        W26082   0.200   2.292  30.537  0.2931  0.1981 -0.0529
21683W        W26083   9.180   1.916  27.578  0.2176 -0.1462  0.1608
21684W        W26084  12.237   3.574  32.993 -0.1205  0.0889  0.2480
21685W        W26085  11.132   4.664  26.321  0.3838 -0.1987  0.1572
21686W        W26086   4.472   5.258  23.417 -0.2826  0.0823  0.1260
21687W        W26087  22.264   6.316  15.108 -0.1637  0.0769 -0.0611
21688W        W26088   6.837   6.238  34.887  0.0603 -0.1557 -0.2423
21689W        W26089   4.157   2.690  29.905  0.2018  0.0801  0.2188
21690W        W26090  10.632   2.148  30.589  0.0824  0.1344 -0.0835
21691W        W26091   0.918   5.884  14.028  0.2961 -0.1576 -0.3696
21692W        W26092  25.926   1.920  33.407 -0.0984  0.2501 -0.1033
21693W        W26093  16.634   5.465  33.416 -0.2000  0.0800  0.1317
21694W        W26094   8.015   5.437   3.302 -0.0287  0.0186  0.0417
21695W        W26095   5.075   4.396  32.165 -0.1604  0.2178 -0.0389
21696W        W26096  22.564   6.578  12.039  0.0880  0.1774 -0.3187
21697W        W26097  14.164   0.244  32.136 -0.3985  0.0376  0.4492
21698W        W26098   0.970   0.518  21.665  0.0207  0.0933 -0.2294
21699W        W26099  23.190   1.607   3.991  0.1597 -0.0780 -0.0252
21700W        W26100   9.301   3.487   8.186  0.0850 -0.0407 -0.1079
21701W        W26101  16.226   3.722  10.913  0.1004 -0.0965  0.1402
21702W        W26102   8.019   3.823  31.918  0.2413 -0.3210 -0.2692
21703W        W26103  25.914   4.185  11.415  0.4174 -0.0215  0.1994
21704W        W26104   7.574   2.472   3.979 -0.1096  0.1767 -0.0191
21705W        W26105  25.068   5.508   3.412  0.2518  0.0587 -0.0278
21706W        W26106  21.826   5.623  10.039  0.0515 -0.0807 -0.1201
21707W        W26107  10.866   4.164  11.367  0.1693  0.1042  0.1836
21708W        W26108  14.048   2.931  21.583 -0.0229  0.1273 -0.3672
21709W        W26109  17.606   3.024  14.641 -0.1400 -0.2665 -0.3454
21710W        W26110   7.914   2.378   5.501  0.1703 -0.1017  0.1835
21711W        W26111   0.688   1.829   6.581  0.0040  0.1607  0.0418
21712W        W26112  15.743   5.660   5.994  0.2434 -0.1820  0.0294
21713W        W26113  24.940   4.584  23.647 -0.0240  0.0510 -0.0316
21714W        W26114  18.963   1.964  35.653  0.0533  0.1947  0.1090
21715W        W26115  24.653   5.433  22.575  0.0851  0.1180  0.0033
21716W        W26116  23.342   2.508  33.818  0.0132 -0.0545  0.1677
21717W        W26117  25.296   0.483  23.113 -0.0576 -0.0643 -0.1026
21718W        W26118  14.510   2.413  10.220  0.2496  0.0645  0.0746
21719W        W26119  13.169   2.775   8.323 -0.0503  0.0094  0.0544
21720W        W26120  19.967   5.166  23.032  0.0521  0.1419 -0.2337
21721W        W26121   7.692   1.128  32.411 -0.1222 -0.1863  0.3727
21722W        W26122  20.745   0.365  25.081  0.0133  0.2145 -0.3946
21723W        W26123   2.467   5.055  14.769  0.0480 -0.1521  0.3600
21724W        W26124   7.787   1.967   6.335 -0.1692 -0.1585 -0.1006
21725W        W26125   6.232   2.995   3.518 -0.0587 -0.0044  0.2281
21726W        W26126  10.746   3.730  23.174 -0.0108 -0.1645 -0.0892
21727W        W26127  18.168   5.682   2.701  0.0988  0.0083  0.0782
21728W        W26128   9.517   5.574  15.560  0.1309 -0.0431 -0.1027
21729W        W26129  11.980   5.677  34.897  0.1716  0.3641  0.2015
21730W        W26130  21.122   4.850   3.167 -0.2660 -0.1085 -0.2793
21731W        W26131  10.643   3.590  35.898 -0.1316 -0.1206 -0.2794
21732W        W26132   8.697   3.821   2.114 -0.1128  0.1510 -0.0817
21733W        W26133  17.308   3.052  35.342  0.2290 -0.0273  0.1619
21734W        W26134  15.097   6.279   6.120 -0.0427  0.2818  0.1228
21735W        W26135   4.189   4.668  29.437 -0.3487 -0.0832  0.0876
21736W        W26136  23.338   6.029  10.698  0.1437  0.3036 -0.2323
21737W        W26137   4.752   4.154  25.452  0.1681  0.2936 -0.2758
21738W        W26138   8.000   1.659  24.837  0.0883  0.1816  0.0894
21739W        W26139  25.688   3.255  22.567  0.3557 -0.2891 -0.0410
21740W        W26140   7.897   0.063   0.798  0.0838 -0.2855  0.1214
21741W        W26141  24.667   0.258   1.411 -0.1159 -0.2356  0.0372
21742W        W26142  10.791   0.035  30.818  0.1451  0.1235 -0.0826
21743W        W26143  26.047   1.023  11.046  0.4269 -0.0174 -0.2004
21744W        W26144   5.437   4.741  11.545  0.0988  0.0996  0.1598
21745W        W26145  14.385   1.566  10.197  0.1341 -0.0716  0.2469
21746W        W26146   6.499   1.126  23.190 -0.3494 -0.0393 -0.0703
21747W        W26147  13.831   1.184   7.860  0.1763  0.0288  0.0036
21748W        W26148  15.397   2.250  21.336 -0.1215 -0.1500  0.1264
21749W        W26149   5.506   3.942   6.402 -0.4232 -0.1891 -0.0652
21750W        W26150  16.794   0.223  26.066  0.0703  0.1181 -0.1810
21751W        W26151  22.305   0.310   5.205 -0.5125  0.0351 -0.1033
21752W        W26152  22.585   1.148  33.822  0.2381  0.0120 -0.0747
21753W        W26153  16.819   1.625  20.822  0.0386  0.0532 -0.2419
21754W        W26154   0.466   4.043  27.977  0.1092 -0.0019  0.1408
21755W        W26155  14.236   1.339  24.304  0.1707  0.3364 -0.1862
21756W        W26156  17.055   1.174  23.834  0.1536  0.0770  0.0084
21757W        W26157   6.133   4.336  32.576  0.0905  0.2526 -0.0580
21758W        W26158  10.758   2.871   1.360 -0.0552 -0.1631  0.2407
21759W        W26159  14.640   4.059   5.522 -0.1338 -0.1414 -0.0457
21760W        W26160  11.678   5.121  23.402  0.1438 -0.0559  0.0758
21761W        W26161   1.210   3.023  28.982  0.3227 -0.1246  0.0340
21762W        W26162   8.305   4.951   0.282 -0.3030  0.3998 -0.0447
21763W        W26163  24.466   3.958  29.482  0.1373  0.2308  0.0418
21764W        W26164   1.393   5.865  23.016  0.0683  0.0682 -0.2282
21765W        W26165  23.991   5.599  33.707 -0.0357 -0.2137  0.1494
21766W        W26166  16.358   1.486  35.972  0.3767 -0.0499  0.1778
21767W        W26167  23.130   3.277   2.745  0.1956  0.0455  0.1616
21768W        W26168  24.486   5.488  23.402 -0.2340 -0.0793 -0.0314
21769W        W26169  25.548   5.911  34.567  0.0035  0.2273 -0.0506
21770W        W26170  24.132   1.235  21.747  0.1660  0.1307 -0.2081
21771W        W26171  18.498   3.234  23.778  0.2208  0.0935  0.1142
21772W        W26172   9.947   4.923  27.721 -0.2044  0.0842  0.0957
21773W        W26173   4.175   6.524  25.153 -0.0252  0.0434 -0.1207
21774W        W26174  25.269   6.267   2.004  0.0218  0.1254  0.1418
21775W        W26175   3.534   4.699  34.725  0.2907 -0.1936  0.0198
21776W        W26176  18.741   6.007   2.900  0.1635 -0.0272 -0.0774
21777W        W26177  13.922   5.392  32.728 -0.1905 -0.0501 -0.0072
21778W        W26178  17.037   6.183  14.172 -0.3232  0.1451  0.0542
21779W        W26179  23.732   1.331   0.663  0.2817 -0.2569 -0.3321
21780W        W26180  19.336   0.225  15.018  0.2517  0.0893 -0.1630
21781W        W26181  22.301   6.348  14.225 -0.0072  0.0344  0.0312
21782W        W26182   9.469   2.242   5.742  0.0393  0.1779  0.0774
21783W        W26183  11.252   0.064   5.774 -0.0453 -0.0158  0.1054
21784W        W26184  18.019   2.523  14.505  0.1369 -0.0058 -0.0514
21785W        W26185   1.136   1.447  24.994  0.0593  0.1309  0.1350
21786W        W26186  21.617   1.126   2.907  0.3857 -0.2372 -0.0769
21787W        W26187  23.502   0.902  23.876  0.1468 -0.1021 -0.1657
21788W        W26188  12.390   6.269   2.794  0.0532 -0.2724 -0.1315
21789W        W26189  18.343   3.725  34.909  0.1655  0.3167  0.1156
21790W        W26190  18.901   3.271  31.526 -0.0409 -0.0133 -0.0249
21791W        W26191  21.299   2.330  32.465  0.1451 -0.0722  0.0540
21792W        W26192  18.257   2.771   0.258 -0.1646 -0.0241  0.2037
21793W        W26193  14.271   5.534  12.875 -0.0793 -0.0357  0.0269
21794W        W26194  24.861   1.894  21.934  0.1344  0.0236 -0.0277
21795W        W26195  12.966   1.585  33.849 -0.1924  0.2204  0.1882
21796W        W26196  14.549   1.699  15.143  0.0046 -0.0104  0.0952
21797W        W26197  25.306   4.875  31.482  0.0672 -0.1913  0.1479
21798W        W26198   0.601   6.191  29.236  0.0114  0.0724 -0.0052
21799W        W26199  22.940   5.145  24.288  0.0138  0.2181  0.2717
21800W        W26200   9.798   4.831  11.064  0.1743 -0.0536 -0.3301
21801W        W26201  16.999   3.987  13.647  0.2148  0.0341  0.2373
21802W        W26202  14.286   3.359  21.447  0.0285  0.1358 -0.2178
21803W        W26203   4.409   1.071   1.091 -0.1788  0.2255 -0.0003
21804W        W26204  17.229   3.766  31.492 -0.1215 -0.1986 -0.0309
21805W        W26205  19.407   2.469   8.189 -0.3197  0.3290  0.1593
21806W        W26206   0.017   4.465  12.783 -0.2530  0.0836  0.0993
21807W        W26207  19.060   2.806   5.594  0.1958  0.0289 -0.2275
21808W        W26208  23.691   3.633   7.233 -0.0886 -0.0245 -0.2210
21809W        W26209  19.945   0.378  24.187  0.0536 -0.3011 -0.1969
21810W        W26210   9.013   5.452  26.385 -0.1625  0.1539  0.0108
21811W        W26211  18.575   6.222  13.122 -0.0780 -0.0408 -0.2000
21812W        W26212  20.911   2.119  24.558 -0.1349 -0.2168  0.0846
21813W        W26213  23.772   1.494  21.074 -0.2453 -0.0495  0.1220
21814W        W26214   3.032   3.260  35.257  0.2206  0.3795 -0.2543
21815W        W26215  13.481   0.500   8.806  0.0725  0.1596  0.3458
21816W        W26216  24.758   0.282   4.148 -0.0635 -0.3594 -0.1478
21817W        W26217   1.803   3.722   2.399 -0.1367  0.2158 -0.2200
21818W        W26218  14.243   5.259  24.795 -0.1166 -0.1053  0.0358
21819W        W26219  18.642   1.926   5.524  0.2188 -0.2626  0.1306
21820W        W26220   7.971   4.109  26.725 -0.2457 -0.0638  0.1544
21821W        W26221   0.166   3.328  11.855  0.2081  0.0168 -0.1033
21822W        W26222  15.328   4.561   9.854  0.0713  0.3568 -0.0235
21823W        W26223   2.693   2.756  10.889 -0.0903  0.2022  0.0466
21824W        W26224  21.391   5.556  13.174  0.4149 -0.0921 -0.0333
21825W        W26225  21.513   5.778  10.818 -0.3627 -0.2616  0.1167
21826W        W26226  21.587   5.788   0.719  0.0310 -0.1408 -0.0635
21827W        W26227  24.401   1.002  34.604  0.1900  0.0421 -0.0212
21828W        W26228   8.625   6.204  33.130  0.2023 -0.0795 -0.0336
21829W        W26229  21.393   0.366  13.036  0.1603  0.0442 -0.0942
21830W        W26230  10.193   0.981  35.317  0.0494  0.2015 -0.0487
21831W        W26231  14.219   0.466  15.881 -0.3224 -0.1279 -0.3320
21832W        W26232  22.442   4.916  35.638 -0.1423  0.0460 -0.2517
21833W        W26233   3.965   5.855  30.447 -0.2063  0.1659  0.0083
21834W        W26234  11.397   3.128  35.836 -0.0102  0.1949  0.1537
21835W        W26235  12.322   3.392  29.417 -0.0793 -0.1704  0.0894
21836W        W26236  22.577   1.151  23.696  0.1797  0.0790  0.3644
21837W        W26237  18.419   1.792   4.724  0.5169  0.1882  0.1159
21838W        W26238  21.110   2.082  26.675  0.1934  0.1752 -0.2013
21839W        W26239  10.550   2.727  14.875  0.4717  0.1019  0.1398
21840W        W26240  19.798   3.131  33.522 -0.0474  0.0023 -0.0238
21841W        W26241   6.615   2.685  28.363 -0.4766 -0.1700 -0.1101
21842W        W26242   3.681   0.346   9.215  0.0656  0.0221 -0.0062
21843W        W26243  15.188   4.592  27.397  0.1670 -0.0781 -0.3616
21844W        W26244   1.204   5.160  32.796  0.1738 -0.0271 -0.1682
21845W        W26245  19.319   4.975  20.626  0.0660  0.1386  0.1505
21846W        W26246  15.588   4.417  28.877  0.0222  0.2370  0.0330
21847W        W26247   3.120   3.684  21.368  0.2176  0.2084 -0.0207
21848W        W26248  26.215   3.161   6.506  0.0516  0.1866 -0.0499
21849W        W26249  17.495   5.580  29.647 -0.1074 -0.0540 -0.2737
21850W        W26250  24.814   2.591  31.152  0.1352 -0.1992  0.0498
21851W        W26251  23.574   4.797   7.347 -0.1538  0.1603  0.1045
21852W        W26252  22.661   6.466   2.777  0.0478  0.1271 -0.0934
21853W        W26253  13.626   4.203  26.267 -0.0137 -0.0815  0.0443
21854W        W26254   1.605   1.585  35.495 -0.3553 -0.1292 -0.1587
21855W        W26255  24.348   6.061  11.141 -0.1126  0.2503  0.0057
21856W        W26256  13.350   2.098   5.652  0.4673 -0.1911  0.1082
21857W        W26257   6.087   2.997   9.183 -0.0763 -0.2653  0.1490
21858W        W26258   8.737   3.403  27.371 -0.2101 -0.2007 -0.0762
21859W        W26259   4.275   3.219   5.401  0.0986 -0.2052 -0.0831
21860W        W26260  18.730   3.823   0.255  0.0574  0.0784 -0.0840
21861W        W26261  19.038   4.894  28.171  0.0559  0.1621 -0.1983
21862W        W26262  15.027   4.258   3.988  0.3038  0.1013 -0.3310
21863W        W26263  24.795   3.050   5.763 -0.2232  0.0074  0.0867
21864W        W26264  19.320   5.414   6.177 -0.0119 -0.2339 -0.2210
21865W        W26265  22.887   2.965  27.511  0.1635  0.1238  0.0622
21866W        W26266   6.008   3.041  27.313  0.1576  0.1961  0.1298
21867W        W26267  25.978   0.940   0.071 -0.1752  0.1159 -0.1430
21868W        W26268   3.899   6.075  23.156 -0.0107  0.3241  0.2068
21869W        W26269   8.995   1.315  22.646  0.1254 -0.1143  0.0801
21870W        W26270  16.618   3.803  34.501 -0.0968 -0.3099 -0.1549
21871W        W26271  14.786   2.177  23.219 -0.3144 -0.4261 -0.0917
21872W        W26272  18.754   5.626  10.860 -0.0782  0.1606  0.3834
21873W        W26273  21.017   3.053   4.821 -0.1507  0.1826 -0.1716
21874W        W26274   9.124   1.792  35.690  0.0042  0.1063 -0.2336
21875W        W26275   8.592   1.204  12.451  0.0651  0.0675 -0.1797
21876W        W26276   9.145   5.805  12.733 -0.1005 -0.0996  0.3773
21877W        W26277   1.893   6.336  11.868 -0.0108 -0.0052  0.2617
21878W        W26278  23.160   2.784  21.721  0.1649 -0.1311  0.2801
21879W        W26279  14.856   3.389   4.128  0.2431  0.1288 -0.0099
21880W        W26280   6.935   5.072  20.594 -0.1725  0.2081  0.3508
21881W        W26281  12.334   5.900   0.518 -0.1218 -0.1090 -0.2037
21882W        W26282  20.882   4.590   8.383  0.0239 -0.3152 -0.2599
21883W        W26283  17.881   1.166   4.150  0.4394  0.2288 -0.1888
21884W        W26284  12.295   5.883   6.153 -0.0192 -0.1108 -0.0110
21885W        W26285   5.735   1.584  31.597 -0.0339  0.1492 -0.2899
21886W        W26286  15.416   1.700  34.969  0.1214  0.2076 -0.0705
21887W        W26287   7.920   4.181   4.563  0.0140  0.0483  0.1166
21888W        W26288  16.010   3.760   8.861 -0.3668 -0.1139 -0.1030
21889W        W26289   5.643   2.179   9.485 -0.0973 -0.2641  0.1196
21890W        W26290  16.137   1.120  35.727 -0.1806  0.1690  0.2069
21891W        W26291   2.866   6.410  21.778  0.2972 -0.0710  0.3526
21892W        W26292   7.142   3.163   2.178 -0.0464  0.1235 -0.2410
21893W        W26293   0.494   6.526  14.621 -0.2283 -0.1726  0.2881
21894W        W26294  23.749   6.220  11.851 -0.1906 -0.0354  0.3164
21895W        W26295   6.604   5.679  31.680  0.1011 -0.2829 -0.0728
21896W        W26296   2.602   1.703  28.008  0.1981  0.2156 -0.1704
21897W        W26297   2.417   3.395  23.159  0.0380  0.1572  0.2544
21898W        W26298   8.220   5.028   3.005 -0.2293 -0.1257  0.0269
21899W        W26299  10.961   3.402   3.609 -0.0638 -0.1723 -0.1784
21900W        W26300  17.600   1.782   3.506 -0.0159 -0.0398  0.0895
21901W        W26301  11.645   0.479   0.052 -0.1886  0.0382 -0.0240
21902W        W26302   0.738   3.429  12.552 -0.0548 -0.0568 -0.2560
21903W        W26303   8.524   4.078   7.861 -0.0129 -0.0841  0.0937
21904W        W26304  18.267   1.923  26.508 -0.1102  0.0813 -0.1625
21905W        W26305   2.746   3.731  22.494  0.2017  0.0790 -0.0288
21906W        W26306   1.244   1.946  15.222  0.0211  0.0533  0.1964
21907W        W26307  11.608   6.297  22.178 -0.1557 -0.0606  0.0180
21908W        W26308  11.175   3.937  23.400 -0.1018  0.2095 -0.1918
21909W        W26309   2.242   2.197   8.275  0.3090  0.3157  0.2041
21910W        W26310   3.144   0.611  30.686  0.0847  0.0559  0.0231
21911W        W26311  21.169   6.208   0.708 -0.1136 -0.1971 -0.0542
21912W        W26312   4.693   2.269   1.352 -0.1612  0.0690 -0.0968
21913W        W26313  26.179   3.792  30.917 -0.2033  0.0031 -0.1288
21914W        W26314   2.073   4.141   8.959 -0.1595 -0.0081  0.2451
21915W        W26315  11.998   5.790  35.379  0.0765 -0.2627 -0.1558
21916W        W26316  19.688   6.387   4.018 -0.3472 -0.1740 -0.2167
21917W        W26317  21.528   4.932   1.734  0.3160 -0.0782  0.0505
21918W        W26318   6.899   0.165  31.823  0.1009 -0.0903  0.2130
21919W        W26319  22.358   0.684   2.448 -0.0923  0.0484 -0.2932
21920W        W26320  15.350   2.802   3.976  0.0794 -0.0939 -0.1798
21921W        W26321   4.541   1.731  34.672 -0.4058 -0.2147 -0.0794
21922W        W26322   1.974   2.344   2.742  0.0460 -0.0280  0.0537
21923W        W26323   9.961   2.003  10.904 -0.1123  0.0065 -0.1698
21924W        W26324  10.670   5.284   7.743  0.1630 -0.2710  0.1203
21925W        W26325   9.685   4.394   1.398 -0.1782 -0.1897  0.0188
21926W        W26326  14.609   1.251   9.544  0.5322 -0.1396 -0.1223
21927W        W26327  19.220   3.364  21.355  0.2275 -0.0890  0.2504
21928W        W26328  18.328   5.118  30.126  0.1694 -0.3717  0.1024
21929W        W26329  26.025   2.384   2.020 -0.1621 -0.1586  0.1944
21930W        W26330  13.414   3.084  26.830 -0.0857 -0.0528  0.0493
21931W        W26331   5.258   0.238   1.948  0.0306  0.1339  0.2022
21932W        W26332  24.204   1.238  14.684 -0.0004  0.2189 -0.2309
21933W        W26333   7.331   4.190   2.609 -0.2143  0.2906  0.0682
21934W        W26334  22.209   6.146   7.971 -0.1786 -0.1494 -0.0145
21935W        W26335  19.544   6.223  13.839  0.1714  0.2221 -0.2091
21936W        W26336  16.811   1.417  32.409 -0.0096 -0.1543 -0.0804
21937W        W26337   4.942   1.437  13.108  0.3021  0.3120  0.2705
21938W        W26338   9.598   3.262  36.001 -0.0181 -0.0950 -0.1341
21939W        W26339  23.556   6.455   6.909 -0.0313  0.3309 -0.0257
21940W        W26340   6.074   3.705   5.366 -0.1504 -0.0852 -0.3993
21941W        W26341   0.585   2.262  34.112  0.0213  0.2423 -0.1166
21942W        W26342  25.628   3.992  25.766 -0.1944 -0.0929 -0.0376
21943W        W26343  16.191   3.237   4.840 -0.1329  0.1610 -0.3354
21944W        W26344  23.709   3.298   8.140 -0.1053  0.1203 -0.1737
21945W        W26345  23.852   3.336  34.135  0.1483  0.1248  0.1577
21946W        W26346  20.306   0.873  14.018  0.1036 -0.1801  0.0916
21947W        W26347  13.434   3.254  34.694  0.1298  0.4777 -0.0639
21948W        W26348  13.372   2.935  15.319 -0.3053  0.3716  0.0542
21949W        W26349  21.815   1.928  30.971  0.2184 -0.1128 -0.0125
21950W        W26350  17.975   0.715  10.324 -0.3321 -0.4166 -0.1948
21951W        W26351  14.024   4.478   8.575 -0.0863  0.0110 -0.0895
21952W        W26352   6.022   1.611  29.697 -0.0009  0.3837  0.2798
21953W        W26353   5.910   0.034  13.607 -0.0291  0.0790 -0.0284
21954W        W26354  23.685   2.882  32.666 -0.2971  0.0091  0.0736
21955W        W26355  15.916   1.167  11.818  0.0839  0.1478  0.3003
21956W        W26356   0.481   5.354  26.025  0.0345  0.1033  0.2549
21957W        W26357  10.672   5.767  13.688  0.0529  0.0219  0.0883
21958W        W26358  20.511   0.925  13.528  0.0324  0.1548  0.0445
21959W        W26359  26.124   2.178  27.636 -0.0913 -0.1103 -0.0992
21960W        W26360   7.717   0.743  10.128 -0.1513  0.3651  0.0718
21961W        W26361  24.930   4.300  12.137  0.0429 -0.3385  0.3594
21962W        W26362  24.000   6.408  22.539 -0.0615 -0.2232  0.0533
21963W        W26363   9.353   0.726  12.854 -0.3339  0.1346  0.0052
21964W        W26364  22.757   5.563   7.970  0.1803  0.0189  0.0388
21965W        W26365  10.783   3.048   6.381  0.0110  0.2377 -0.3338
21966W        W26366   7.547   6.358   1.610  0.0153  0.3058 -0.0146
21967W        W26367   1.864   1.434   2.651  0.0861 -0.1220 -0.1160
21968W        W26368   1.351   6.567   6.622 -0.1048  0.0362 -0.1254
21969W        W26369   5.819   5.040  33.355  0.0483 -0.0178  0.0211
21970W        W26370  13.116   1.611  35.317  0.0716  0.1270 -0.0395
21971W        W26371   1.722   1.130  15.147 -0.1268  0.1839 -0.3728
21972W        W26372  22.302   6.341   3.346  0.1175 -0.2290 -0.0124
21973W        W26373   5.316   0.675  27.395  0.0659  0.0993 -0.1765
21974W        W26374  15.494   5.522  10.803  0.0680 -0.3001  0.2039
21975W        W26375   6.920   1.347  32.542 -0.0180  0.1822  0.1886
21976W        W26376   0.036   3.790   2.045 -0.1132  0.0304  0.1026
21977W        W26377  23.028   3.429  23.148 -0.3184  0.1683 -0.1047
21978W        W26378  18.660   6.520  20.762  0.3467 -0.1735 -0.2442
21979W        W26379  18.665   0.665  35.360  0.0418  0.2333 -0.0094
21980W        W26380  18.272   3.769  28.281  0.0465 -0.0181  0.0919
21981W        W26381  11.460   1.036   6.481 -0.0143  0.0465  0.1539
21982W        W26382   7.020   2.409   3.386  0.2428 -0.1386  0.0496
21983W        W26383   0.297   5.080  33.824 -0.0040  0.0776 -0.1896
21984W        W26384   2.702   4.577  21.386 -0.0326 -0.1186 -0.0840
21985W        W26385   9.537   2.432  24.620  0.1585 -0.1934 -0.2657
21986W        W26386   1.615   4.386   8.522  0.1360 -0.1479 -0.0781
21987W        W26387  14.324   4.184   6.428  0.2775 -0.2197 -0.0791
21988W        W26388  13.406   6.519  15.681 -0.1974  0.0682 -0.1710
21989W        W26389  23.075   0.835  22.695  0.0480 -0.0958  0.1100
21990W        W26390  22.327   0.227  25.526  0.0953 -0.2429  0.3008
21991W        W26391  17.724   1.683  11.453 -0.3459 -0.2818  0.0464
21992W        W26392  18.563   3.851  20.729 -0.0964 -0.1535 -0.0171
21993W        W26393   0.900   4.658  25.403 -0.3182  0.2748  0.1217
21994W        W26394   5.785   4.872  36.071 -0.0707  0.0635  0.1772
21995W        W26395   8.711   3.222  13.552  0.0410  0.0451 -0.0739
21996W        W26396  12.737   5.304  25.853 -0.1629 -0.0574 -0.1593
21997W        W26397   1.101   3.080  11.643  0.1875  0.0505 -0.1438
21998W        W26398   7.210   4.327  25.142 -0.2036 -0.2483 -0.0226
21999W        W26399  16.277   4.117  28.197 -0.0462  0.0263 -0.2520
22000W        W26400   0.054   2.790  24.197  0.2086 -0.0788  0.0523
22001W        W26401   1.124   5.619  14.496  0.1944 -0.1717 -0.3144
22002W        W26402  25.316   0.963  19.884  0.1166  0.1977 -0.2107
22003W        W26403  16.272   3.035   3.995 -0.0621  0.2284 -0.2212
22004W        W26404  24.797   0.335  12.215 -0.3157  0.0354  0.0140
22005W        W26405  19.635   3.958   3.171  0.0264  0.0092 -0.0523
22006W        W26406  22.114   1.180  28.275 -0.0744  0.0593  0.2068
22007W        W26407  19.323   1.263   1.923  0.2195  0.0074  0.0367
22008W        W26408  17.887   1.198   9.082  0.1001 -0.0738  0.0814
22009W        W26409   6.953   1.585  12.098  0.1319  0.2721  0.1109
22010W        W26410  22.030   4.919  29.260 -0.1462 -0.1289  0.1202
22011W        W26411  18.667   3.650  28.596 -0.0308 -0.0390 -0.2038
22012W        W26412  12.025   5.046  11.685  0.0262 -0.0119 -0.1735
22013W        W26413   9.335   2.912   7.764  0.3354 -0.0979  0.0337
22014W        W26414  15.214   5.779  10.491 -0.2739  0.0528 -0.0765
22015W        W26415   4.722   2.189  22.749  0.0290 -0.1109 -0.3163
22016W        W26416   6.358   2.630  29.196  0.0710  0.0044  0.3745
22017W        W26417  20.324   4.687   5.951  0.1301  0.3410 -0.3846
22018W        W26418  12.165   2.394  10.005 -0.1436 -0.1018 -0.0966
22019W        W26419   4.104   3.509   1.085 -0.1024 -0.0568 -0.1677
22020W        W26420   8.135   6.370  35.042  0.0413 -0.0651 -0.0314
22021W        W26421  16.948   2.645  13.096 -0.3540 -0.2480  0.0260
22022W        W26422  13.915   4.441  20.547  0.0182 -0.0607  0.0880
22023W        W26423   5.105   5.039   3.583 -0.1921 -0.0899 -0.1223
22024W        W26424  17.585   4.431   8.898  0.0463 -0.1371  0.1721
22025W        W26425   5.301   1.670  30.499 -0.3336 -0.0184  0.1065
22026W        W26426  20.664   5.517  28.282  0.3206 -0.0227  0.1490
22027W        W26427   3.707   1.607  35.643 -0.1893  0.3785 -0.2101
22028W        W26428  10.309   2.144   3.241 -0.0493  0.0200  0.4183
22029W        W26429   1.592   5.662   8.508  0.0969 -0.0881 -0.0980
22030W        W26430  24.193   1.749  25.077 -0.1164 -0.0247  0.1537
22031W        W26431   0.512   5.345   8.547 -0.0424 -0.0502  0.0683
22032W        W26432  22.371   2.339  24.224  0.2349 -0.0964  0.0915
22033W        W26433   6.291   0.576  23.434  0.1619  0.2359  0.0864
22034W        W26434   6.432   0.620   9.015 -0.2348  0.1770  0.2939
22035W        W26435   4.871   1.287  31.365  0.1703  0.3471  0.0469
22036W        W26436   2.828   4.418  14.371  0.0343  0.0645 -0.1369
22037W        W26437  22.782   6.456   8.847 -0.1564  0.1341  0.0639
22038W        W26438  20.401   1.731  13.752 -0.1034 -0.0029  0.1808
22039W        W26439  21.253   3.992  28.425  0.1190  0.0461 -0.0870
22040W        W26440  10.340   1.939  22.005 -0.1936  0.2663 -0.0087
22041W        W26441  12.092   5.711  13.261 -0.0671 -0.1200  0.2628
22042W        W26442  15.104   2.640  34.877 -0.0087 -0.1457 -0.0793
22043W        W26443   1.389   0.076  27.985 -0.0955  0.1060 -0.1483
22044W        W26444   9.461   3.407   7.654  0.3285  0.3597 -0.0996
22045W        W26445   4.446   1.289   5.415 -0.3021 -0.0265  0.1850
22046W        W26446  22.789   5.051  22.550 -0.0721  0.1516  0.1434
22047W        W26447   5.025   2.128  21.297 -0.1665  0.0423  0.4319
22048W        W26448  16.695   5.981  14.577 -0.0051  0.2523 -0.3221
22049W        W26449   0.320   2.022  35.584 -0.1066 -0.1987 -0.0908
22050W        W26450   1.588   0.145   5.716 -0.0795 -0.0144 -0.2055
22051W        W26451  17.433   2.455  22.130 -0.1332 -0.0109  0.0146
22052W        W26452  15.351   0.952  15.021  0.3201 -0.1183 -0.0767
22053W        W26453   5.938   2.791  30.274 -0.3006 -0.1277 -0.0268
22054W        W26454  11.123   3.906  13.685 -0.0566  0.1551  0.0998
22055W        W26455  10.809   2.311  32.968 -0.1202  0.0112  0.1407
22056W        W26456   4.700   3.948  22.359 -0.0296 -0.1988  0.1528
22057W        W26457  22.105   1.336  30.202  0.1567  0.0698 -0.0494
22058W        W26458   1.995   1.057   0.070  0.3513  0.0899  0.1497
22059W        W26459  17.476   2.228   7.906 -0.1766 -0.2034 -0.1385
22060W        W26460   3.740   5.253  28.730 -0.0528  0.0858  0.2142
22061W        W26461  16.845   5.628  29.084  0.2862  0.1863 -0.1418
22062W        W26462  18.586   1.421  12.996  0.3706 -0.1519 -0.2613
22063W        W26463   2.488   0.555  23.629  0.3901  0.0064 -0.1904
22064W        W26464  24.711   1.223   0.385 -0.1510  0.0159 -0.3246
22065W        W26465  19.823   0.037   5.126  0.2592 -0.2332 -0.0642
22066W        W26466  23.788   6.268   7.331 -0.0982 -0.1399 -0.0641
22067W        W26467   6.183   4.632  29.346  0.0262 -0.1922 -0.0142
22068W        W26468  11.737   0.940  11.163 -0.3550  0.0194 -0.0741
22069W        W26469  26.199   2.373  28.872 -0.2113 -0.0612  0.1286
22070W        W26470  17.363   3.532  24.266  0.1534 -0.0716 -0.0912
22071W        W26471  12.944   2.982   0.892 -0.0382 -0.1125  0.0525
22072W        W26472  13.700   4.347  21.005 -0.0328  0.0200 -0.0171
22073W        W26473  16.292   5.067  15.594 -0.1387  0.0874  0.0164
22074W        W26474  18.134   2.607  33.727 -0.1792 -0.0865 -0.2664
22075W        W26475  10.473   5.886   8.952  0.1004  0.0959  0.3482
22076W        W26476  24.979   1.549  23.344  0.1511 -0.1610  0.1445
22077W        W26477   5.359   4.770  35.789  0.1243  0.1434  0.0869
22078W        W26478  15.067   2.595   2.097  0.1435 -0.3663 -0.0190
22079W        W26479  10.447   1.833  32.763  0.1100  0.2467  0.0208
22080W        W26480   1.381   6.066  23.486  0.1678  0.1370 -0.1799
22081W        W26481   6.320   4.773   0.617  0.0422  0.0911 -0.1498
22082W        W26482   8.273   5.892  11.200  0.0622 -0.2466 -0.3232
22083W        W26483  24.518   1.346  30.203 -0.1670  0.0708 -0.0359
22084W        W26484  14.249   1.345   3.204 -0.2577 -0.0460  0.0422
22085W        W26485   2.424   0.421  12.357  0.1328 -0.2192 -0.0367
22086W        W26486   0.659   4.217  10.752 -0.0118 -0.2474  0.0218
22087W        W26487   3.718   0.772  26.592 -0.0338 -0.1254  0.3306
22088W        W26488  24.338   1.910   8.338  0.0889 -0.1020  0.1975
22089W        W26489  21.632   5.858   1.239  0.3003 -0.1260  0.1666
22090W        W26490   0.839   1.120  26.696  0.2280 -0.2043 -0.0078
22091W        W26491  19.340   5.125  30.160 -0.0663 -0.1549  0.3274
22092W        W26492   7.192   3.851   5.048  0.5207  0.2656  0.1846
22093W        W26493  16.539   3.655  24.784 -0.1241 -0.3150  0.0728
22094W        W26494  15.697   0.332  22.728 -0.1175 -0.1359  0.1523
22095W        W26495  18.472   6.574  27.800 -0.0527 -0.2794 -0.0574
22096W        W26496  26.294   3.204  21.893 -0.1121 -0.2195  0.1989
22097W        W26497  21.571   4.669  29.405  0.0790 -0.3764  0.2579
22098W        W26498   5.812   1.224  29.901  0.1298 -0.0871  0.2375
22099W        W26499   5.185   3.091   7.598 -0.0047  0.1800  0.2462
22100W        W26500  23.037   5.989  21.505  0.0648  0.3966  0.1416
22101W        W26501  22.544   6.298  23.791  0.1701 -0.2591 -0.0558
22102W        W26502  11.552   5.596  23.476 -0.0623 -0.0473 -0.1693
22103W        W26503   7.524   0.450  15.331  0.0952  0.0541 -0.0253
22104W        W26504   0.478   3.585   0.784 -0.1193  0.0045  0.2278
22105W        W26505  24.391   4.820   8.878 -0.0675  0.1563  0.0777
22106W        W26506   0.853   3.401  29.131 -0.0787 -0.0974  0.0806
22107W        W26507   4.591   2.786  14.576  0.2920 -0.2105 -0.0137
22108W        W26508  14.987   1.141  33.271 -0.1883 -0.0633  0.0439
22109W        W26509  17.656   0.635   0.827 -0.0327 -0.1132  0.1548
22110W        W26510  13.411   4.967   0.836  0.0763 -0.2954 -0.0444
22111W        W26511   9.538   0.655  34.582  0.1355  0.1929  0.1352
22112W        W26512  20.936   1.782  13.586 -0.1044 -0.0102 -0.0263
22113W        W26513  22.631   4.808  15.403  0.0623  0.0862  0.2185
22114W        W26514   6.257   0.201  28.961  0.0127 -0.2609 -0.0922
22115W        W26515  16.808   6.593   0.246 -0.0361 -0.2281 -0.2138
22116W        W26516  19.376   0.265  13.250  0.2566 -0.1683  0.0343
22117W        W26517  22.751   3.301  29.339 -0.3204 -0.0111 -0.1678
22118W        W26518  20.546   5.402  22.818 -0.0160  0.1582 -0.0644
22119W        W26519  14.556   6.364  24.820  0.2001  0.1077 -0.1525
22120W        W26520  22.666   6.161  33.263 -0.0020 -0.0681 -0.3798
22121W        W26521   9.970   0.698   1.530 -0.0519  0.0572  0.2380
22122W        W26522   9.222   6.102  28.874 -0.2749  0.2810  0.0410
22123W        W26523  21.340   0.541   8.795 -0.0391 -0.0239  0.1918
22124W        W26524  25.734   4.667  24.188 -0.1365 -0.0715  0.1221
22125W        W26525  24.347   3.097  24.758 -0.0582 -0.2964 -0.2438
22126W        W26526  11.426   0.411  35.634 -0.0868  0.2986  0.1191
22127W        W26527   3.409   1.203  26.647  0.2466 -0.0533  0.0537
22128W        W26528  21.535   2.200  27.763 -0.1653 -0.0801  0.2045
22129W        W26529  20.462   1.487  28.163 -0.0817 -0.0125  0.0594
22130W        W26530  20.592   4.880   9.779 -0.1775  0.2146 -0.0259
22131W        W26531  11.992   5.869  23.413  0.2227  0.2599 -0.1235
22132W        W26532  24.429   0.720  33.127  0.1758 -0.0955 -0.2801
22133W        W26533  19.020   1.486  34.745  0.1830 -0.1888 -0.0041
22134W        W26534   4.267   4.040   4.111 -0.0013  0.0521  0.0817
22135W        W26535   5.543   4.673  32.849  0.2924  0.2037  0.1119
22136W        W26536  25.321   5.542  29.114  0.3518 -0.1351 -0.1550
22137W        W26537   9.311   4.702  15.152  0.2953  0.1482  0.2308
22138W        W26538   7.900   3.049   8.485  0.3878  0.2422 -0.0884
22139W        W26539   2.845   1.470  22.186  0.0169  0.2365 -0.2172
22140W        W26540  17.921   0.207  21.679  0.2185  0.0651  0.0014
22141W        W26541  20.960   5.127   2.610 -0.0642  0.1617 -0.0485
22142W        W26542  18.246   4.317  34.122  0.1586 -0.2245 -0.3854
22143W        W26543   0.366   4.980   2.813 -0.2860  0.0654 -0.0797
22144W        W26544  23.656   1.740  29.829  0.0949  0.2513 -0.0323
22145W        W26545   9.842   6.037  33.152 -0.0632 -0.1623 -0.0427
22146W        W26546  10.606   3.954  20.436 -0.0143  0.3706  0.0361
22147W        W26547  25.979   1.702   9.783 -0.2961  0.0840  0.0931
22148W        W26548  18.942   4.495  23.857  0.0408  0.0642  0.2693
22149W        W26549   5.026   6.134  26.215  0.1114 -0.1405  0.2370
22150W        W26550   8.212   4.906  31.077 -0.1171  0.2233  0.2163
22151W        W26551  17.600   1.354   1.814  0.2225  0.3407 -0.1523
22152W        W26552  12.509   6.196  27.366 -0.1218 -0.0702 -0.0458
22153W        W26553   5.640   0.779  30.040 -0.1122  0.0104 -0.0072
22154W        W26554   1.488   3.728   6.467 -0.1221 -0.0638 -0.0863
22155W        W26555   1.809   6.552   8.088  0.1413  0.1496 -0.0657
22156W        W26556  21.026   3.238  32.190 -0.2753 -0.2617 -0.2102
22157W        W26557   1.089   6.421  24.694  0.1218  0.0280  0.0936
22158W        W26558   4.255   0.987  26.547  0.2000 -0.4541 -0.2238
22159W        W26559   2.841   6.158  24.514 -0.3063 -0.5305  0.0757
22160W        W26560  16.665   0.771   4.640  0.0908  0.0850  0.1187
22161W        W26561  16.147   2.509   9.119  0.4191  0.1524  0.1908
22162W        W26562  10.044   5.339  21.813  0.0937 -0.1448 -0.0537
22163W        W26563  17.550   6.394   1.569  0.1418  0.0676  0.2112
22164W        W26564  18.221   4.126  34.587  0.0259 -0.4485  0.2651
22165W        W26565  25.378   0.429  27.991 -0.0396  0.0050 -0.2930
22166W        W26566  11.798   0.262  27.181  0.1602  0.2521  0.2703
22167W        W26567   0.656   2.381  10.988  0.3449  0.1676 -0.0912
22168W        W26568  23.364   6.212  30.926  0.0522  0.0409 -0.2590
22169W        W26569  13.814   1.063  12.376  0.0665 -0.2431 -0.3094
22170W        W26570   0.696   6.281  35.625  0.3080  0.1183  0.1605
22171W        W26571   7.125   5.663   5.143 -0.1893 -0.1206  0.1168
22172W        W26572  16.905   2.105  14.275  0.0234 -0.2960  0.0723
22173W        W26573  24.490   1.650  27.146 -0.0460  0.3812 -0.1619
22174W        W26574  25.932   3.626  22.200  0.1243  0.0953  0.0827
22175W        W26575  22.581   4.344  32.379  0.5497  0.0191  0.3807
22176W        W26576  17.832   5.611   8.606  0.1333  0.2712  0.0585
22177W        W26577  16.536   4.431  32.635  0.0083 -0.2727  0.0878
22178W        W26578  15.829   1.349  29.479 -0.1656  0.0898 -0.1637
22179W        W26579   5.770   4.691  24.797 -0.2229 -0.1121 -0.0405
22180W        W26580  23.902   4.978   3.809 -0.0028 -0.0657  0.1425
22181W        W26581   6.423   1.055   7.711 -0.4073  0.1811  0.0768
22182W        W26582  16.691   5.602   9.299  0.1368  0.1887 -0.2052
22183W        W26583  16.787   0.632  25.845  0.1440  0.2122  0.0689
22184W        W26584  23.626   2.398   3.283  0.1259 -0.1551 -0.2520
22185W        W26585   3.985   1.103  24.101  0.1620  0.0692  0.4748
22186W        W26586  13.387   1.250   5.491  0.0885 -0.2180 -0.1472
22187W        W26587   8.099   5.904  33.679  0.1639 -0.0430  0.1974
22188W        W26588   9.749   3.217   1.367  0.0234  0.2947  0.0189
22189W        W26589  10.276   4.863  35.275  0.1527  0.1572 -0.1661
22190W        W26590  14.234   5.024  11.081  0.0194 -0.2023 -0.3351
22191W        W26591  21.359   2.035   4.271 -0.1328 -0.1579 -0.0120
22192W        W26592  12.881   1.760  15.735 -0.3243  0.1880 -0.2415
22193W        W26593   3.715   2.160  25.212 -0.0014 -0.2114  0.3241
22194W        W26594   5.288   6.249   0.036 -0.0948 -0.0884 -0.0563
22195W        W26595   1.426   3.343  14.651  0.0851  0.0526  0.0303
22196W        W26596  14.701   0.439   7.691  0.0362  0.0200 -0.1067
22197W        W26597  24.242   2.954  32.801  0.0054  0.0514 -0.0761
22198W        W26598  15.066   3.661   9.008 -0.1855 -0.0797  0.0502
22199W        W26599   8.053   5.238  28.095 -0.1159  0.3114 -0.1499
22200W        W26600   9.089   1.332  35.533 -0.0227  0.0788  0.1205
22201W        W26601  22.930   5.778   3.333  0.2846 -0.4545 -0.1675
22202W        W26602  23.904   5.684   7.634 -0.2043  0.0691 -0.2823
22203W        W26603  21.630   1.358  10.258  0.0759 -0.0042  0.1292
22204W        W26604  25.361   1.224  35.585 -0.0435  0.2966  0.1134
22205W        W26605  23.640   1.476   9.858 -0.0655  0.1490 -0.2300
22206W        W26606  18.605   0.519  26.151 -0.0301 -0.0307  0.1052
22207W        W26607   4.101   2.632   3.473  0.1624 -0.0324  0.1009
22208W        W26608   4.756   3.737  26.037  0.2255 -0.0035  0.0897
22209W        W26609  25.719   3.335   7.989  0.1687 -0.0677 -0.0547
22210W        W26610  13.825   4.737   9.645  0.0127  0.2833 -0.1607
22211W        W26611   4.926   2.527  15.542 -0.0693 -0.0873 -0.2531
22212W        W26612  12.993   2.496  32.892 -0.1954 -0.1590 -0.0114
22213W        W26613   4.200   0.571  25.781  0.2142  0.2171 -0.1902
22214W        W26614   5.558   0.359  35.201 -0.1083 -0.1693  0.0582
22215W        W26615  23.274   0.755   6.522 -0.0928 -0.2288  0.1957
22216W        W26616   7.194   0.826  10.180  0.1422  0.2537  0.0171
22217W        W26617   0.165   3.243  24.265 -0.1145 -0.0012 -0.0539
22218W        W26618   4.205   5.084   5.340 -0.1269 -0.0392  0.1285
22219W        W26619  17.150   0.518  22.400  0.1114  0.0662  0.2111
22220W        W26620   2.653   6.384  33.355 -0.1921 -0.1062 -0.2431
22221W        W26621  13.500   0.481   9.926  0.2717 -0.1340  0.0696
22222W        W26622   9.490   5.645  14.573 -0.1302 -0.2639 -0.0435
22223W        W26623  15.931   3.052  22.809 -0.3371 -0.2776  0.1581
22224W        W26624  22.334   2.066  33.532  0.1512  0.0463 -0.1561
22225W        W26625  25.445   5.067  28.989 -0.0904 -0.1379 -0.1667
22226W        W26626  16.834   5.507   3.477 -0.2316  0.1845  0.1642
22227W        W26627  20.631   5.893  21.468  0.0513 -0.2108 -0.0938
22228W        W26628   4.810   6.340  32.962 -0.1659 -0.1478 -0.0693
22229W        W26629  10.979   4.602  27.657  0.2114 -0.0170  0.0428
22230W        W26630  23.206   1.384  30.628  0.1048 -0.0182 -0.1065
22231W        W26631  12.675   6.361  22.063  0.2474 -0.2447  0.1239
22232W        W26632   8.795   5.468   7.201  0.0960  0.2166  0.2390
22233W        W26633  26.333   1.112   4.444  0.0808  0.0704  0.1475
22234W        W26634   4.731   5.594   0.658 -0.1522 -0.0946  0.2701
22235W        W26635  26.370   1.238   3.313 -0.3265  0.0419 -0.0458
22236W        W26636  21.915   4.916   3.744  0.1060 -0.1917  0.1884
22237W        W26637  10.258   1.863  30.307 -0.0698 -0.2536  0.2300
22238W        W26638   9.691   1.583  23.917 -0.0411  0.2098 -0.0758
22239W        W26639   5.714   1.695  34.277  0.3747  0.1889 -0.1190
22240W        W26640  21.788   5.577   7.132 -0.1540  0.0848  0.0625
22241W        W26641   0.475   3.939  21.829 -0.2747 -0.4211  0.0413
22242W        W26642  25.043   5.533  35.420  0.1921  0.2157  0.0050
22243W        W26643  20.573   2.255  26.077 -0.0474 -0.0463 -0.0418
22244W        W26644   6.490   1.840   4.037  0.0150  0.0114  0.5060
22245W        W26645  25.544   4.515  33.375  0.4060 -0.3457  0.1059
22246W        W26646   9.395   3.057   8.961  0.1571  0.0370  0.0055
22247W        W26647  25.893   0.998  35.663 -0.0162  0.2926  0.1226
22248W        W26648  25.549   1.593   7.104  0.0742  0.2042  0.0712
22249W        W26649  20.586   3.577  33.950  0.0928 -0.1694  0.3043
22250W        W26650  13.648   0.592   2.757  0.0795  0.0650 -0.0315
22251W        W26651   2.577   0.077   6.394  0.0360  0.1430  0.1453
22252W        W26652   3.490   5.013  27.889  0.0129 -0.1870  0.3668
22253W        W26653  24.426   4.680   0.985  0.2267  0.4141  0.0557
22254W        W26654   7.927   5.873  30.918 -0.1532  0.2324 -0.0773
22255W        W26655  21.780   6.280  23.956  0.0683 -0.0314 -0.0910
22256W        W26656  24.976   5.322   2.913  0.0884 -0.2255  0.1292
22257W        W26657  14.639   0.165  15.034 -0.2350  0.0021  0.1939
22258W        W26658  18.701   0.300  10.610  0.1273 -0.1906 -0.0754
22259W        W26659   0.330   2.520  22.519  0.0512  0.0284  0.0380
22260W        W26660  14.398   5.969  34.608 -0.1879 -0.1073 -0.0858
22261W        W26661   3.659   0.761   4.614 -0.0472  0.0712 -0.0232
22262W        W26662  16.082   4.012   9.510 -0.1190 -0.1838 -0.3637
22263W        W26663  18.501   4.179   8.804  0.0017  0.2588  0.0072
22264W        W26664   3.297   1.732  15.111 -0.1247 -0.0605  0.3084
22265W        W26665  23.734   1.477  28.298  0.0998  0.0090 -0.0898
22266W        W26666  22.775   0.604  34.588 -0.1352 -0.4318  0.1484
22267W        W26667   2.005   1.003  22.084 -0.2855 -0.2971 -0.1751
22268W        W26668  18.426   6.071  33.486 -0.1105  0.4672  0.0812
22269W        W26669  24.568   6.244   7.394 -0.2130 -0.1677 -0.1730
22270W        W26670   0.348   0.552   6.701  0.0034  0.2379 -0.2640
22271W        W26671   7.813   4.550  29.426  0.2283 -0.0846 -0.2938
22272W        W26672  12.615   2.346  27.072  0.0140  0.3565  0.0306
22273W        W26673  21.281   1.808   7.502 -0.1920  0.0558  0.4085
22274W        W26674   6.990   2.097  11.911  0.2033  0.3714 -0.3466
22275W        W26675  23.647   0.087  25.239 -0.0648 -0.7358  0.0233
22276W        W26676  11.314   2.930  10.919  0.2281  0.3214 -0.2428
22277W        W26677   2.786   2.854  21.517  0.2552 -0.1902 -0.2806
22278W        W26678  15.640   1.218  21.173 -0.1674 -0.0798  0.0731
22279W        W26679   8.064   3.786   9.747  0.3372  0.2228 -0.1691
22280W        W26680  17.065   1.325  29.998 -0.2856  0.2065 -0.1571
22281W        W26681   1.210   4.952   3.368  0.1513  0.0481  0.0769
22282W        W26682  21.297   5.347   0.579  0.2950 -0.0282 -0.0624
22283W        W26683   9.770   5.025   5.829 -0.0663  0.0703  0.0521
22284W        W26684   0.832   0.743   0.472 -0.0832 -0.0015 -0.2183
22285W        W26685   6.013   4.701  11.582 -0.1511 -0.0583  0.1541
22286W        W26686   3.453   4.693  30.874 -0.0303 -0.0591 -0.0306
22287W        W26687   6.255   2.757  10.406 -0.0876  0.2160  0.1280
22288W        W26688  19.956   1.844  10.968 -0.0404  0.0178  0.2460
22289W        W26689  23.420   2.518  13.772 -0.0237  0.1946  0.0021
22290W        W26690  16.839   3.653  20.738  0.0787  0.0447 -0.0212
22291W        W26691  13.579   0.694  11.495  0.1898 -0.1750  0.0338
22292W        W26692   7.110   3.515  26.103 -0.0884 -0.0309 -0.0356
22293W        W26693   3.757   0.838  12.730 -0.1192  0.0735 -0.0760
22294W        W26694  19.115   1.366  31.792  0.1754  0.1911  0.0478
22295W        W26695  22.823   2.550   7.414 -0.1306 -0.2947  0.1491
22296W        W26696  12.991   3.944  28.959  0.1085  0.0013 -0.1041
22297W        W26697   3.693   1.907   0.731  0.2799 -0.1737  0.4372
22298W        W26698  18.591   0.324   2.436  0.0352 -0.0791  0.1567
22299W        W26699   9.462   1.929  10.732 -0.0216 -0.3727 -0.2133
22300W        W26700  19.309   3.324   9.321 -0.1651 -0.0418 -0.1078
22301W        W26701  13.236   6.264  26.001 -0.0791 -0.1589 -0.0189
22302W        W26702  25.773   5.321  25.479  0.2090 -0.3659  0.0470
22303W        W26703   4.099   6.299  22.755  0.2105 -0.0826 -0.1341
22304W        W26704   3.340   1.387   9.560  0.1276  0.0023  0.1927
22305W        W26705   1.748   3.595  13.957  0.2685  0.2508  0.1021
22306W        W26706  13.892   2.553   5.004  0.1279 -0.3484 -0.0906
22307W        W26707  11.460   5.191  29.339 -0.0013 -0.1064 -0.0691
22308W        W26708  19.946   2.970  12.626 -0.2174 -0.0706 -0.1254
22309W        W26709  23.496   3.675  34.824  0.0625 -0.0614  0.1577
22310W        W26710  26.239   5.712  27.568  0.0479 -0.4015 -0.1772
22311W        W26711  12.907   3.291   2.397 -0.0358  0.3656 -0.0386
22312W        W26712   3.318   5.120  10.148 -0.1941 -0.2914  0.1323
22313W        W26713  18.565   4.628  28.102  0.0200 -0.0610 -0.1235
22314W        W26714  24.361   3.046  26.881 -0.1427 -0.2639  0.0175
22315W        W26715   4.689   3.960  11.174 -0.0242 -0.2800  0.0628
22316W        W26716  11.013   2.050   1.421 -0.0614 -0.1190 -0.2546
22317W        W26717  23.949   2.793  29.267 -0.2015  0.2765  0.1085
22318W        W26718  19.607   3.550  27.750  0.0990  0.2814  0.1772
22319W        W26719   7.659   3.076  22.782  0.2613  0.1065  0.2116
22320W        W26720  22.997   4.590  29.583  0.2400  0.0693  0.2420
22321W        W26721  15.620   2.147   9.034  0.0223  0.1193  0.0432
22322W        W26722  14.084   5.160  34.246 -0.0470  0.0760  0.0913
22323W        W26723   0.697   1.994   9.221  0.1807  0.4747 -0.2070
22324W        W26724  19.491   1.993  28.082  0.1981 -0.0885  0.1406
22325W        W26725   7.255   2.431  28.512 -0.0738  0.0015 -0.2475
22326W        W26726   9.450   2.815  12.258  0.0009  0.0910  0.1262
22327W        W26727  21.187   2.807  27.903  0.0466 -0.0863  0.2578
22328W        W26728  16.042   3.353  21.522  0.0314 -0.3030  0.0269
22329W        W26729  25.335   4.122   9.764  0.0596 -0.0961  0.1442
22330W        W26730  14.227   6.282   6.778 -0.2934 -0.1418 -0.1770
22331W        W26731  13.474   5.648  14.938 -0.2320 -0.2767 -0.2994
22332W        W26732  26.145   2.148  32.962  0.1402  0.1181  0.1191
22333W        W26733   2.477   1.417  26.218  0.1043  0.0459 -0.3811
22334W        W26734   3.626   3.987   5.230 -0.0802  0.1289  0.0367
22335W        W26735   7.921   3.783   3.343 -0.0210 -0.0761 -0.1973
22336W        W26736  11.362   0.603  11.866 -0.0452 -0.0724 -0.1082
22337W        W26737  18.958   5.651  35.728  0.1673 -0.0448  0.0520
22338W        W26738   2.598   2.257   9.745  0.2338  0.4127 -0.1681
22339W        W26739   0.309   1.565  12.910  0.0178  0.2101 -0.0307
22340W        W26740  16.764   4.250  23.050  0.1074  0.1542 -0.2302
22341W        W26741  20.855   4.259  29.891  0.0402 -0.2953  0.0415
22342W        W26742   4.979   4.662   2.324  0.2089  0.0655 -0.1800
22343W        W26743  16.882   1.102  21.091  0.1033 -0.1285 -0.0630
22344W        W26744   0.236   0.689  12.905  0.0274  0.0643 -0.3707
22345W        W26745  12.748   1.316  15.514 -0.0191 -0.1131 -0.0720
22346W        W26746   5.117   5.782  21.500 -0.1158  0.1557 -0.0854
22347W        W26747  17.035   2.757  29.586  0.0934  0.2474  0.0451
22348W        W26748  13.512   4.456  24.001  0.1691  0.0149 -0.0341
22349W        W26749   7.939   1.519   2.139 -0.4249  0.0669  0.1843
22350W        W26750  15.358   4.523  21.102  0.1226 -0.0058 -0.0630
22351W        W26751  20.815   5.966  24.372  0.0682  0.4047 -0.1842
22352W        W26752   4.405   2.819   3.039 -0.1258  0.0230 -0.0140
22353W        W26753  17.938   4.027  22.790 -0.0337  0.0270  0.0542
22354W        W26754  15.711   4.915   9.802 -0.0415  0.2478  0.0377
22355W        W26755   7.860   0.461  29.126 -0.4022  0.0441  0.2634
22356W        W26756   9.540   0.003   5.889 -0.0033 -0.1345  0.0112
22357W        W26757  18.453   0.484  34.770  0.3996 -0.2932 -0.0447
22358W        W26758  16.095   2.829  13.517  0.2809 -0.0559  0.0647
22359W        W26759  25.047   3.573   3.688 -0.4048 -0.0666  0.0840
22360W        W26760  16.534   5.520  28.737  0.1535 -0.3891  0.1494
22361W        W26761  12.284   0.038  32.140 -0.3543  0.0302 -0.1629
22362W        W26762   1.450   0.742   0.663 -0.0023 -0.0066 -0.0856
22363W        W26763   7.297   6.504   9.641 -0.0343  0.2977  0.0016
22364W        W26764   6.230   3.734   4.200 -0.1269 -0.3490  0.2739
22365W        W26765  19.023   2.531  12.495 -0.0554  0.0001  0.0100
22366W        W26766  24.801   5.576  12.999 -0.3941 -0.0818  0.0515
22367W        W26767  13.667   6.255   9.110  0.1600 -0.0524 -0.0787
22368W        W26768   7.596   5.852  14.488  0.1249 -0.0159  0.1189
22369W        W26769  13.211   6.576   6.067 -0.0191 -0.0451  0.2701
22370W        W26770  19.951   5.906  26.821  0.1948 -0.2120  0.2861
22371W        W26771  17.493   6.411  14.284  0.2312  0.0662  0.1597
22372W        W26772  13.521   1.213  11.533  0.0007 -0.2152 -0.2304
22373W        W26773  16.025   4.767  33.311 -0.2552 -0.0100 -0.2298
22374W        W26774   3.892   6.202  28.225 -0.1471  0.2117  0.1331
22375W        W26775  13.475   4.805  24.392  0.1781 -0.2861  0.0001
22376W        W26776  22.207   3.161   2.160 -0.4033 -0.1056  0.0423
22377W        W26777  15.464   2.093  25.292 -0.0518  0.2317  0.2457
22378W        W26778  23.093   0.923  35.563 -0.1424 -0.1147  0.1682
22379W        W26779  15.892   4.080   7.053 -0.0462  0.1014  0.2962
22380W        W26780   3.357   3.709  13.473 -0.1442 -0.0457 -0.2906
22381W        W26781  12.649   3.248   5.268 -0.2531  0.2315  0.0300
22382W        W26782  12.939   2.242   0.478  0.0272  0.3563 -0.0498
22383W        W26783   8.920   3.858  11.881  0.0518 -0.1339 -0.0207
22384W        W26784   0.022   1.216   0.916  0.1302  0.2652  0.2420
22385W        W26785   5.825   2.166  35.874 -0.1314  0.0973  0.0027
22386W        W26786  15.147   3.956  33.554 -0.1005 -0.0965 -0.0097
22387W        W26787  10.069   2.147  32.351  0.0358  0.0521 -0.1290
22388W        W26788  10.193   4.041  30.146 -0.2952  0.0567  0.0412
22389W        W26789  15.797   3.135   3.806  0.3178  0.4515  0.2267
22390W        W26790   7.467   1.564  14.526  0.2193  0.1087 -0.2577
22391W        W26791  17.192   3.737   9.810 -0.1473 -0.0094 -0.0136
22392W        W26792  13.619   4.332  25.042  0.0125  0.1070 -0.0387
22393W        W26793  21.618   1.466  32.487  0.0227 -0.0804 -0.0178
22394W        W26794   6.826   4.357  31.896  0.0322  0.0397 -0.0799
22395W        W26795   0.261   2.826  15.010 -0.0056 -0.1818  0.0259
22396W        W26796   8.357   1.778  28.155  0.2868 -0.2985  0.1695
22397W        W26797  12.181   5.196  31.655 -0.0278  0.1385  0.0403
22398W        W26798  23.979   1.887  10.391  0.2670  0.0467  0.0402
22399W        W26799   0.944   1.857  24.529  0.1238 -0.0398  0.2474
22400W        W26800  11.937   0.670  34.729 -0.2507 -0.0556 -0.0994
22401W        W26801  16.448   6.112  28.619 -0.0499 -0.0539  0.1657
22402W        W26802  11.251   0.444  11.360 -0.2045 -0.4134  0.2005
22403W        W26803  16.949   5.971   8.288 -0.0601 -0.1161 -0.0560
22404W        W26804   9.170   4.829  22.586  0.1222 -0.1617 -0.1743
22405W        W26805   0.204   1.324  11.623  0.2577 -0.3871 -0.0643
22406W        W26806  14.121   1.214   9.292 -0.0495  0.0551  0.0604
22407W        W26807  11.800   4.316  22.245  0.3062  0.0698 -0.1731
22408W        W26808  17.193   5.314   9.653 -0.3474  0.1069  0.0071
22409W        W26809  26.222   4.028   7.248 -0.3316  0.1861 -0.1543
22410W        W26810  14.470   4.226  25.720 -0.3260  0.2574 -0.1977
22411W        W26811   4.952   0.170  32.731 -0.2164 -0.0429  0.4373
22412W        W26812  10.861   5.410  36.018  0.0018  0.0088 -0.1755
22413W        W26813  13.083   2.781  14.142 -0.0788  0.3556 -0.2408
22414W        W26814  22.525   2.602  32.980 -0.3015 -0.1425 -0.0449
22415W        W26815  23.033   6.483   6.878  0.2389 -0.0277 -0.0143
22416W        W26816  23.870   5.319  28.924  0.2768  0.0066 -0.0219
22417W        W26817   6.228   5.620  33.989 -0.2537 -0.1485 -0.2233
22418W        W26818  11.768   4.318  15.185  0.3298  0.1995 -0.3983
22419W        W26819  21.026   0.943  13.696 -0.1161 -0.1144  0.5145
22420W        W26820   1.850   3.642  32.093  0.0253 -0.0154 -0.0231
22421W        W26821  24.342   4.422   1.581  0.0980  0.0656 -0.0776
22422W        W26822  19.404   1.462   0.195 -0.2135 -0.0350 -0.3040
22423W        W26823   6.112   3.545  27.271 -0.1321 -0.1177 -0.0691
22424W        W26824   8.732   0.245   2.938  0.0103  0.1875  0.0229
22425W        W26825  23.049   6.101  12.927 -0.1392 -0.1686 -0.0926
22426W        W26826  15.638   3.471   0.928  0.1203  0.1373  0.2027
22427W        W26827  20.339   5.702  10.236  0.0425  0.0401 -0.1084
22428W        W26828  20.082   1.862  31.898  0.2229 -0.1838  0.2220
22429W        W26829  25.721   5.988  15.064  0.0969  0.2389 -0.0960
22430W        W26830  21.297   5.883  31.273 -0.0640 -0.0145 -0.0194
22431W        W26831   0.540   2.688   0.343  0.2214  0.2257  0.0171
22432W        W26832  25.932   1.753  14.710  0.1472 -0.1935 -0.2166
22433W        W26833  20.873   0.904  35.329  0.0133 -0.0628 -0.0034
22434W        W26834  11.236   6.131  24.104  0.1260 -0.0806 -0.3951
22435W        W26835  14.717   1.089  10.643 -0.3266 -0.1540  0.0144
22436W        W26836  24.395   3.432  29.883  0.0283 -0.0059 -0.0079
22437W        W26837  15.734   6.551  29.181  0.2799  0.2049  0.0976
22438W        W26838  12.712   6.172  21.106 -0.0725 -0.3431  0.1065
22439W        W26839  15.591   5.551   7.282  0.0291  0.1825 -0.0157
22440W        W26840  10.531   0.987   0.425 -0.3212 -0.1581 -0.2801
22441W        W26841   7.685   2.879  26.992  0.0100  0.0020 -0.1838
22442W        W26842   8.886   3.968   9.159 -0.1029  0.1134 -0.0117
22443W        W26843   7.255   3.308  34.750 -0.0273 -0.0328 -0.0737
22444W        W26844   6.279   4.847   5.998  0.2196 -0.0571 -0.2155
22445W        W26845  13.214   1.448  12.773 -0.0043  0.4057  0.3452
22446W        W26846  21.518   5.893   0.202  0.1411  0.0325  0.2758
22447W        W26847  11.646   2.963  33.484 -0.2627  0.3634 -0.1582
22448W        W26848  15.153   0.029  11.488 -0.1356 -0.2359  0.1720
22449W        W26849  15.849   0.703  21.260  0.3122 -0.2235  0.2517
22450W        W26850  16.983   5.268   3.924 -0.1209  0.1265  0.4028
22451W        W26851  19.969   3.732  30.056 -0.0467  0.0686  0.0062
22452W        W26852  13.733   6.466  24.045 -0.0087  0.0983  0.0551
22453W        W26853   8.973   6.136  35.387  0.3479 -0.0967 -0.0217
22454W        W26854   6.664   5.091  32.353  0.0611 -0.0460  0.0239
22455W        W26855  20.336   6.346  12.944 -0.2104  0.2956  0.2811
22456W        W26856  25.639   0.595  25.344 -0.0054  0.1291 -0.2648
22457W        W26857  17.307   2.525  10.907 -0.0446 -0.2002 -0.0083
22458W        W26858  25.509   1.406   8.742  0.0395  0.2867  0.1592
22459W        W26859  15.043   0.530  12.187 -0.1367  0.3405  0.1636
22460W        W26860  23.104   1.088   1.857 -0.1960  0.0495 -0.0557
22461W        W26861   9.745   4.479   3.317 -0.0948 -0.1148 -0.2576
22462W        W26862   5.846   5.294  27.262  0.0226 -0.2623 -0.1910
22463W        W26863   2.255   2.753  13.483  0.2207 -0.1450  0.2696
22464W        W26864  11.656   1.449   3.411 -0.1866 -0.0615  0.0863
22465W        W26865   4.744   2.312  20.951 -0.0727 -0.0423 -0.1222
22466W        W26866  23.360   2.603   6.335  0.0876  0.2063  0.2310
22467W        W26867   8.132   5.731   7.307  0.2919 -0.1945  0.0045
22468W        W26868  14.860   0.939  31.975 -0.0169  0.0862 -0.0310
22469W        W26869   8.660   1.840   2.978 -0.2003  0.1448 -0.2161
22470W        W26870  24.807   5.071  35.523 -0.4138 -0.0494 -0.4681
22471W        W26871  14.593   0.510  32.120  0.2647  0.0797 -0.0165
22472W        W26872  23.998   5.990  14.446 -0.1557  0.0597  0.0197
22473W        W26873   2.845   6.061   8.158 -0.0607  0.3544  0.0444
22474W        W26874  24.589   1.552  14.507  0.2949 -0.0694 -0.0230
22475W        W26875  21.609   4.923   0.794  0.1551 -0.0149  0.0346
22476W        W26876  12.948   4.304  28.553 -0.0076 -0.0263 -0.0205
22477W        W26877  13.659   4.696  28.234 -0.0940 -0.1159 -0.1866
22478W        W26878  13.532   1.298   0.176  0.2223 -0.1466  0.1074
22479W        W26879  22.983   3.710  29.547 -0.1631 -0.0550  0.0039
22480W        W26880  10.537   4.487  15.739  0.0232 -0.0823  0.2049
22481W        W26881  25.127   5.287   9.993  0.0578  0.2696 -0.3504
22482W        W26882  14.651   1.533  22.142 -0.0177  0.0973  0.0178
22483W        W26883  11.565   4.917  26.310  0.0646  0.2873 -0.1928
22484W        W26884   9.642   6.469  27.977  0.0061 -0.0951 -0.1493
22485W        W26885  22.809   0.827  23.305  0.2867 -0.0277  0.1237
22486W        W26886   0.262   2.295  35.159  0.1781 -0.2615 -0.1264
22487W        W26887  14.079   0.264  22.053 -0.2463 -0.2650 -0.0660
22488W        W26888  24.828   5.752  22.212  0.1557 -0.2034 -0.0691
22489W        W26889  22.130   4.865  27.495  0.0098 -0.0560 -0.1324
22490W        W26890  11.253   5.324  12.101  0.2708 -0.1205 -0.0093
22491W        W26891  10.378   4.764  24.278  0.1575 -0.2943 -0.0192
22492W        W26892   0.728   5.173  13.180 -0.0704  0.0226 -0.1171
22493W        W26893  22.932   5.914   6.311 -0.2264 -0.1834  0.2636
22494W        W26894  23.086   4.060   2.489  0.0600  0.0638  0.0155
22495W        W26895  23.498   0.213   5.393 -0.0301  0.2249 -0.0765
22496W        W26896  14.407   5.526  34.453  0.2209 -0.3690  0.0855
22497W        W26897  16.532   5.595  13.793 -0.1493  0.3978  0.3359
22498W        W26898  25.728   1.655   9.337 -0.2811  0.1231 -0.2061
22499W        W26899  12.462   5.972  23.246  0.0700 -0.1164 -0.0247
22500W        W26900  24.253   2.161   0.333  0.1333 -0.0422  0.0835
22501W        W26901   5.056   2.528   0.929 -0.0276  0.0941 -0.0556
22502W        W26902  13.604   1.935   3.051  0.1103  0.0087  0.0732
22503W        W26903   9.895   6.089  11.670  0.0828 -0.1694  0.1867
22504W        W26904   4.453   5.240  34.409  0.0140 -0.0746 -0.0284
22505W        W26905  17.136   4.922   5.203  0.0249  0.1772 -0.0938
22506W        W26906  12.783   5.516  26.737 -0.1192  0.1772  0.0866
22507W        W26907  17.992   6.206  33.757 -0.3854  0.1468 -0.0268
22508W        W26908  13.778   0.788  27.308 -0.0288  0.0374  0.0400
22509W        W26909  22.514   0.309  31.588  0.3198  0.1822 -0.0946
22510W        W26910   3.715   4.017   8.040  0.0886 -0.0348 -0.2922
22511W        W26911   8.563   4.588  24.538 -0.0574 -0.0231 -0.0237
22512W        W26912  13.551   2.613  28.643 -0.0782  0.0215 -0.0485
22513W        W26913   2.197   1.874  11.863  0.1334 -0.3821  0.1428
22514W        W26914  21.348   0.016  14.003 -0.3184  0.0249  0.1058
22515W        W26915  23.150   2.511  27.673  0.0288 -0.0017 -0.3082
22516W        W26916   6.112   4.268  25.644 -0.0528 -0.2285 -0.2369
22517W        W26917   8.546   2.771  33.520 -0.1234 -0.0203 -0.2392
22518W        W26918   2.847   5.228   1.081  0.2290 -0.1483  0.0859
22519W        W26919  24.052   1.414  10.212  0.0044 -0.1646  0.1218
22520W        W26920   5.947   4.548   0.376  0.2258 -0.2995 -0.1478
22521W        W26921  16.247   3.207  22.401  0.0457  0.1812  0.2261
22522W        W26922  11.923   2.292  34.563  0.3019  0.1503 -0.0830
22523W        W26923  22.184   4.438  21.304 -0.3342  0.3804  0.2269
22524W        W26924   3.331   3.416  12.145  0.2007 -0.1642  0.0466
22525W        W26925  20.952   3.530   4.500  0.1748 -0.2584  0.1039
22526W        W26926   0.802   3.890   4.370 -0.1280 -0.0519  0.2073
22527W        W26927   0.206   0.752  26.717  0.0376  0.3631 -0.1274
22528W        W26928  17.496   6.549  22.485 -0.0553  0.0750 -0.0096
22529W        W26929   2.330   2.225   7.137  0.1998  0.1450  0.2311
22530W        W26930  15.965   3.246  34.056 -0.0536  0.1018 -0.0486
22531W        W26931  20.252   4.498  35.898  0.1744 -0.1210  0.2171
22532W        W26932  11.230   3.136   1.171  0.0899  0.0442 -0.1782
22533W        W26933  18.704   5.270  20.537  0.1696 -0.4164 -0.2069
22534W        W26934  12.643   5.251   4.145  0.2779  0.2101  0.2506
22535W        W26935  18.634   5.346  28.675  0.2627 -0.2108  0.2590
22536W        W26936  16.124   2.772  10.580  0.3693  0.3626 -0.2497
22537W        W26937   9.406   2.661   9.356  0.1149 -0.3129 -0.1779
22538W        W26938  21.626   0.158  23.688  0.1104 -0.0668 -0.0172
22539W        W26939   1.867   0.862  15.660  0.0093  0.0848 -0.0559
22540W        W26940  11.895   1.865  10.171 -0.0411 -0.1750  0.0958
22541W        W26941  20.709   0.542  13.797  0.0847 -0.1755  0.0310
22542W        W26942  22.701   2.022  31.533  0.0410  0.2119 -0.0435
22543W        W26943  13.367   2.047  23.213 -0.2473 -0.1794 -0.0976
22544W        W26944   1.433   1.995   9.477  0.1139  0.1556  0.2799
22545W        W26945  13.276   1.378  32.859  0.2563  0.0495  0.0908
22546W        W26946  11.396   1.558  24.421 -0.3544 -0.1532 -0.0195
22547W        W26947  21.379   6.257   3.887  0.4151 -0.2594  0.5257
22548W        W26948  21.999   5.243  13.720  0.1012 -0.0764 -0.1467
22549W        W26949   7.633   3.568  23.180 -0.1299  0.0171 -0.0744
22550W        W26950  23.031   5.430  32.632  0.2239 -0.2290 -0.1856
22551W        W26951  13.202   5.982   4.784 -0.1285 -0.4757  0.1663
22552W        W26952   7.637   3.784   2.828  0.1030  0.1108 -0.2247
22553W        W26953  24.900   3.903  23.555 -0.0479  0.0225 -0.5340
22554W        W26954  21.955   1.801   6.862  0.1739  0.1055  0.0064
22555W        W26955   8.577   6.548  13.225 -0.3032  0.0849 -0.3756
22556W        W26956  16.414   4.127  29.086  0.1192 -0.1750 -0.1281
22557W        W26957   2.538   3.796  25.868  0.0533  0.0324 -0.1602
22558W        W26958   0.136   1.661   8.792 -0.0623  0.3367 -0.0580
22559W        W26959  18.465   1.607  10.450  0.0124  0.1316 -0.0495
22560W        W26960  23.209   0.269  28.032 -0.0538 -0.2255  0.0412
22561W        W26961  19.123   3.427   3.028  0.0366  0.1692  0.0258
22562W        W26962  24.883   5.861  23.664 -0.5412 -0.3325 -0.0189
22563W        W26963   2.393   3.387  29.947 -0.1159 -0.3502 -0.0358
22564W        W26964  25.744   3.545  20.705 -0.1243  0.0387  0.1586
22565W        W26965  23.444   6.058  26.456  0.3397  0.1969 -0.3098
22566W        W26966  19.495   6.107   5.901  0.2564  0.2852 -0.2325
22567W        W26967   8.352   5.275   7.370 -0.1617  0.1229  0.1643
22568W        W26968   0.746   4.164  14.002  0.0261 -0.0595 -0.0140
22569W        W26969   3.403   3.543  32.823  0.1618  0.0185  0.2737
22570W        W26970  21.626   3.846  12.372  0.1113 -0.1292  0.1432
22571W        W26971  23.287   2.573   0.271  0.3732  0.3422  0.0049
22572W        W26972   5.525   2.202  23.381  0.0094  0.1970  0.0165
22573W        W26973   1.698   0.517   7.491  0.1882 -0.0579 -0.1294
22574W        W26974  12.195   3.726  27.628 -0.1189  0.0983 -0.3432
22575W        W26975   8.342   5.192  25.163  0.1162  0.3343 -0.1549
22576W        W26976  12.047   0.459   5.825  0.0925 -0.1112 -0.0882
22577W        W26977   0.935   3.375  28.658 -0.1076  0.0294 -0.3986
22578W        W26978  17.026   2.802  10.604 -0.1026  0.1558 -0.0078
22579W        W26979   6.637   6.591  29.668 -0.1203 -0.0327  0.2790
22580W        W26980   5.190   2.290  28.041 -0.2626 -0.1523  0.1414
22581W        W26981  14.542   0.438  22.048 -0.1143 -0.0203 -0.1245
22582W        W26982  17.806   2.708  22.327  0.0119  0.1910 -0.2232
22583W        W26983  18.074   3.180  23.570  0.0418 -0.0375  0.0911
22584W        W26984  14.247   6.332   4.637  0.0103  0.0580  0.0246
22585W        W26985   0.824   2.911  24.275  0.3001 -0.0708  0.1801
22586W        W26986   6.875   5.635  24.348  0.0555  0.0163 -0.0534
22587W        W26987   0.474   2.545  32.889  0.0729 -0.1244 -0.0051
22588W        W26988  19.067   3.265  35.540  0.0069 -0.0993 -0.0500
22589W        W26989   3.224   5.594   2.605 -0.2900  0.0506 -0.0558
22590W        W26990  17.429   6.591  32.008  0.0760 -0.1919  0.2674
22591W        W26991  10.308   3.700  23.479  0.2832 -0.1534  0.1536
22592W        W26992   1.724   5.601   3.705  0.1299 -0.1978 -0.0388
22593W        W26993  19.548   5.965  13.319  0.1611  0.1431  0.1563
22594W        W26994  20.860   5.194  34.951 -0.1806  0.0614  0.4129
22595W        W26995   8.127   1.376  22.254 -0.0858 -0.4627  0.2678
22596W        W26996   6.572   0.377  31.497 -0.1014 -0.1326  0.0664
22597W        W26997  16.039   2.631   4.279  0.0755  0.0919 -0.0416
22598W        W26998  16.027   1.902  11.548  0.0002 -0.0140  0.0805
22599W        W26999  14.901   5.279  10.310 -0.1613  0.0254  0.0948
22600W        W27000  11.643   0.270  22.752 -0.0904  0.1251  0.2301
22601W        W27001   4.027   5.766   0.497 -0.0561 -0.1863  0.0419
22602W        W27002  23.347   5.641  22.874  0.1060  0.0859  0.0958
22603W        W27003   8.766   2.070  28.487  0.2375 -0.0293 -0.0087
22604W        W27004   0.542   0.087  20.591 -0.0679  0.3470  0.0201
22605W        W27005  25.146   5.034  23.809  0.1019 -0.0906  0.0268
22606W        W27006   2.417   2.831  21.888  0.1699 -0.0767  0.1935
22607W        W27007   9.778   2.476   4.798 -0.0797  0.0067 -0.1572
22608W        W27008  17.891   3.506   5.465 -0.0987 -0.1202 -0.2174
22609W        W27009  22.596   3.787  30.874  0.2691  0.2324  0.2117
22610W        W27010  12.678   3.997  30.636 -0.0396  0.1075 -0.1198
22611W        W27011  20.924   6.261  21.565 -0.1558 -0.3088 -0.1129
22612W        W27012  21.614   6.186  27.065 -0.1235 -0.0524  0.0305
22613W        W27013   1.727   6.011  11.508 -0.3898  0.1072 -0.1587
22614W        W27014   2.892   0.822  23.384  0.0039  0.2313  0.0848
22615W        W27015   6.296   6.385  14.442  0.0481 -0.0008  0.1486
22616W        W27016  24.492   3.005  23.579  0.2003 -0.1297  0.2185
22617W        W27017  14.662   5.407   1.104 -0.0497 -0.1141 -0.1991
22618W        W27018   9.941   5.058   8.715 -0.3808 -0.2666  0.0786
22619W        W27019   7.813   1.615  22.583  0.0131 -0.0204 -0.0475
22620W        W27020  19.473   2.052   6.512 -0.2019  0.1337  0.1179
22621W        W27021  23.791   5.986  31.137  0.2171 -0.1656  0.0804
22622W        W27022  26.169   5.812  29.040  0.1936  0.0027 -0.0028
22623W        W27023   0.737   2.923  20.729  0.0120 -0.1082  0.1029
22624W        W27024  14.318   1.322  13.143 -0.2332 -0.1985  0.1023
22625W        W27025  23.589   0.204  23.439  0.0283 -0.1483 -0.2259
22626W        W27026  23.196   1.683   2.973  0.0507 -0.1081  0.2862
22627W        W27027   5.862   1.148   6.493  0.1262  0.0548  0.0170
22628W        W27028  13.611   6.234  12.811  0.0584  0.1252 -0.3090
22629W        W27029  13.199   6.100  13.426 -0.3954 -0.1123 -0.3618
22630W        W27030  13.682   2.973  26.365 -0.0970  0.1767  0.0532
22631W        W27031   3.769   5.719  24.006  0.2596  0.2764 -0.0718
22632W        W27032   1.117   2.241  34.929 -0.2516  0.1725 -0.6269
22633W        W27033   1.963   1.799  34.334 -0.1428  0.1278 -0.2671
22634W        W27034   3.716   4.672  29.428  0.1381  0.0678 -0.0673
22635W        W27035   5.375   0.288   7.760  0.0571 -0.1026 -0.1044
22636W        W27036  10.115   3.621  21.487  0.1069 -0.1339  0.1388
22637W        W27037  21.382   5.507  12.686 -0.0823  0.2058 -0.0169
22638W        W27038  14.950   0.952  11.955 -0.3990 -0.2994  0.1512
22639W        W27039  17.494   4.597   0.463 -0.3871  0.0685  0.2039
22640W        W27040  10.793   4.765  31.706 -0.1201  0.2323 -0.0266
22641W        W27041   4.432   2.615  35.375 -0.0898 -0.2035  0.2077
22642W        W27042  14.376   3.187   0.968 -0.1328 -0.0537  0.0495
22643W        W27043  16.303   3.523  12.171 -0.0758 -0.0981 -0.2858
22644W        W27044  10.028   0.230  27.244  0.1716 -0.0964 -0.3610
22645W        W27045  13.088   3.954   5.737  0.1491 -0.1281 -0.0816
22646W        W27046   7.538   6.347   0.582  0.1102  0.1225  0.0234
22647W        W27047  26.242   4.301   8.299 -0.0319  0.0039  0.1260
22648W        W27048  14.980   6.048   4.239 -0.2313  0.2277 -0.1707
22649W        W27049   6.030   2.744  14.102 -0.2695 -0.0965  0.2449
22650W        W27050   2.122   2.440  14.913  0.1070 -0.5838  0.0069
22651W        W27051  24.535   0.437  25.226  0.0643  0.0426  0.2452
22652W        W27052  22.077   4.630  23.132  0.1709  0.0407  0.0436
22653W        W27053  18.499   5.177   2.851 -0.0834  0.0560 -0.0875
22654W        W27054  16.851   4.347  22.580 -0.1869  0.0986  0.1185
22655W        W27055  23.451   0.386   3.650  0.0060 -0.2257 -0.0678
22656W        W27056  20.132   5.186   6.105  0.0576 -0.0474 -0.1723
22657W        W27057   1.373   3.061  12.088  0.0784  0.0371  0.2651
22658W        W27058  12.356   6.500  29.174  0.0734  0.3316 -0.0357
22659W        W27059   1.921   4.831   0.070 -0.2170 -0.1079  0.2997
22660W        W27060  18.061   4.945  33.626  0.1981 -0.1642  0.3368
22661W        W27061   0.749   3.789  33.655  0.1226 -0.0426 -0.0086
22662W        W27062  17.113   2.337  32.207 -0.0579  0.2040  0.2215
22663W        W27063  10.810   6.038  23.796  0.1410  0.1698 -0.0963
22664W        W27064  10.534   6.169   3.655  0.1253  0.0540 -0.0588
22665W        W27065  11.227   5.297  10.660  0.1695 -0.0048 -0.1656
22666W        W27066   5.469   1.588   9.949 -0.0841 -0.2735  0.1440
22667W        W27067  21.600   3.202  32.980  0.0734 -0.0374 -0.1563
22668W        W27068  12.481   1.942   4.598 -0.3896  0.1455 -0.0622
22669W        W27069  20.897   1.520   2.681 -0.1106 -0.0514  0.4051
22670W        W27070  20.467   1.372   6.969 -0.2612 -0.1115  0.3068
22671W        W27071   5.999   0.756  15.404 -0.3512  0.2320  0.2444
22672W        W27072  13.546   1.046   3.937  0.0179 -0.0774 -0.1279
22673W        W27073  12.153   3.636   0.415  0.2270 -0.0882 -0.0912
22674W        W27074  18.282   4.926  21.320 -0.0154 -0.1399  0.0922
22675W        W27075  21.781   0.447   4.645 -0.1444 -0.0568  0.2681
22676W        W27076   0.682   1.620  10.377 -0.0162  0.2601 -0.2756
22677W        W27077   7.010   6.585  22.012  0.0198  0.0034 -0.1943
22678W        W27078   9.897   3.049  23.975 -0.0824 -0.0724  0.1625
22679W        W27079  18.973   0.822   9.750  0.0171  0.1254 -0.0629
22680W        W27080  12.196   4.112  21.944 -0.0222 -0.0183  0.0262
22681W        W27081   2.757   2.026   7.462 -0.1344  0.0353 -0.0417
22682W        W27082  21.294   1.749  35.148  0.0190 -0.0269 -0.0644
22683W        W27083  12.357   4.381  25.548 -0.0048 -0.2402  0.0511
22684W        W27084   3.512   2.663   8.547 -0.1589 -0.0067 -0.3397
22685W        W27085   1.281   2.414  28.848 -0.2251  0.2456  0.0024
22686W        W27086  25.364   4.551  27.197  0.0130 -0.0571 -0.1671
22687W        W27087  14.619   1.375  14.043  0.2376  0.1716 -0.1560
22688W        W27088  12.340   4.085   0.423  0.0084  0.1419 -0.0443
22689W        W27089  26.156   0.205  27.480 -0.2189  0.1022 -0.3272
22690W        W27090  19.278   2.237  34.974 -0.2600  0.0255  0.3956
22691W        W27091   6.587   4.035  26.562 -0.0384  0.0161  0.0279
22692W        W27092  12.586   0.486  12.437 -0.0544 -0.0131 -0.2797
22693W        W27093  23.606   4.353  12.167  0.0817  0.3908  0.2541
22694W        W27094  17.919   6.389   9.266  0.1342 -0.2296  0.2264
22695W        W27095  25.180   3.585  22.125  0.0767 -0.3462 -0.3252
22696W        W27096   1.060   1.515  32.271 -0.1798 -0.0534 -0.1149
22697W        W27097  23.856   4.722  10.094 -0.1206 -0.4037 -0.1919
22698W        W27098   9.813   5.413   0.571 -0.2433  0.0181  0.1213
22699W        W27099  26.033   2.189  24.270  0.0876  0.0791 -0.1349
22700W        W27100  14.035   6.400  35.635 -0.2154 -0.0547 -0.1087
22701W        W27101   2.178   0.504  26.357 -0.1919  0.1629 -0.0509
22702W        W27102   0.851   5.700   2.644 -0.0782 -0.0119  0.0626
22703W        W27103  19.977   0.135   9.564  0.2677 -0.1483 -0.1644
22704W        W27104   1.226   2.591  23.360  0.0797  0.2447  0.3777
22705W        W27105  22.400   1.972  29.592  0.0773  0.0637  0.2513
22706W        W27106  16.553   0.226   1.561 -0.0826 -0.0445 -0.0270
22707W        W27107  20.687   3.069  34.048 -0.3061  0.1729  0.2344
22708W        W27108  14.026   6.165   4.149  0.0895  0.0716 -0.0669
22709W        W27109   7.908   0.630  10.533 -0.0416 -0.2072 -0.1912
22710W        W27110  18.533   2.958   5.361  0.3311  0.1513 -0.0350
22711W        W27111   6.099   5.005  22.255 -0.0395 -0.0727 -0.0298
22712W        W27112  20.317   6.057  29.191  0.0861  0.0597 -0.1791
22713W        W27113  22.652   3.055  28.861  0.2136  0.0190  0.0426
22714W        W27114  23.858   1.473  35.342 -0.2610 -0.3164 -0.1511
22715W        W27115  21.817   4.341  12.298  0.0735 -0.0446  0.1641
22716W        W27116  20.554   1.735   6.482 -0.2981 -0.0277 -0.0552
22717W        W27117  17.340   4.044   2.892 -0.2579  0.0731  0.0094
22718W        W27118  17.144   2.074   3.161  0.3445  0.0064  0.1391
22719W        W27119   8.974   0.737  35.913  0.2020 -0.1224 -0.0680
22720W        W27120  22.094   4.311  33.756 -0.0240  0.0834  0.3956
22721W        W27121   7.652   0.044   4.215  0.0962  0.1567  0.0856
22722W        W27122  14.622   5.108  34.313 -0.0598  0.0529  0.1581
22723W        W27123  25.436   3.596  25.011 -0.0294 -0.0287  0.2059
22724W        W27124   9.962   3.135  10.508  0.0415 -0.2559  0.1282
22725W        W27125   7.466   6.537  33.505 -0.1463 -0.1991  0.2593
22726W        W27126  23.159   2.808  28.767 -0.3258  0.2420  0.3587
22727W        W27127  22.363   2.479  22.748 -0.0105 -0.0470 -0.0433
22728W        W27128  19.090   1.835   5.727 -0.2102  0.0817  0.0933
22729W        W27129   6.635   3.005   3.192  0.3232  0.0200 -0.0104
22730W        W27130  12.365   4.376  33.324  0.4592 -0.1972 -0.1269
22731W        W27131  10.157   0.273  34.274  0.0543 -0.2582 -0.0337
22732W        W27132  19.690   5.370   9.257  0.2393  0.1671 -0.1682
22733W        W27133  20.883   1.613  32.841  0.1017  0.1594  0.3370
22734W        W27134   0.651   3.580  29.603  0.3664  0.0739  0.1448
22735W        W27135  11.953   2.935  29.178 -0.1830 -0.6131  0.0817
22736W        W27136   3.399   1.967  36.063  0.0142  0.1324 -0.0921
22737W        W27137  14.109   1.932  13.130 -0.1729  0.0520 -0.1176
22738W        W27138   5.760   1.254  25.213  0.0671 -0.1101 -0.0818
22739W        W27139  19.886   0.796  29.053 -0.0688 -0.1640 -0.3283
22740W        W27140   2.213   2.510   6.667  0.1854 -0.1243  0.2462
22741W        W27141   1.800   6.291  12.459  0.0162  0.2018  0.2971
22742W        W27142   7.733   4.254  10.442 -0.0137  0.0400  0.0963
22743W        W27143   7.464   3.051  15.964 -0.1193  0.0217  0.0390
22744W        W27144  22.454   0.865   1.997 -0.0212 -0.1569  0.0257
22745W        W27145  22.584   1.768   8.465 -0.0684 -0.0127  0.0225
22746W        W27146   7.039   2.007  10.909  0.4055  0.4358 -0.1524
22747W        W27147  19.387   0.514  25.683 -0.0918  0.1303  0.2077
22748W        W27148  18.923   3.416  10.827 -0.0221  0.1070  0.1743
22749W        W27149  11.258   1.891  25.856  0.2796 -0.0978 -0.0333
22750W        W27150  16.812   5.219   0.137 -0.1957  0.0448  0.0943
22751W        W27151   2.069   2.266  27.200  0.1023 -0.3814 -0.0839
22752W        W27152  10.096   2.736  29.457  0.2076  0.2187 -0.2186
22753W        W27153   0.195   6.491   7.470 -0.1024 -0.2825 -0.3245
22754W        W27154   4.807   1.465   0.211 -0.1085 -0.2685  0.1107
22755W        W27155  17.595   4.699  13.539 -0.1119  0.2833  0.1832
22756W        W27156   1.605   4.597   3.758 -0.2828  0.0310 -0.0121
22757W        W27157   9.653   4.062  33.352 -0.1419 -0.0689 -0.3401
22758W        W27158  15.616   4.622   4.579  0.0493  0.0102 -0.0224
22759W        W27159   8.114   0.381  13.243  0.2822  0.1776 -0.1930
22760W        W27160  13.207   6.133  24.469  0.1222  0.2591 -0.1107
22761W        W27161  11.205   4.539   2.393 -0.1076 -0.0142  0.2659
22762W        W27162  13.075   0.057  24.974  0.0217  0.1956 -0.1835
22763W        W27163   0.272   6.087  28.486  0.2310  0.0053  0.1364
22764W        W27164  13.759   5.101  35.488  0.0084 -0.3146 -0.1368
22765W        W27165   7.573   0.877  27.534 -0.2362  0.2684  0.0208
22766W        W27166  21.423   1.129  10.657 -0.2360  0.0690  0.0573
22767W        W27167  23.122   1.407   3.387  0.0200  0.0118 -0.2336
22768W        W27168   4.522   2.205  11.031  0.0717 -0.0994 -0.3064
22769W        W27169  25.061   5.660  35.945  0.0943  0.0116  0.0906
22770W        W27170   1.919   4.136  21.747  0.1079 -0.0520  0.0897
22771W        W27171  12.185   6.401  34.198  0.0155 -0.2094  0.1248
22772W        W27172  17.515   6.052  23.200 -0.0940 -0.1403 -0.0516
22773W        W27173  21.112   6.206  30.284  0.3547 -0.0061 -0.2139
22774W        W27174  25.660   0.047   4.013  0.3003  0.1408 -0.2027
22775W        W27175   0.927   0.769  33.435  0.2718 -0.1113  0.1166
22776W        W27176   8.737   3.461   7.070 -0.0006  0.2811  0.0028
22777W        W27177   8.333   3.797  28.659  0.1176 -0.0308  0.1726
22778W        W27178  12.388   4.763  34.679 -0.2828 -0.0402  0.1639
22779W        W27179  10.124   1.516  11.919  0.2242 -0.0677  0.0569
22780W        W27180   6.539   6.416   5.725 -0.1445  0.1840  0.2103
22781W        W27181   4.256   4.608  10.243 -0.4360 -0.0949 -0.0618
22782W        W27182  19.377   0.530  20.824 -0.1180  0.1376  0.0081
22783W        W27183   1.067   2.088  29.166 -0.1263 -0.3693 -0.0477
22784W        W27184  20.869   0.521  30.322 -0.1335  0.1036  0.2112
22785W        W27185  19.839   4.691   9.279 -0.3138 -0.0649  0.2146
22786W        W27186   7.008   0.734   0.528  0.1238 -0.5370  0.0946
22787W        W27187  22.120   4.157  26.964  0.0035  0.1520  0.0369
22788W        W27188   7.773   0.081  21.666 -0.1111 -0.2753  0.0441
22789W        W27189  22.070   6.381  30.433 -0.0366 -0.1780 -0.1207
22790W        W27190  23.206   0.824  34.483  0.1522 -0.1964  0.2852
22791W        W27191  17.947   5.699  31.725  0.0300  0.2058 -0.1652
22792W        W27192   2.419   3.117  11.964  0.4558 -0.1581  0.1801
22793W        W27193   8.099   4.792   0.722  0.1163  0.0665  0.0026
22794W        W27194  22.273   5.858  22.356  0.0596 -0.0728  0.5360
22795W        W27195  16.980   0.714  30.022 -0.2486 -0.3547  0.2461
22796W        W27196  10.588   0.894  14.085  0.1236  0.2925  0.1089
22797W        W27197   2.643   6.319  20.996  0.1980  0.3526 -0.0283
22798W        W27198  18.710   0.742  22.714  0.1382 -0.1372  0.0216
22799W        W27199   5.663   5.956   8.184 -0.0103 -0.1790 -0.1632
22800W        W27200  12.523   5.650  33.639 -0.0520 -0.1173 -0.1919
22801W        W27201  25.754   1.949   5.350 -0.2772 -0.2277  0.1131
22802W        W27202  18.740   4.766  12.643 -0.1128 -0.3954  0.0013
22803W        W27203  10.463   6.516  28.523 -0.0875  0.0575  0.2177
22804W        W27204  16.395   4.423  23.315 -0.5288  0.0047 -0.0940
22805W        W27205  17.227   4.194  11.884 -0.2505 -0.0747  0.1682
22806W        W27206  18.515   1.422  25.123  0.1698  0.2025  0.3150
22807W        W27207  11.507   1.537  30.588  0.2827 -0.0620  0.3511
22808W        W27208   7.367   6.351   3.305 -0.2057 -0.0307  0.2850
22809W        W27209  23.814   5.914   3.510 -0.1886  0.2470 -0.1583
22810W        W27210   1.864   1.329  33.032  0.3367  0.0336  0.0205
22811W        W27211  26.022   4.879   6.567  0.1399 -0.0362 -0.6093
22812W        W27212   7.536   5.280  23.748  0.1257  0.0508 -0.2086
22813W        W27213  22.620   3.213  34.686  0.2565  0.1559 -0.1900
22814W        W27214  15.005   3.140  35.913  0.0109  0.0330  0.0826
22815W        W27215   5.106   4.636   3.193  0.3043 -0.1071 -0.1627
22816W        W27216   1.081   2.647  26.128 -0.2599  0.1589 -0.1014
22817W        W27217  10.475   3.577  21.175 -0.1239 -0.2685 -0.0483
22818W        W27218  14.278   6.377  14.181 -0.0205  0.0545 -0.3020
22819W        W27219  17.556   2.741  29.373  0.0719 -0.0660  0.2650
22820W        W27220   0.134   2.873  32.395 -0.0257  0.5478  0.0034
22821W        W27221  22.601   6.074  28.845  0.0113  0.0880  0.0045
22822W        W27222  11.128   5.418  28.266 -0.1261  0.0245  0.2363
22823W        W27223   3.716   6.049  35.842 -0.3016  0.0525 -0.2171
22824W        W27224  25.077   6.047  35.482 -0.0545  0.1411  0.0036
22825W        W27225  20.629   5.639   9.146 -0.0453  0.2584  0.1837
22826W        W27226   0.837   2.600  22.369 -0.1667 -0.0837 -0.0685
22827W        W27227  11.163   5.794  12.023 -0.0947 -0.0136 -0.2688
22828W        W27228  15.191   3.065  14.575 -0.3435  0.0656 -0.2124
22829W        W27229  10.295   4.560  27.865  0.0158  0.1809 -0.2578
22830W        W27230  24.807   2.865  22.042 -0.0431  0.2516  0.1149
22831W        W27231  21.228   1.502   7.943 -0.1527 -0.5063 -0.3148
22832W        W27232  24.989   1.585  10.008 -0.2177  0.0399  0.0771
22833W        W27233  10.691   4.146   4.303 -0.2102 -0.1810 -0.1448
22834W        W27234   3.640   0.508   2.011  0.2225  0.0507  0.0876
22835W        W27235  26.009   3.467  25.506 -0.0885 -0.1063  0.2976
22836W        W27236  23.328   4.307  34.177  0.1234  0.2005  0.0254
22837W        W27237   2.868   3.783  11.128  0.0968 -0.2049  0.1113
22838W        W27238  14.209   3.463  12.349 -0.2733 -0.2401  0.0951
22839W        W27239  19.895   3.725  21.810  0.1635  0.4200  0.1376
22840W        W27240  15.776   1.109  35.440 -0.0791  0.1637 -0.1241
22841W        W27241  20.991   0.387  28.612 -0.0010  0.0546 -0.0098
22842W        W27242  14.672   1.200   8.969  0.0267  0.2185  0.1629
22843W        W27243  14.293   5.243  22.507 -0.1465  0.0006 -0.0217
22844W        W27244   1.920   0.587  27.251 -0.0049 -0.1343 -0.1107
22845W        W27245  12.555   3.339  27.416  0.4370 -0.0606  0.2693
22846W        W27246  16.205   5.733  24.071  0.0868 -0.0286  0.0306
22847W        W27247  14.314   4.571   1.065 -0.1287  0.0776 -0.1076
22848W        W27248   4.404   0.387  12.135  0.0256  0.3341  0.1322
22849W        W27249  16.332   0.260  22.028 -0.3992  0.2578 -0.1264
22850W        W27250  18.613   1.642  32.774  0.1123 -0.0396  0.0638
22851W        W27251   7.041   5.685  21.898 -0.1511  0.1418 -0.1149
22852W        W27252  12.764   3.762   4.426 -0.0684  0.2607  0.1856
22853W        W27253   3.599   2.446   3.533 -0.0581 -0.0525 -0.1934
22854W        W27254  23.356   0.877   3.454 -0.1306  0.1083 -0.2869
22855W        W27255  24.059   0.270  30.907 -0.0886 -0.1285 -0.1905
22856W        W27256  10.598   1.479  22.215 -0.1562  0.1489 -0.1452
22857W        W27257  13.656   4.364  32.724  0.0484 -0.3740  0.1200
22858W        W27258  16.213   5.120  21.195  0.1483  0.0989 -0.0163
22859W        W27259   4.138   1.195   9.072 -0.5035 -0.0444  0.0444
22860W        W27260   5.604   2.951   1.634  0.1137  0.2633  0.1405
22861W        W27261  18.457   2.408  34.187  0.1145 -0.1399  0.0685
22862W        W27262  23.921   2.177   2.486 -0.1626  0.1502 -0.1982
22863W        W27263  19.775   0.013  23.442 -0.0815  0.1866  0.1511
22864W        W27264   9.597   0.108   1.237 -0.0714  0.3907  0.3341
22865W        W27265   8.803   2.845  32.712 -0.0003 -0.0578 -0.0878
22866W        W27266   1.461   6.138   2.757  0.1558 -0.0334 -0.0650
22867W        W27267  20.012   2.593  14.465  0.1981 -0.1629 -0.1044
22868W        W27268  22.922   1.826  14.724  0.1227 -0.2681 -0.0775
22869W        W27269  22.118   2.764   4.132  0.1339  0.2763  0.6098
22870W        W27270  12.745   4.089  24.589  0.1907 -0.0735 -0.1319
22871W        W27271   2.325   5.567  29.837 -0.3678 -0.2037 -0.2984
22872W        W27272   1.890   1.130  12.201  0.0428  0.0875 -0.1247
22873W        W27273   3.465   3.026  20.794 -0.1801 -0.0936  0.3259
22874W        W27274   1.336   5.701  31.968  0.1331 -0.1178  0.2738
22875W        W27275   8.469   5.002  22.608 -0.0546 -0.1234  0.1164
22876W        W27276   1.061   1.071   2.324 -0.0637 -0.1508  0.1051
22877W        W27277  10.815   2.542  25.352 -0.4450 -0.1548  0.2293
22878W        W27278  12.798   1.173  23.158 -0.1055 -0.2290 -0.2496
22879W        W27279  22.717   2.261   3.349  0.0312  0.0927  0.0887
22880W        W27280   1.434   0.695  11.164 -0.0584 -0.0011 -0.0344
22881W        W27281  13.484   5.871  14.362  0.1305  0.0994  0.0134
22882W        W27282  22.348   2.582  30.393 -0.2899 -0.2553 -0.1021
22883W        W27283   8.252   0.783  10.093  0.0475 -0.2442 -0.0867
22884W        W27284  13.077   2.008   4.226 -0.1003 -0.0763  0.0854
22885W        W27285  14.632   1.896  24.457  0.1543 -0.0532 -0.1615
22886W        W27286   4.862   4.915  11.248 -0.1873 -0.0164  0.0249
22887W        W27287   0.373   1.235  26.974  0.0894 -0.1041  0.0081
22888W        W27288  25.763   2.209   6.187 -0.0822  0.0593  0.1736
22889W        W27289  16.132   5.927   6.031 -0.3565  0.2869  0.3956
22890W        W27290  26.142   5.171   9.607  0.0706 -0.1710 -0.0183
22891W        W27291   3.867   0.401  11.155 -0.2628 -0.0261  0.1013
22892W        W27292  17.001   4.368  30.190 -0.1855 -0.3522  0.0339
22893W        W27293  17.214   6.292   1.978 -0.0567  0.0185 -0.1037
22894W        W27294  21.456   5.016  15.385  0.0028  0.0407 -0.4710
22895W        W27295  15.890   6.169  35.594  0.3467  0.1577 -0.0257
22896W        W27296   6.300   4.029  26.985 -0.4470 -0.0674 -0.3213
22897W        W27297   7.123   1.028   3.580  0.3323 -0.2500 -0.2469
22898W        W27298  18.840   1.063  14.878  0.1142 -0.0154 -0.4672
22899W        W27299   5.270   2.300   7.152 -0.0229  0.1039 -0.3945
22900W        W27300   1.765   0.363  31.569  0.1962 -0.2003  0.3069
22901W        W27301  26.010   0.768  15.658 -0.2010  0.3599 -0.0908
22902W        W27302  10.983   0.328   0.392  0.0834  0.1473  0.0262
22903W        W27303  25.984   2.017   2.796 -0.2239 -0.3327  0.3304
22904W        W27304   8.534   1.126   2.853 -0.0613 -0.0287  0.1848
22905W        W27305  14.164   6.173  28.906  0.2656 -0.2354 -0.2755
22906W        W27306  17.297   1.438  22.281 -0.1112  0.1589 -0.1135
22907W        W27307  21.009   2.179  35.839  0.0115  0.1197  0.1724
22908W        W27308   3.073   0.758  30.000  0.0212  0.0650  0.0369
22909W        W27309  16.332   6.343  10.744 -0.0785 -0.0628 -0.2969
22910W        W27310   1.196   3.852  29.724  0.0765 -0.1711 -0.0810
22911W        W27311  18.119   5.882  27.938  0.2986 -0.0557  0.2270
22912W        W27312   4.699   4.278  26.049  0.0493  0.0328  0.0210
22913W        W27313  21.389   3.321  36.073  0.2132 -0.4264  0.3610
22914W        W27314  26.207   3.869  29.866 -0.0907  0.0021 -0.3725
22915W        W27315  21.501   0.390  10.151 -0.2002 -0.1975 -0.1354
22916W        W27316   3.071   0.761  34.975 -0.2142  0.0188  0.3269
22917W        W27317   9.583   3.270  23.625 -0.2874 -0.0392 -0.0277
22918W        W27318  17.965   2.573  27.319  0.4011  0.3133  0.0263
22919W        W27319  24.100   6.132  34.698 -0.2610  0.0041  0.0000
22920W        W27320   4.786   2.797  24.434  0.1776  0.1230 -0.0622
22921W        W27321  22.827   3.250  25.474 -0.0405  0.2832 -0.1043
22922W        W27322   3.948   4.147  33.623  0.0975 -0.1313  0.0497
22923W        W27323  17.177   2.949  12.131  0.3830 -0.1522  0.1453
22924W        W27324   0.154   2.428  32.131  0.2009  0.1602 -0.0261
22925W        W27325  11.987   2.052  28.153  0.3215  0.1353  0.0795
22926W        W27326  15.046   3.855   7.113 -0.2552  0.1045 -0.1344
22927W        W27327  20.686   6.209   0.488 -0.1435 -0.0342  0.1812
22928W        W27328  24.135   4.362   4.496 -0.1517  0.0089 -0.2915
22929W        W27329   3.285   1.199  22.235 -0.0367 -0.2823 -0.1105
22930W        W27330  25.529   5.171  31.804 -0.0997 -0.2185 -0.0699
22931W        W27331  18.809   1.201   0.181  0.1092  0.0291  0.0123
22932W        W27332  15.753   1.268   6.005  0.0022  0.0448  0.1068
22933W        W27333   6.773   0.848  14.011  0.0678 -0.1200 -0.3046
22934W        W27334  17.999   4.128  35.367 -0.2586  0.1449  0.3064
22935W        W27335  26.031   4.071  10.925  0.2069 -0.0089 -0.0687
22936W        W27336  22.038   4.361  25.505  0.0603  0.0030 -0.3404
22937W        W27337   7.255   5.300  31.050  0.1165 -0.1099 -0.2544
22938W        W27338   9.205   2.058  24.520  0.0673 -0.0800  0.1463
22939W        W27339   5.135   4.656  31.057  0.0261 -0.1562 -0.1050
22940W        W27340   5.057   0.152   3.203 -0.0556  0.0688 -0.1022
22941W        W27341  23.198   1.233   9.997 -0.0398 -0.0378  0.2758
22942W        W27342  20.172   4.539   3.575 -0.2793  0.0683  0.2918
22943W        W27343   1.826   4.659  21.914  0.4059 -0.1121  0.2044
22944W        W27344  24.726   3.535  28.461  0.0713  0.1770 -0.1012
22945W        W27345   6.572   3.856   3.761  0.0201  0.1655 -0.0249
22946W        W27346  21.673   2.468   4.211  0.2244  0.0245  0.3542
22947W        W27347  19.370   3.385  31.577 -0.1274 -0.2206 -0.1199
22948W        W27348  20.809   1.942  35.396 -0.1808  0.1557  0.0355
22949W        W27349  26.238   4.697  15.513  0.0066  0.0590 -0.1661
22950W        W27350   1.799   5.145  11.795  0.0049  0.0986 -0.3770
22951W        W27351  21.938   5.155  25.089  0.1976 -0.2878  0.0937
22952W        W27352  23.147   2.195  31.586  0.0149 -0.1507  0.1166
22953W        W27353  18.078   5.679  11.048  0.0154  0.2534  0.0390
22954W        W27354  11.736   3.271  12.605 -0.0428 -0.1704  0.0560
22955W        W27355   8.465   3.005  27.491 -0.1558 -0.3979  0.1483
22956W        W27356   1.776   2.665   9.466 -0.1600  0.2944  0.1917
22957W        W27357  17.966   2.514  24.822 -0.1779  0.2340 -0.0806
22958W        W27358  18.622   0.381  29.348 -0.2324 -0.2094  0.1274
22959W        W27359  14.948   2.214  12.902  0.1837  0.1099 -0.1565
22960W        W27360  26.361   4.338   9.895 -0.1389 -0.0327 -0.0573
22961W        W27361  26.179   5.079  29.614 -0.1129  0.2424  0.1148
22962W        W27362  20.419   3.147  11.778 -0.0655 -0.2554  0.0980
22963W        W27363  14.435   2.648  33.550 -0.2815 -0.1520 -0.0401
22964W        W27364   1.297   1.856  26.771  0.0458 -0.1075 -0.2402
22965W        W27365  14.161   5.426  13.402 -0.2706  0.2888 -0.1323
22966W        W27366   4.231   4.438  22.860  0.1011 -0.0907  0.0974
22967W        W27367   4.624   1.055  11.743 -0.0227  0.3016  0.0937
22968W        W27368  19.689   1.566  31.882 -0.0864  0.0286 -0.1099
22969W        W27369   2.105   3.556  20.674 -0.1660 -0.2221 -0.3576
22970W        W27370  20.037   3.659   3.108 -0.0084  0.1056 -0.0592
22971W        W27371   7.945   4.774  32.165 -0.1999 -0.0846  0.1087
22972W        W27372  17.711   0.359  15.089  0.0527 -0.1514  0.0592
22973W        W27373  20.096   1.072  26.317  0.0872 -0.0340 -0.0519
22974W        W27374   1.100   3.107  30.676 -0.1876 -0.2061 -0.1947
22975W        W27375  19.246   5.301  15.503 -0.1504  0.0384 -0.0489
22976W        W27376  21.545   1.812  26.615 -0.3270  0.0141  0.3388
22977W        W27377   0.850   5.990  25.508 -0.2432 -0.2253  0.0645
22978W        W27378  20.062   1.054   3.150 -0.1596 -0.1605  0.1186
22979W        W27379   4.379   4.350   9.746 -0.0933 -0.4018 -0.1181
22980W        W27380  21.999   6.424   5.790  0.0764 -0.2008 -0.0875
22981W        W27381   8.354   4.046  29.914 -0.2317 -0.2036  0.0699
22982W        W27382   7.726   3.224  33.860 -0.2641 -0.3275  0.0606
22983W        W27383   0.260   3.936  29.704 -0.3598  0.0361 -0.0271
22984W        W27384  15.291   0.954   5.960 -0.1315 -0.0124  0.2687
22985W        W27385  25.233   3.875  24.213 -0.0146  0.0966  0.0589
22986W        W27386   3.291   6.500  24.124  0.0895  0.2941 -0.1456
22987W        W27387  12.763   2.627  25.405  0.1501 -0.2524 -0.2229
22988W        W27388  17.274   0.931  29.642 -0.1448  0.1686 -0.1073
22989W        W27389  21.530   1.813  12.100  0.0693 -0.0627  0.0227
22990W        W27390  25.995   2.494  13.235  0.0803  0.1804 -0.0059
22991W        W27391  22.618   4.441  35.652 -0.1207 -0.0230 -0.2579
22992W        W27392  13.340   0.227  33.514  0.0571  0.1258  0.1310
22993W        W27393  20.772   1.934  14.623 -0.0289  0.1380 -0.2455
22994W        W27394   2.252   4.883  21.821  0.0538 -0.0426  0.2079
22995W        W27395  18.316   5.996  32.980  0.1078 -0.1137 -0.1895
22996W        W27396   2.806   0.496   9.029 -0.0207  0.0282  0.2560
22997W        W27397  18.262   6.578   6.310  0.3384  0.0005 -0.2239
22998W        W27398  16.404   0.287  27.128  0.1435  0.0499 -0.2857
22999W        W27399   6.444   5.441  34.377 -0.3314  0.1084 -0.2118
23000W        W27400   1.797   1.687  25.431  0.3077 -0.1714 -0.0031
23001W        W27401   0.420   0.572  32.056 -0.2808  0.1816  0.1763
23002W        W27402  18.148   0.373  14.034  0.1280 -0.2823 -0.2297
23003W        W27403   7.374   2.072   4.199  0.0636 -0.1915 -0.2353
23004W        W27404  10.329   1.428   4.119  0.2929  0.0834 -0.1890
23005W        W27405  23.403   6.550   1.111  0.1309 -0.0039  0.0542
23006W        W27406  23.917   6.428  27.047  0.2275 -0.1248 -0.0130
23007W        W27407   4.059   6.043   0.104 -0.0304 -0.1723 -0.3581
23008W        W27408  12.293   3.152  32.627  0.1075 -0.1187 -0.3579
23009W        W27409   5.190   5.605  23.399 -0.0447 -0.0191  0.0506
23010W        W27410  20.302   0.931   0.453 -0.0120  0.1071  0.1322
23011W        W27411  25.820   1.667   1.340  0.3049 -0.0678  0.0898
23012W        W27412  14.302   0.090  33.213  0.4701 -0.2283  0.0360
23013W        W27413  19.886   4.758  10.429 -0.1538  0.2152  0.0340
23014W        W27414  18.931   3.542   4.171 -0.1456  0.0162  0.2161
23015W        W27415  18.678   0.940  28.143  0.0420  0.4076  0.4477
23016W        W27416  14.095   2.434   2.295 -0.0742  0.1000  0.0588
23017W        W27417  14.853   1.143  28.149  0.2009 -0.0705  0.1513
23018W        W27418   3.448   5.493   3.142 -0.0389  0.1583  0.0603
23019W        W27419   6.700   3.144   7.275  0.0421 -0.1930  0.0251
23020W        W27420   4.086   1.529  32.218 -0.1574 -0.2117 -0.0690
23021W        W27421  15.155   2.054   1.452 -0.5772  0.0354  0.4576
23022W        W27422  13.693   0.595  15.060 -0.0795 -0.0491 -0.2025
23023W        W27423  14.581   0.667  11.168  0.0277 -0.1162 -0.2764
23024W        W27424  26.231   1.761  10.220 -0.1100  0.2014  0.1448
23025W        W27425  19.806   4.058  30.897  0.0649  0.1021  0.1287
23026W        W27426   7.869   1.227   2.915  0.0806 -0.1559  0.2436
23027W        W27427   7.896   0.253  15.100 -0.1087 -0.1102 -0.1719
23028W        W27428  12.643   4.260  21.723  0.2257  0.0893  0.2038
23029W        W27429  25.734   4.101  26.337 -0.0285 -0.1215  0.1612
23030W        W27430  10.144   6.413  32.858  0.2782  0.4251  0.1385
23031W        W27431  23.501   5.107  10.498 -0.2177  0.1078  0.0279
23032W        W27432  18.090   3.808  11.384 -0.1171 -0.0975  0.0951
23033W        W27433  14.310   2.158  33.316  0.3409  0.2164 -0.1039
23034W        W27434   4.452   2.596  29.033  0.2364  0.3347  0.1172
23035W        W27435  12.757   4.664  21.339 -0.1411  0.1265  0.0558
23036W        W27436  16.775   3.969  31.117  0.0050  0.1132 -0.0205
23037W        W27437   3.804   1.654  15.881  0.0782  0.1849  0.3994
23038W        W27438  22.904   4.015   4.349  0.0117  0.0393 -0.0807
23039W        W27439   0.871   4.651   9.704 -0.0120 -0.0104 -0.1318
23040W        W27440   2.657   3.023   5.586 -0.0508  0.1688  0.0985
23041W        W27441  23.058   2.852  15.937 -0.1313 -0.0035  0.1405
23042W        W27442   5.771   3.455  35.526 -0.0816  0.0433 -0.6397
23043W        W27443   5.036   2.985   8.173 -0.1063 -0.2038 -0.0612
23044W        W27444  11.707   3.608   5.651 -0.0704 -0.1985 -0.0313
23045W        W27445   9.739   2.488  30.721  0.1266 -0.2038 -0.1286
23046W        W27446  12.444   2.739  32.392  0.0599 -0.0400  0.0412
23047W        W27447  12.904   6.443   2.017 -0.1176 -0.0184  0.2303
23048W        W27448  24.770   6.201  29.667  0.0972 -0.0957  0.0824
23049W        W27449   5.147   2.357  23.015 -0.1380 -0.2570  0.1652
23050W        W27450  26.305   2.954  33.396  0.1485  0.1006  0.0488
23051W        W27451   9.300   1.368  27.374  0.0587  0.6183  0.2033
23052W        W27452  20.153   2.143  34.055 -0.0620 -0.0278 -0.1972
23053W        W27453  14.768   3.288  31.694 -0.1365  0.0397 -0.3008
23054W        W27454   7.872   5.807  34.744 -0.2425 -0.0668 -0.4949
23055W        W27455   1.360   0.601   5.373 -0.0896 -0.0186 -0.4573
23056W        W27456  14.986   4.440  12.582  0.0269  0.1825 -0.3472
23057W        W27457  18.112   1.710  35.336 -0.0034  0.1137  0.0530
23058W        W27458   2.950   3.747   5.916  0.4793 -0.1109 -0.0851
23059W        W27459   0.086   2.176  29.924  0.1293 -0.1582  0.0494
23060W        W27460  22.896   3.076   0.364  0.0465 -0.0975  0.2006
23061W        W27461  21.745   3.013  34.872  0.0565  0.0960  0.1558
23062W        W27462  24.591   4.881   8.418  0.2086 -0.2359  0.2576
23063W        W27463   9.519   3.681   4.797  0.1628 -0.3754  0.0851
23064W        W27464   7.444   4.863  22.322  0.0621 -0.4169 -0.0244
23065W        W27465  10.148   3.008   4.607 -0.2502 -0.1038  0.2261
23066W        W27466  12.229   0.497  15.172 -0.1087 -0.1367 -0.0231
23067W        W27467   7.776   1.775   5.810  0.1222 -0.0906 -0.3356
23068W        W27468   1.926   2.358  13.348 -0.0368 -0.3353 -0.0182
23069W        W27469  17.565   2.127  24.876 -0.0714 -0.2857  0.0599
23070W        W27470  20.329   5.994   1.250 -0.0331  0.0461 -0.3271
23071W        W27471   4.252   3.020  22.272  0.2686 -0.1369  0.0732
23072W        W27472  11.106   3.124   5.011 -0.0084 -0.2296  0.0996
23073W        W27473  20.668   5.649   4.788  0.1379  0.0883 -0.0666
23074W        W27474  12.022   3.105  14.879  0.1360 -0.0125 -0.2337
23075W        W27475  16.445   5.507  14.714 -0.1094  0.0712 -0.2058
23076W        W27476  13.627   5.870  29.251  0.0593  0.1033 -0.0493
23077W        W27477   1.858   0.218  21.852 -0.1175 -0.3961 -0.2765
23078W        W27478  19.356   2.226  30.165  0.0291 -0.2286  0.3241
23079W        W27479  21.779   1.608  28.472 -0.2904 -0.0977 -0.0466
23080W        W27480   5.107   0.305  26.972 -0.0719 -0.1554 -0.1335
23081W        W27481   1.815   6.520  13.918 -0.2587  0.1253 -0.3952
23082W        W27482  12.102   1.982  32.138  0.1075  0.0501 -0.1639
23083W        W27483  13.618   5.786   8.306  0.0363  0.1614  0.1832
23084W        W27484   9.289   0.901  22.443 -0.0925 -0.3761 -0.2486
23085W        W27485  11.585   3.828  29.565 -0.4151 -0.0807  0.2113
23086W        W27486  15.800   6.018   3.496  0.1440 -0.1241  0.1600
23087W        W27487   4.195   0.190  11.525  0.1447 -0.1492 -0.1222
23088W        W27488   9.814   3.684   7.179  0.2125  0.1537  0.1161
23089W        W27489   2.243   3.726   5.253 -0.0116 -0.2644  0.4857
23090W        W27490  11.813   3.869  23.621  0.1139  0.0264 -0.1259
23091W        W27491  11.294   2.158  20.957  0.5116  0.2460  0.3187
23092W        W27492   6.738   6.228  14.704 -0.0963 -0.2546  0.2484
23093W        W27493   1.820   5.734  22.614 -0.1602 -0.0714  0.2266
23094W        W27494  13.566   0.475   5.137 -0.2018 -0.0056 -0.3715
23095W        W27495   8.074   1.726  27.290  0.0433 -0.0743 -0.4379
23096W        W27496  15.128   2.794  32.328 -0.0574 -0.0572 -0.1103
23097W        W27497  14.659   6.013   3.619 -0.2378 -0.1005 -0.1383
23098W        W27498  11.602   6.551  31.749 -0.3442  0.1277  0.0886
23099W        W27499   1.881   0.384  23.839  0.1545  0.0964  0.0759
23100W        W27500   2.598   2.249   3.742 -0.0504  0.0571  0.1966
23101W        W27501  17.198   0.096  26.528 -0.1197  0.0885 -0.0953
23102W        W27502  11.868   2.961  30.978 -0.1116 -0.2552  0.0115
23103W        W27503   8.122   4.784  23.656 -0.1588  0.2389 -0.1215
23104W        W27504  22.430   2.354   5.860 -0.0241  0.2416  0.2114
23105W        W27505  26.179   4.068  32.004  0.0234 -0.2139 -0.0332
23106W        W27506   4.000   0.150   2.056  0.1177 -0.0336 -0.0311
23107W        W27507   1.943   1.353   1.820  0.0236 -0.0421 -0.0468
23108W        W27508  16.555   3.162  29.071 -0.1063 -0.0785  0.2333
23109W        W27509   9.774   3.406   0.895 -0.1659 -0.0115  0.1303
23110W        W27510  11.888   5.273  33.968  0.0227 -0.2555  0.0712
23111W        W27511   4.241   0.061  14.675 -0.1857  0.0630 -0.2140
23112W        W27512   5.230   6.306  12.923  0.0835 -0.0447  0.0003
23113W        W27513   9.616   5.745   7.886 -0.0103 -0.2089  0.2880
23114W        W27514   3.227   2.919   6.714  0.0599  0.1303 -0.2079
23115W        W27515   5.995   0.514  30.244  0.1584  0.0704 -0.0953
23116W        W27516  11.242   3.492  33.665 -0.1771  0.1000 -0.1648
23117W        W27517  21.994   6.084  11.927 -0.0574 -0.1906 -0.1455
23118W        W27518   3.286   6.581  13.696  0.1335  0.2534  0.3580
23119W        W27519   3.205   0.232   4.196 -0.1926  0.0378  0.0921
23120W        W27520  23.970   0.444  32.408  0.2050 -0.2394  0.3562
23121W        W27521   2.775   1.084   5.779 -0.0926 -0.0139 -0.0047
23122W        W27522   2.154   2.500   5.357  0.1219  0.0837  0.2619
23123W        W27523  16.863   0.136  29.241 -0.0540  0.1823 -0.3599
23124W        W27524  11.385   0.142  15.444  0.0055  0.1029  0.1501
23125W        W27525  12.521   2.711  12.614 -0.0122  0.0502 -0.0613
23126W        W27526  11.594   0.644   3.453 -0.0603  0.2398  0.1980
23127W        W27527  10.454   3.186  21.506  0.0301  0.0106 -0.3016
23128W        W27528  11.499   5.332  10.247 -0.0639 -0.1998  0.0457
23129W        W27529  10.815   4.671  13.474 -0.1333 -0.2072  0.1484
23130W        W27530  22.020   5.870   4.350  0.1277  0.0576  0.0240
23131W        W27531  22.068   1.761  29.928  0.1290 -0.1175 -0.0364
23132W        W27532  17.653   3.905   7.420 -0.0114  0.1325 -0.1588
23133W        W27533  13.710   3.429  23.454 -0.2876 -0.3537 -0.0312
23134W        W27534  19.956   3.181  10.826 -0.1594  0.0905  0.0473
23135W        W27535  25.024   4.851   4.149 -0.2321 -0.0904 -0.0504
23136W        W27536   1.113   5.744  27.327  0.0043 -0.1031  0.0141
23137W        W27537  15.381   3.594  12.697 -0.1798  0.1259 -0.1813
23138W        W27538   2.013   1.823  35.496 -0.0559 -0.3354 -0.1395
23139W        W27539   9.877   1.676  34.262 -0.2071 -0.0741 -0.0595
23140W        W27540  12.670   1.784  23.899  0.4430  0.4506  0.1197
23141W        W27541   3.001   5.802  30.570 -0.2774 -0.2711 -0.0676
23142W        W27542   9.162   4.309   8.621 -0.2123  0.0206  0.0756
23143W        W27543   6.218   6.460   9.535 -0.0229 -0.3014  0.0432
23144W        W27544  23.528   2.384  27.966 -0.1989 -0.2746  0.1020
23145W        W27545  21.679   6.173  35.484 -0.1770  0.1190  0.2412
23146W        W27546  20.795   1.479  31.019  0.3256 -0.1834 -0.2388
23147W        W27547  15.597   3.847  14.773 -0.2226  0.0765  0.0267
23148W        W27548  26.147   6.447   8.840 -0.3653 -0.0412  0.1260
23149W        W27549   8.299   1.857  33.544 -0.2780 -0.2025 -0.0058
23150W        W27550  12.683   5.339   8.983 -0.0854 -0.0650  0.1888
23151W        W27551   0.827   3.737  25.808 -0.4136 -0.1084  0.2743
23152W        W27552  17.104   1.459   1.783 -0.1980  0.0226 -0.0980
23153W        W27553  11.087   0.810  21.697 -0.1964  0.1047  0.0858
23154W        W27554   0.384   0.521  28.683  0.0043  0.0212  0.0979
23155W        W27555   9.487   4.116  26.920 -0.1837 -0.2559  0.2050
23156W        W27556  11.914   1.272  32.793 -0.3106  0.2329 -0.1012
23157W        W27557  25.675   4.087  24.102  0.0568  0.3227 -0.4747
23158W        W27558  18.081   6.576  26.504 -0.1118  0.2612  0.1237
23159W        W27559   8.982   5.498   6.684  0.0172 -0.3586 -0.0514
23160W        W27560  11.856   1.089  26.185  0.3408  0.0062 -0.0323
23161W        W27561  19.494   0.855  21.274  0.1238 -0.0247 -0.0481
23162W        W27562  11.813   0.002   3.419  0.0467 -0.0491  0.1665
23163W        W27563  12.035   5.060  34.397 -0.0804  0.0837  0.4105
23164W        W27564  26.229   1.420  22.258 -0.0902 -0.0712 -0.2152
23165W        W27565  18.406   4.539  10.523 -0.0160 -0.0608 -0.0205
23166W        W27566  23.647   0.713  22.541 -0.5283 -0.1010 -0.1862
23167W        W27567  18.856   5.576   8.498 -0.2256 -0.0199 -0.0685
23168W        W27568  18.919   4.749  25.939  0.1570 -0.1463 -0.0963
23169W        W27569  12.712   5.658   9.407  0.0594  0.1568 -0.1942
23170W        W27570  14.782   4.788   1.713  0.1880  0.1233  0.1641
23171W        W27571   6.489   3.933  21.634 -0.0614  0.1560  0.1637
23172W        W27572   7.068   2.373  27.926 -0.2482  0.3175  0.2750
23173W        W27573  17.177   6.287  30.672  0.1172  0.0755  0.2222
23174W        W27574  14.133   1.603  22.085  0.0051  0.2774  0.0441
23175W        W27575  12.299   4.572  21.143 -0.0929  0.0018 -0.2562
23176W        W27576   3.131   3.571  27.151  0.0195 -0.0612 -0.0862
23177W        W27577  18.038   3.037  26.955  0.3142  0.2960 -0.0063
23178W        W27578   9.879   1.464  14.509  0.1857  0.0170 -0.3880
23179W        W27579   8.108   1.874   3.380  0.0752  0.0828 -0.0687
23180W        W27580  11.846   1.340   2.875 -0.1011 -0.2660 -0.0337
23181W        W27581  24.997   5.898  31.294  0.1842  0.0255 -0.0416
23182W        W27582   5.585   0.913  29.478 -0.1143  0.0056 -0.0246
23183W        W27583  21.652   0.075  34.172 -0.1868 -0.0598  0.2210
23184W        W27584   4.308   3.368  34.811  0.1219  0.2605 -0.0277
23185W        W27585   7.520   3.137   0.704  0.1085  0.1594 -0.1704
23186W        W27586  14.480   2.596   4.232 -0.2727 -0.0001 -0.1745
23187W        W27587  18.192   1.765   4.276  0.0085  0.2230  0.1315
23188W        W27588  24.176   1.811  23.001 -0.0267  0.0664  0.0961
23189W        W27589  11.500   1.363  33.031 -0.0579  0.1076 -0.0769
23190W        W27590   0.119   5.193  22.437  0.1883 -0.1190  0.1312
23191W        W27591  11.183   3.991   4.318 -0.0169  0.1092  0.1409
23192W        W27592   3.374   2.024  33.957  0.1710 -0.1402  0.1380
23193W        W27593  10.228   4.195   9.339  0.1602  0.0990  0.2960
23194W        W27594  14.265   4.394  14.649  0.1406 -0.1306  0.2138
23195W        W27595  23.058   6.026  23.950  0.1175  0.0171 -0.0827
23196W        W27596  16.168   4.421  27.545 -0.1836  0.0789 -0.0691
23197W        W27597   4.144   3.506  13.847  0.0187  0.3095 -0.3412
23198W        W27598  18.073   1.352  12.737 -0.1650  0.2073 -0.0679
23199W        W27599   9.924   3.524  28.951  0.1822  0.1219 -0.1664
23200W        W27600   2.616   4.637   4.046  0.2326  0.0308  0.3386
23201W        W27601  20.956   1.005   4.115 -0.2602  0.1078 -0.0414
23202W        W27602  19.616   3.982  26.691  0.1688  0.2939 -0.0230
23203W        W27603   7.962   2.242  29.560 -0.2854  0.0819 -0.2367
23204W        W27604   5.079   5.834   4.263 -0.0665 -0.0929 -0.0825
23205W        W27605  23.259   1.208   5.610 -0.1286 -0.0092  0.3278
23206W        W27606   3.193   4.484   2.259  0.1293  0.0833  0.3130
23207W        W27607  19.822   5.949  35.706  0.2445  0.0453 -0.0733
23208W        W27608  14.404   0.251  13.838 -0.1419  0.1541 -0.1314
23209W        W27609  26.066   3.097   4.867 -0.0161 -0.0558 -0.1584
23210W        W27610  20.656   5.242  26.598  0.0465  0.0858 -0.0907
23211W        W27611   8.441   0.232   1.921 -0.1838 -0.0199  0.0276
23212W        W27612  16.584   5.454  25.646  0.2029  0.1437  0.3235
23213W        W27613  21.350   3.602  21.773  0.5455 -0.1587  0.2773
23214W        W27614  20.497   4.853   0.071 -0.1430  0.2343  0.0931
23215W        W27615  25.959   0.410   3.749  0.1469  0.1228  0.0124
23216W        W27616   4.899   2.969   2.921 -0.1696  0.0448 -0.1067
23217W        W27617   7.382   1.795  29.043 -0.0185  0.0086  0.0746
23218W        W27618  13.367   0.911  12.133 -0.1111  0.0593  0.0036
23219W        W27619   2.019   1.894  13.189  0.2223 -0.2213 -0.1147
23220W        W27620   6.526   5.229  31.864  0.0005  0.0138 -0.0359
23221W        W27621   3.267   2.090   6.621 -0.1917 -0.1113 -0.0729
23222W        W27622   4.252   4.001  12.790 -0.2781  0.1423 -0.0420
23223W        W27623   9.492   0.208   7.830 -0.0221  0.0013  0.1257
23224W        W27624   7.747   3.339  24.483 -0.2253 -0.4019 -0.0698
23225W        W27625  16.450   4.221  11.325 -0.1276  0.1412 -0.0901
23226W        W27626   3.371   4.602  35.268 -0.1524  0.0538 -0.0059
23227W        W27627  14.967   1.735   5.803  0.0584 -0.2248  0.1325
23228W        W27628   9.032   3.652  27.756  0.0537  0.3201 -0.3017
23229W        W27629  25.877   5.504   8.571 -0.3046 -0.1232  0.0519
23230W        W27630   9.271   6.430  21.555 -0.1506 -0.1046 -0.3162
23231W        W27631   8.256   2.377  11.893  0.3844  0.1402 -0.2031
23232W        W27632   4.150   2.569   4.197 -0.5379 -0.2017  0.1924
23233W        W27633  24.733   4.724  23.145  0.2473  0.0417 -0.3151
23234W        W27634  13.815   6.050  32.658  0.0054 -0.1532 -0.3296
23235W        W27635   2.562   1.220   1.228  0.0587  0.6167  0.1025
23236W        W27636  20.851   6.046  31.079  0.1838  0.1061 -0.2624
23237W        W27637   7.810   4.006   8.696 -0.3608  0.1799  0.1420
23238W        W27638   8.271   4.780  26.081 -0.2267  0.0468  0.4322
23239W        W27639  11.390   3.572  31.676  0.0360  0.2350  0.1411
23240W        W27640  11.627   4.436   8.410 -0.0451 -0.0137 -0.1022
23241W        W27641  17.163   4.636  12.706 -0.2346  0.1208 -0.1166
23242W        W27642  26.001   0.174  34.157  0.0130 -0.2238  0.1536
23243W        W27643   9.443   1.235   2.974 -0.0200  0.2963  0.0514
23244W        W27644   3.612   2.769  15.241  0.2006 -0.2492  0.0703
23245W        W27645   0.040   1.317  33.152  0.1587 -0.1810  0.1277
23246W        W27646   6.529   4.632   7.158 -0.1552 -0.0175  0.1238
23247W        W27647  10.530   0.759  26.646  0.1988 -0.0430  0.0734
23248W        W27648  22.501   5.536  33.886 -0.0530  0.2669 -0.3269
23249W        W27649   5.492   4.689  23.813  0.0848 -0.0851  0.1269
23250W        W27650  20.052   3.018   3.919 -0.2652 -0.1775 -0.2021
23251W        W27651   6.628   5.785  23.932  0.3029 -0.0421 -0.1667
23252W        W27652  14.038   5.922  21.067  0.2757 -0.2332  0.0652
23253W        W27653  25.187   4.131   7.798  0.0468 -0.1894 -0.0367
23254W        W27654  22.713   3.002   9.753 -0.0030 -0.0407 -0.3009
23255W        W27655   7.388   0.655  34.776  0.0942 -0.1720 -0.0329
23256W        W27656  19.801   6.017  23.910 -0.2356 -0.1330  0.1197
23257W        W27657   3.850   0.402  26.087  0.2965  0.0173 -0.1230
23258W        W27658  16.142   4.946  10.789  0.0556  0.1383 -0.2499
23259W        W27659  17.118   6.360  31.146 -0.0914 -0.1167 -0.0691
23260W        W27660   8.373   0.433  15.020  0.0744 -0.0773  0.0810
23261W        W27661   6.714   6.137  21.115 -0.1854 -0.1089  0.2769
23262W        W27662   8.451   2.446  30.990  0.1864 -0.3542 -0.1580
23263W        W27663  14.124   4.721  28.518 -0.2372 -0.1711  0.1034
23264W        W27664  23.854   0.462  23.996 -0.1633 -0.1603 -0.1070
23265W        W27665  20.009   3.661  28.047 -0.4824 -0.0901  0.2933
23266W        W27666  21.669   0.426  14.271 -0.1631  0.1104  0.3218
23267W        W27667   2.230   6.490   2.537 -0.2146  0.2317 -0.1427
23268W        W27668  16.001   6.539   3.458  0.0058 -0.1223 -0.1029
23269W        W27669   2.338   3.863  21.247 -0.2013  0.0297  0.4004
23270W        W27670  14.889   4.344   1.860 -0.2977  0.4379 -0.1572
23271W        W27671  21.021   6.065  25.508 -0.2267  0.1400 -0.2261
23272W        W27672  24.774   5.365   5.227  0.0467  0.2093 -0.2530
23273W        W27673  14.618   6.336   5.960  0.0543 -0.2774 -0.0172
23274W        W27674  10.100   5.113  11.450  0.0409  0.3023 -0.0890
23275W        W27675  19.407   6.273   4.413 -0.4126  0.0721 -0.1582
23276W        W27676  11.368   1.245   0.532 -0.0699 -0.2432  0.0743
23277W        W27677  18.698   5.330   9.086 -0.0111 -0.0514  0.0035
23278W        W27678   8.605   2.786  26.674  0.0056  0.1907  0.1239
23279W        W27679  23.190   5.584  14.205  0.1562 -0.1476  0.1614
23280W        W27680  17.616   2.908  10.630 -0.0616 -0.0930 -0.1046
23281W        W27681  15.068   1.606   0.624 -0.2018  0.0051  0.0719
23282W        W27682   9.420   3.322  34.799  0.0167  0.0867 -0.0061
23283W        W27683  17.879   6.077   2.719  0.0815  0.0633  0.0218
23284W        W27684  22.162   3.399  22.239  0.0504  0.1026  0.0598
23285W        W27685  17.408   6.137  33.571 -0.2170  0.0245  0.2240
23286W        W27686  15.156   1.734  33.145  0.1275  0.1745  0.0342
23287W        W27687  25.670   0.858  21.705  0.0972 -0.0739 -0.0425
23288W        W27688   1.278   0.043  11.921 -0.0162 -0.0045 -0.0633
23289W        W27689  23.588   6.278  20.692  0.1212 -0.1548  0.2407
23290W        W27690  23.198   3.948  35.692  0.0023  0.2305  0.0168
23291W        W27691   6.806   1.815   0.740  0.0136 -0.0269  0.0783
23292W        W27692  10.975   0.748  30.840  0.2500  0.0218 -0.2523
23293W        W27693  24.984   5.956  27.713 -0.2217 -0.1932  0.1190
23294W        W27694  24.462   3.698  24.909 -0.2587  0.2887  0.0258
23295W        W27695  10.539   2.748   8.392  0.1125  0.1444  0.3692
23296W        W27696  17.416   1.462  14.482 -0.0024 -0.2168 -0.0580
23297W        W27697   3.078   3.679  11.749 -0.0071 -0.0408  0.1237
23298W        W27698   8.814   0.890  26.794  0.0852  0.0235 -0.0041
23299W        W27699  19.625   3.646   2.762  0.1573  0.0478 -0.0287
23300W        W27700  11.436   0.908   7.615  0.0218  0.1326  0.1032
23301W        W27701  17.951   6.092   0.173  0.0245  0.0153  0.0109
23302W        W27702   9.511   0.759   9.056 -0.0784  0.0417 -0.2526
23303W        W27703  13.045   2.777  32.443 -0.1352 -0.1709  0.1580
23304W        W27704   3.460   5.623  14.132 -0.2773 -0.2226 -0.1345
23305W        W27705  14.550   0.691   1.664 -0.1679 -0.0679 -0.3567
23306W        W27706   1.256   5.596   6.120 -0.0160  0.1248 -0.1984
23307W        W27707   4.860   0.840  26.515  0.0011 -0.2406  0.1211
23308W        W27708  14.708   3.335  35.560  0.2208 -0.0600  0.3203
23309W        W27709  25.383   3.084   0.019 -0.0896  0.0308 -0.0772
23310W        W27710  23.845   2.120   3.803 -0.1258 -0.1391 -0.0126
23311W        W27711   3.544   1.511   6.035  0.1886  0.1191  0.6592
23312W        W27712  16.242   4.513  31.271 -0.1736  0.0668 -0.0420
23313W        W27713   8.422   0.940  30.326  0.0450  0.0658  0.0340
23314W        W27714   2.150   0.230  34.666 -0.1623 -0.1603  0.5461
23315W        W27715  21.913   6.079  30.844  0.3053  0.0384  0.1502
23316W        W27716   0.563   2.011  22.960  0.0325  0.0677  0.0359
23317W        W27717  14.125   3.748  35.688  0.1816 -0.0124 -0.0281
23318W        W27718  14.637   2.716  11.035 -0.0705 -0.1187 -0.1250
23319W        W27719   2.929   3.901  35.122  0.1343 -0.0457  0.0266
23320W        W27720  18.769   3.694  30.792  0.1149  0.0362  0.0511
23321W        W27721  20.123   3.633  36.041 -0.2725  0.0089 -0.0987
23322W        W27722   3.691   0.335   2.945 -0.4239  0.1035 -0.0645
23323W        W27723  23.640   3.150   1.621  0.0005 -0.1668 -0.1197
23324W        W27724  15.808   5.672  22.792 -0.2433  0.1553 -0.1158
23325W        W27725   3.581   4.238  24.744 -0.1229  0.2913  0.0606
23326W        W27726  13.645   3.338   9.761  0.0746  0.3142 -0.1995
23327W        W27727   5.178   1.059  34.756 -0.0864 -0.0378 -0.1322
23328W        W27728  16.076   2.889  35.365  0.1260 -0.2218  0.4299
23329W        W27729   7.839   5.957   6.942  0.1905 -0.2573  0.1226
23330W        W27730  17.625   4.444  29.496 -0.0501  0.2326  0.2177
23331W        W27731   3.930   1.843  22.952 -0.0238  0.1700 -0.0979
23332W        W27732  13.569   1.813   0.454  0.1219  0.0672  0.1614
23333W        W27733  15.570   3.639  30.331  0.1377 -0.0420  0.0678
23334W        W27734   6.218   1.088   0.048 -0.0618 -0.2192  0.1022
23335W        W27735   3.360   2.803   0.384 -0.0593 -0.2257 -0.2208
23336W        W27736  24.889   6.126  12.802 -0.0289  0.1452  0.1250
23337W        W27737  14.449   1.140  21.347  0.1452  0.1108  0.0738
23338W        W27738  23.135   3.768  22.847  0.0440 -0.0379  0.1272
23339W        W27739   0.360   6.232  12.182 -0.1367 -0.0591 -0.0123
23340W        W27740   9.089   6.027  22.816 -0.2558 -0.1450 -0.2489
23341W        W27741   5.020   0.816  13.433 -0.2297  0.1505  0.0601
23342W        W27742  21.179   3.214  26.375  0.0574 -0.2529 -0.0797
23343W        W27743  16.045   2.546   5.182 -0.2385 -0.1524 -0.2294
23344W        W27744  12.064   5.284   1.534  0.1925  0.0818 -0.0344
23345W        W27745   7.861   5.480  35.330  0.1677 -0.1515  0.1019
23346W        W27746   4.994   5.058   4.063  0.0591 -0.0167 -0.0680
23347W        W27747  16.507   3.376  26.251  0.1279  0.0918 -0.0681
23348W        W27748   2.933   1.587  27.389 -0.1519 -0.0093 -0.1559
23349W        W27749   3.106   5.301  28.061  0.0395  0.1962  0.0704
23350W        W27750  18.111   2.080  12.449  0.1623  0.1043 -0.1201
23351W        W27751  21.150   3.411  30.955  0.1878 -0.0489  0.0159
23352W        W27752   6.925   0.931   9.416  0.1188  0.1853 -0.1382
23353W        W27753  14.564   4.789  29.355 -0.0369  0.0322 -0.1340
23354W        W27754  22.552   0.151  29.581 -0.0109  0.1744  0.0751
23355W        W27755   0.757   6.152  34.280  0.1002 -0.0341  0.3659
23356W        W27756   2.655   0.625   5.556  0.0573 -0.2644 -0.3399
23357W        W27757  22.345   1.797   5.057  0.1185  0.3754  0.3265
23358W        W27758   3.326   1.085  30.402  0.0731 -0.0406  0.0581
23359W        W27759  12.451   1.082  21.868 -0.2584  0.3235 -0.2446
23360W        W27760   3.611   3.576  13.098 -0.0230 -0.2209  0.1417
23361W        W27761   3.144   2.292  23.070  0.1221 -0.3518 -0.1928
23362W        W27762  26.014   2.807   1.240  0.3138  0.1315  0.0896
23363W        W27763  24.058   5.793   2.671  0.0138 -0.0866 -0.4798
23364W        W27764  24.765   6.364  22.985  0.2176  0.3073  0.0298
23365W        W27765   9.777   4.989  25.906 -0.0351 -0.2180 -0.1229
23366W        W27766   5.686   5.870  13.911 -0.2274 -0.1250 -0.0428
23367W        W27767  20.113   0.915  24.763  0.1464  0.0916 -0.0686
23368W        W27768   9.448   1.190  31.617 -0.2933  0.1142  0.1889
23369W        W27769   9.928   2.505  35.340 -0.0822 -0.3209  0.1510
23370W        W27770   1.503   2.946  26.018  0.0598 -0.1890 -0.1956
23371W        W27771  15.162   3.772   6.657 -0.2210 -0.0552  0.1142
23372W        W27772  12.431   5.113   7.424 -0.4653 -0.1232 -0.1557
23373W        W27773  17.481   3.832  12.361 -0.2361 -0.0691 -0.0578
23374W        W27774   7.068   4.169   6.060  0.1700 -0.1547  0.0645
23375W        W27775   5.584   1.270  12.827  0.3315  0.4785 -0.0225
23376W        W27776   5.027   2.175  12.610 -0.2208  0.4230 -0.0762
23377W        W27777   6.177   5.039  35.690  0.1283 -0.1079  0.3608
23378W        W27778  21.450   1.323  35.355  0.1443 -0.6181 -0.1301
23379W        W27779  19.226   3.373  25.924 -0.0316  0.0624 -0.0566
23380W        W27780  10.517   1.245   1.146 -0.0257  0.0724  0.3097
23381W        W27781  13.768   3.046  23.750 -0.4875  0.2474 -0.0558
23382W        W27782  15.405   0.715  11.898  0.0049  0.1442 -0.0099
23383W        W27783   1.874   4.639  25.487 -0.0721  0.0366  0.0780
23384W        W27784   5.300   4.256  14.531  0.1661 -0.3514  0.0310
23385W        W27785   2.801   1.912  31.492 -0.3947 -0.1481 -0.2831
23386W        W27786  21.185   5.891   5.663 -0.1420 -0.3455  0.1377
23387W        W27787  23.768   4.082  24.490 -0.2298 -0.1539  0.2224
23388W        W27788  12.385   3.341   8.274 -0.0047  0.2955  0.0719
23389W        W27789  15.131   3.979  12.453  0.2878  0.1895  0.1102
23390W        W27790   1.907   5.045  12.776 -0.0175 -0.4192 -0.4177
23391W        W27791   8.655   0.610  30.718 -0.0406  0.3341 -0.0307
23392W        W27792   5.868   5.024  23.706 -0.1875  0.1775 -0.0906
23393W        W27793   3.606   3.404  33.999 -0.1393  0.4573 -0.1342
23394W        W27794  13.234   1.951  35.722 -0.1679 -0.2350  0.2035
23395W        W27795  23.529   0.763  32.366 -0.1288 -0.1390  0.1526
23396W        W27796  24.632   5.478  35.704  0.1678 -0.2003  0.2017
23397W        W27797   0.053   1.024  25.701  0.0182 -0.1455  0.3110
23398W        W27798  17.890   1.555  26.543 -0.1927  0.1691  0.2694
23399W        W27799  19.380   5.647  13.003 -0.0346 -0.3027  0.2196
23400W        W27800  18.480   3.987   6.024  0.2287  0.0188 -0.0250
23401W        W27801   6.883   2.675  32.522 -0.2066  0.4044  0.4959
23402W        W27802  17.966   4.318  11.210 -0.1097 -0.1146  0.2698
23403W        W27803  18.462   4.859  25.750  0.1176 -0.1533 -0.4032
23404W        W27804   5.031   6.329  30.767  0.0991 -0.3061 -0.0739
23405W        W27805   3.142   4.157  13.558  0.2049  0.0018 -0.2982
23406W        W27806  21.892   3.989  12.732  0.1074  0.1232 -0.2118
23407W        W27807  15.398   5.603  33.385  0.0476  0.0339  0.0702
23408W        W27808  18.625   1.468   5.742  0.2256 -0.0389 -0.1309
23409W        W27809  19.788   0.899  11.368  0.1129 -0.1428 -0.2276
23410W        W27810   1.311   1.529  32.714  0.2354  0.3242 -0.2612
23411W        W27811  16.146   1.180  24.289 -0.1216  0.1315  0.0316
23412W        W27812  11.324   6.537  33.543 -0.0710  0.1078 -0.2785
23413W        W27813   3.008   1.885   5.186  0.1131  0.2445  0.1142
23414W        W27814   6.697   2.998   4.992 -0.1863  0.1192 -0.2411
23415W        W27815   2.289   4.974  10.920 -0.1549  0.2322 -0.1835
23416W        W27816  23.415   6.019  23.346  0.0810  0.1409 -0.1597
23417W        W27817  25.720   2.455  24.042  0.0247 -0.0401 -0.0144
23418W        W27818  17.224   4.738  10.699 -0.1882 -0.2765  0.0005
23419W        W27819   1.996   0.856   8.777 -0.3271  0.2011  0.0276
23420W        W27820   6.320   1.623  23.399  0.1854 -0.0607 -0.0597
23421W        W27821   2.425   4.332  10.376 -0.1025 -0.1293 -0.0394
23422W        W27822   0.358   6.124  35.025  0.1143  0.0771 -0.0185
23423W        W27823   9.369   2.207   7.159 -0.1106 -0.0384  0.0216
23424W        W27824  12.232   2.719  12.202 -0.0745 -0.0465 -0.2025
23425W        W27825  25.244   5.342  13.191  0.1009  0.2940  0.1161
23426W        W27826  16.992   1.401  10.088 -0.1856 -0.1967  0.0808
23427W        W27827   4.445   0.966  31.312  0.1212 -0.2793 -0.0551
23428W        W27828  16.966   6.260   3.121 -0.0889  0.0866 -0.0458
23429W        W27829  25.482   3.283  30.931 -0.1554 -0.4007 -0.1935
23430W        W27830   2.809   2.140  13.027  0.1633  0.0154  0.1575
23431W        W27831  11.262   3.009   6.719 -0.0366 -0.0073 -0.0108
23432W        W27832  11.867   3.177  31.835 -0.3818  0.1159  0.2511
23433W        W27833   3.439   3.679   5.574  0.0288 -0.0264  0.2240
23434W        W27834  19.021   6.330   6.261 -0.3415  0.1352  0.2536
23435W        W27835  25.111   1.363  32.990  0.1835 -0.0916 -0.2307
23436W        W27836  23.261   4.694  23.384 -0.2270 -0.1829 -0.2849
23437W        W27837   1.369   3.375  32.117  0.2658 -0.1361  0.0866
23438W        W27838   7.593   3.868  23.580  0.2345  0.0203  0.1593
23439W        W27839   6.118   5.044   2.659 -0.0149 -0.2381  0.2079
23440W        W27840  19.190   1.963   3.246 -0.2368  0.1932  0.0956
23441W        W27841   1.200   4.267  14.820  0.2738 -0.0412 -0.1723
23442W        W27842  22.200   1.674  30.673 -0.2021 -0.1516  0.1694
23443W        W27843   5.330   6.383  25.188  0.1502  0.0260 -0.3667
23444W        W27844   9.445   5.383  13.281 -0.0830  0.1005  0.0831
23445W        W27845  16.266   5.914   0.228  0.1287 -0.1013 -0.1545
23446W        W27846  12.914   2.692   7.857 -0.2214  0.2062 -0.4030
23447W        W27847  15.183   2.950  30.668  0.2216  0.0230 -0.0659
23448W        W27848  21.668   3.964   9.564  0.0284  0.3510  0.0008
23449W        W27849   4.487   0.509  14.479 -0.1882  0.1714  0.0418
23450W        W27850   4.598   3.884  13.943 -0.1333 -0.3040 -0.0053
23451W        W27851   4.383   1.832   3.440 -0.0579  0.3777 -0.0146
23452W        W27852  21.086   0.467  23.379  0.2077 -0.1079  0.4986
23453W        W27853   5.570   5.586   0.603  0.2318 -0.3183 -0.3815
23454W        W27854   2.814   2.264  20.783  0.0399 -0.1922 -0.0270
23455W        W27855  11.017   6.212   3.859  0.0387 -0.0313  0.0866
23456W        W27856   5.542   4.501  21.816 -0.2687 -0.2127  0.1288
23457W        W27857  21.073   0.195  31.193  0.0118 -0.3560 -0.1189
23458W        W27858   5.136   4.187  30.842  0.1020 -0.2070  0.3243
23459W        W27859   0.274   5.476  34.171  0.2181  0.0399 -0.1663
23460W        W27860   9.317   4.303  34.994  0.1296 -0.1870  0.0743
23461W        W27861  21.562   6.062  13.267  0.1127  0.0411 -0.0773
23462W        W27862  21.639   0.147  22.205  0.1988 -0.4052 -0.1055
23463W        W27863  13.121   1.903   2.401  0.3596  0.1015  0.1021
23464W        W27864  16.238   1.819   5.474  0.1413  0.1443 -0.0524
23465W        W27865   9.029   4.454   9.969 -0.0865 -0.0089  0.1982
23466W        W27866   6.062   5.467  31.793  0.0007 -0.1042 -0.0472
23467W        W27867   7.936   5.891  25.040 -0.1343  0.1047 -0.1249
23468W        W27868   5.896   3.284  22.261  0.0709  0.1947  0.0983
23469W        W27869  21.019   1.368   0.157 -0.1697  0.0529  0.0335
23470W        W27870  17.356   2.489  10.317  0.0664 -0.0523  0.0441
23471W        W27871  19.712   0.587   0.892  0.1568 -0.0591 -0.1257
23472W        W27872   7.129   2.249   6.847  0.3577  0.1166  0.1543
23473W        W27873   6.228   3.260   9.596 -0.0251 -0.2451  0.0277
23474W        W27874  13.201   2.575  14.998  0.2779 -0.1474 -0.2864
23475W        W27875   5.164   4.572   4.100  0.0876  0.0939  0.0913
23476W        W27876  24.239   2.366   6.090  0.0296 -0.1184  0.0843
23477W        W27877  16.579   3.295  27.399 -0.2197  0.1005  0.0559
23478W        W27878   8.746   0.586  21.082 -0.0986 -0.1271 -0.0638
23479W        W27879   2.084   1.428   9.690 -0.1910  0.0616 -0.1290
23480W        W27880   5.807   6.453  26.268  0.0238 -0.0270  0.1058
23481W        W27881  26.311   0.881  13.185 -0.0384 -0.0240 -0.0070
23482W        W27882  14.235   6.186  11.523 -0.1920 -0.0467 -0.3161
23483W        W27883  13.144   6.040  34.139  0.5663 -0.0743 -0.3092
23484W        W27884  10.163   3.388  32.801  0.0615 -0.1495 -0.2049
23485W        W27885  16.228   2.621  12.457  0.0063  0.0123 -0.2188
23486W        W27886  15.976   4.468  13.530 -0.1735  0.1944 -0.4248
23487W        W27887  17.196   3.012  34.720 -0.0049 -0.2250  0.0181
23488W        W27888  20.626   5.870  15.259 -0.1640  0.2557 -0.1019
23489W        W27889   3.452   1.580  28.561  0.3502  0.0221 -0.0766
23490W        W27890  25.348   4.174  20.717 -0.0459 -0.0906 -0.0010
23491W        W27891  18.256   0.141  35.543  0.1336 -0.0394  0.0035
23492W        W27892  12.046   4.398  34.932  0.1786  0.0953  0.1742
23493W        W27893  14.865   5.137   4.253 -0.2221  0.1522 -0.1648
23494W        W27894   4.795   2.822   1.364 -0.0237 -0.0249 -0.0844
23495W        W27895   3.442   3.464  22.107  0.0892 -0.0989 -0.1197
23496W        W27896  17.225   2.410   1.104 -0.4400 -0.0130 -0.0143
23497W        W27897  23.443   1.276  31.697  0.0799 -0.0243 -0.1235
23498W        W27898  23.419   3.549  35.816  0.0138  0.1196 -0.0079
23499W        W27899   4.729   2.589  26.753 -0.0333  0.0284 -0.3821
23500W        W27900  17.739   4.513   0.030  0.1140 -0.3645  0.0524
23501W        W27901   4.523   3.805  24.600 -0.1317  0.0664 -0.3265
23502W        W27902  16.195   0.657   1.386  0.0574 -0.2667  0.0625
23503W        W27903  18.178   1.437  21.966 -0.1231  0.1965 -0.0630
23504W        W27904  24.793   5.683  29.770 -0.1439  0.2747 -0.1224
23505W        W27905  13.405   4.946   5.130  0.0463 -0.0518 -0.0733
23506W        W27906   7.752   2.007  23.443 -0.1108  0.1213  0.1639
23507W        W27907  21.718   1.148  33.198  0.1775  0.0055  0.1115
23508W        W27908  18.317   5.607  31.338 -0.1316 -0.1933  0.1365
23509W        W27909  20.855   0.897  32.080  0.2020 -0.1082  0.0678
23510W        W27910   7.616   3.582  25.811  0.1726  0.1426 -0.2048
23511W        W27911  14.709   1.016   8.370 -0.1319 -0.0945  0.0658
23512W        W27912   7.438   0.158   6.956 -0.0263 -0.0463 -0.4077
23513W        W27913   1.463   5.866   1.759 -0.0538  0.1211 -0.3899
23514W        W27914  12.288   2.280  33.227  0.0144  0.1414 -0.3977
23515W        W27915  11.507   1.706   1.012 -0.1811 -0.0120  0.1683
23516W        W27916  23.629   3.938  29.551  0.0451 -0.1147  0.0995
23517W        W27917  14.616   3.150  33.333  0.0800  0.3266 -0.0967
23518W        W27918   0.693   5.011  15.002  0.0710  0.0136  0.3815
23519W        W27919   7.397   0.346   9.979  0.2170  0.0024  0.0996
23520W        W27920  14.465   0.675  21.147 -0.0108 -0.1304 -0.1753
23521W        W27921  11.925   5.345  20.443 -0.0311  0.0930 -0.1770
23522W        W27922  24.014   0.412  27.857 -0.0255 -0.2040  0.1198
23523W        W27923  22.337   2.368  10.952  0.2115  0.1670  0.3442
23524W        W27924  19.155   3.733   9.092  0.1057 -0.0758 -0.0480
23525W        W27925  12.734   1.421  12.764  0.1104  0.0421  0.0370
23526W        W27926   7.680   0.077  32.536  0.0713 -0.3269 -0.1779
23527W        W27927   2.143   4.728   3.893 -0.1469  0.0442 -0.1362
23528W        W27928  24.661   4.652  32.160  0.0636 -0.0699  0.2636
23529W        W27929   7.326   4.491  20.328 -0.0190  0.0457  0.1272
23530W        W27930   2.673   5.859   5.721 -0.0718 -0.1531 -0.2497
23531W        W27931   0.046   3.420   2.972 -0.0300  0.0811  0.2521
23532W        W27932  14.695   4.637   4.941  0.0070 -0.0445  0.0790
23533W        W27933  25.268   2.968  27.323  0.0245 -0.0504  0.0879
23534W        W27934  11.213   5.364  25.625 -0.0525  0.0169  0.1403
23535W        W27935   2.322   0.362  31.622  0.3185  0.1547 -0.0209
23536W        W27936   8.989   5.192   5.324  0.0630  0.1328 -0.0095
23537W        W27937  18.699   5.091   2.396  0.3525 -0.0867  0.1335
23538W        W27938   8.421   3.165  23.470 -0.0484 -0.2637  0.0881
23539W        W27939   6.808   1.941   8.784  0.0934  0.1184 -0.1683
23540W        W27940  21.928   2.926  24.860  0.0190 -0.1869 -0.0865
23541W        W27941  16.239   2.078  28.439  0.2239 -0.2927 -0.0902
23542W        W27942  15.647   3.824  27.645 -0.1193 -0.0343 -0.0866
23543W        W27943  21.657   1.900   0.802  0.0322 -0.0018  0.0358
23544W        W27944  23.395   4.973  32.546  0.0800  0.1213  0.1156
23545W        W27945   9.770   5.415  24.758  0.0674 -0.0538  0.0105
23546W        W27946  19.811   3.504   9.625  0.0320 -0.1238  0.0487
23547W        W27947  22.709   6.495  23.043  0.2147 -0.0710  0.1264
23548W        W27948  10.275   0.617  30.223  0.0259 -0.0170  0.2076
23549W        W27949   3.422   5.329  33.323 -0.1653 -0.1578 -0.0355
23550W        W27950  10.765   3.460   1.942  0.1138 -0.1370 -0.0464
23551W        W27951   3.456   3.457  30.057  0.1704 -0.2028 -0.1110
23552W        W27952  17.417   0.069  30.047 -0.3172 -0.1312  0.1400
23553W        W27953  22.027   5.925  14.241 -0.0461 -0.0477 -0.0762
23554W        W27954  21.702   4.437   9.464  0.0272 -0.3578  0.0031
23555W        W27955  21.100   2.754  32.231  0.1192  0.1118  0.0356
23556W        W27956   8.776   5.371   4.830 -0.1951 -0.1630  0.3212
23557W        W27957  21.331   4.621  33.779 -0.1723 -0.1346 -0.1110
23558W        W27958  14.416   3.250  24.259  0.0639  0.2025 -0.1502
23559W        W27959  22.982   5.055  12.072  0.1173  0.0077 -0.3824
23560W        W27960   6.441   2.087  15.421  0.1437  0.2819 -0.1840
23561W        W27961   4.282   6.246  32.977 -0.0567 -0.1291 -0.3041
23562W        W27962  20.363   2.469  21.619 -0.1074  0.2314  0.0635
23563W        W27963  26.293   5.562  32.136 -0.1784 -0.1493  0.0580
23564W        W27964  19.728   2.727   2.910 -0.0448 -0.0079 -0.3055
23565W        W27965  14.478   4.587  24.506 -0.1652 -0.2060  0.1762
23566W        W27966   2.986   5.027   5.754 -0.1586 -0.0150  0.1362
23567W        W27967   8.499   0.505  26.734  0.0017 -0.2866  0.2962
23568W        W27968   8.674   2.220  22.957 -0.3906  0.1798  0.0165
23569W        W27969  21.919   3.199  27.680 -0.1813  0.0016 -0.0657
23570W        W27970  13.694   3.665  36.004  0.1725 -0.0320 -0.1442
23571W        W27971   1.152   6.174  31.554  0.0062 -0.4125  0.0478
23572W        W27972  13.027   4.979  32.283 -0.2555 -0.1173 -0.3424
23573W        W27973  16.811   0.537  13.950 -0.0645 -0.0012  0.1438
23574W        W27974   4.889   6.365   6.907 -0.0884 -0.0080  0.2745
23575W        W27975  13.759   6.156  35.259  0.2630  0.0632 -0.2006
23576W        W27976   5.758   5.680  32.625  0.3341 -0.0606  0.4159
23577W        W27977  19.813   2.651   1.947  0.1117  0.2605 -0.1783
23578W        W27978   1.228   3.138  24.615 -0.0163 -0.0624 -0.2013
23579W        W27979  10.966   0.406  24.884 -0.1222 -0.0417 -0.2785
23580W        W27980   3.612   6.466  21.450 -0.0119  0.4055 -0.0873
23581W        W27981  10.147   1.976  35.478  0.4391  0.1479 -0.1935
23582W        W27982  25.228   1.251  23.667  0.0517  0.2884 -0.3407
23583W        W27983  15.635   3.756   4.270  0.1902  0.2641 -0.2191
23584W        W27984   8.551   3.846   5.198  0.0306  0.2597  0.1672
23585W        W27985   1.052   3.151  28.186 -0.2388 -0.2251 -0.2753
23586W        W27986   4.318   4.634  34.868  0.1598  0.0283  0.1597
23587W        W27987  24.159   1.032   1.246 -0.3167 -0.0396  0.1296
23588W        W27988   2.912   1.049  11.868  0.0793  0.0479 -0.0679
23589W        W27989   7.876   2.792  10.818 -0.0844  0.0758  0.1294
23590W        W27990  21.865   0.756  33.565  0.1331  0.2091 -0.0190
23591W        W27991   0.928   2.947  34.269  0.0358 -0.1128 -0.3333
23592W        W27992  15.272   0.250  21.352 -0.1487 -0.1266 -0.1821
23593W        W27993  23.905   1.808   6.811 -0.1297 -0.1341  0.0870
23594W        W27994   1.989   1.837  13.658  0.2261 -0.0262 -0.1516
23595W        W27995   0.325   3.972  28.973 -0.0624 -0.3914  0.0784
23596W        W27996   7.821   1.475   4.714 -0.1716  0.1489  0.0568
23597W        W27997  12.416   3.183  22.192 -0.0900 -0.1738  0.1659
23598W        W27998   9.828   0.822  15.272 -0.0663  0.0120  0.2589
23599W        W27999   1.823   4.851  26.695  0.0892 -0.1459  0.1549
23600W        W28000   9.476   2.265  25.373 -0.2050 -0.0103 -0.1124
23601W        W28001  20.489   1.130  31.712 -0.1515  0.0881 -0.1621
23602W        W28002   5.223   5.262   8.405  0.1701 -0.3073 -0.1345
23603W        W28003   5.164   4.897  30.240  0.1300  0.0035  0.6508
23604W        W28004   7.110   2.281  27.398 -0.1044  0.0685  0.2170
23605W        W28005   4.193   3.096   7.492 -0.0758 -0.1070  0.0440
23606W        W28006   6.706   1.894  21.420  0.0647 -0.0314  0.0256
23607W        W28007  22.966   0.531   3.638  0.2578 -0.3037 -0.0567
23608W        W28008  13.414   0.870  35.979 -0.0975 -0.1091 -0.0552
23609W        W28009   0.658   4.381  30.810  0.1755  0.0527  0.2374
23610W        W28010   0.244   3.786  34.328 -0.2508  0.2499  0.3201
23611W        W28011  21.918   3.679   1.946  0.0329 -0.2305  0.1603
23612W        W28012  23.670   5.641  23.577  0.1865 -0.1677  0.0580
23613W        W28013   2.498   4.020  10.908  0.1334 -0.3554 -0.0226
23614W        W28014  10.166   4.175   1.949 -0.0224  0.0659  0.1806
23615W        W28015  18.359   1.227   6.711  0.0670 -0.0584  0.1202
23616W        W28016  26.339   2.015  15.387  0.2707  0.1227  0.0454
23617W        W28017  11.113   6.162  27.040  0.1793 -0.0003  0.2245
23618W        W28018   5.178   2.499  30.839 -0.1569 -0.3011 -0.0873
23619W        W28019  11.250   4.983   8.118  0.3368 -0.0831 -0.2086
23620W        W28020   6.744   5.874   4.532  0.1360 -0.1357  0.0298
23621W        W28021   0.552   6.273   4.428  0.0574 -0.2487  0.0093
23622W        W28022   9.531   2.140  12.889 -0.1359  0.2040 -0.1077
23623W        W28023  18.326   0.076  27.292  0.1448  0.3105 -0.0278
23624W        W28024   3.725   4.472  30.493 -0.3260  0.0349  0.0709
23625W        W28025  18.248   1.154  34.184 -0.1365 -0.1013 -0.0925
23626W        W28026  14.960   4.046  28.849  0.1500 -0.0243 -0.0843
23627W        W28027  21.780   3.565  22.525  0.2157 -0.2254  0.0020
23628W        W28028   6.247   3.301  35.055  0.1568 -0.2302  0.0209
23629W        W28029  18.825   2.861   1.530  0.1205  0.0611 -0.1124
23630W        W28030  13.499   1.838  20.891  0.4443 -0.1134  0.2892
23631W        W28031  26.377   1.840  26.392 -0.0022  0.1403  0.0690
23632W        W28032   9.481   6.213   3.825  0.0939  0.2312  0.1648
23633W        W28033  17.238   2.062  23.383  0.0737  0.1873  0.3162
23634W        W28034  16.065   5.639  31.719 -0.1307 -0.2697  0.0999
23635W        W28035  11.059   6.376  23.525 -0.3358 -0.1202  0.3480
23636W        W28036   9.916   3.808   9.938  0.2852  0.3562 -0.0302
23637W        W28037   1.258   3.426  35.165  0.1894  0.2884  0.1372
23638W        W28038   7.501   0.975   4.653 -0.1165 -0.3316 -0.1096
23639W        W28039  23.768   4.570  24.783  0.1111  0.1291  0.0635
23640W        W28040   1.165   1.534  14.822 -0.0322 -0.0479  0.0857
23641W        W28041   6.911   3.856  11.533 -0.1258 -0.0843  0.1273
23642W        W28042  20.239   0.968  32.960 -0.0518 -0.0653 -0.0596
23643W        W28043   2.046   1.861  28.654 -0.0046  0.0460  0.0125
23644W        W28044  11.598   1.993  10.858  0.2782 -0.1133 -0.0156
23645W        W28045   7.132   1.180  13.763  0.1740 -0.1285  0.0410
23646W        W28046  23.987   1.849  22.506 -0.2983  0.2077  0.0560
23647W        W28047   9.589   4.872  25.360  0.0129 -0.2132 -0.0116
23648W        W28048  10.118   1.307   7.787  0.1186 -0.3517 -0.0224
23649W        W28049  23.909   3.559   2.387  0.1054  0.0355  0.1577
23650W        W28050   6.057   5.239  30.981  0.0263 -0.2190 -0.1713
23651W        W28051  21.007   4.165   8.170 -0.2095 -0.0465  0.0051
23652W        W28052   1.688   1.250  24.238 -0.0046 -0.1611 -0.1090
23653W        W28053   8.279   5.899  15.557  0.1619  0.0021 -0.1430
23654W        W28054  23.525   1.169  29.694 -0.1799 -0.3490 -0.1553
23655W        W28055  14.780   2.969   0.292 -0.1223 -0.0150 -0.1913
23656W        W28056   9.062   5.293  32.538 -0.2465 -0.2832 -0.0680
23657W        W28057  15.431   5.592   2.227 -0.1454  0.2559 -0.0878
23658W        W28058   7.704   0.277  33.030 -0.0144 -0.0984 -0.0089
23659ION     NA28059  11.984   4.429   0.640  0.1230  0.2673 -0.4789
23660ION     NA28060  21.678   3.696   3.461  0.0193  0.0385 -0.4528
23661ION     NA28061  17.453   3.929   1.568  0.0659  0.0326  0.1311
23662ION     NA28062   0.831   1.140  13.129 -0.3374  0.1238 -0.3274
23663ION     NA28063   1.125   3.641   4.418  0.0771  0.4383 -0.3517
23664ION     NA28064  11.213   1.143   0.109  0.1884 -0.2545  0.1460
23665ION     NA28065   0.875   0.876  14.892  0.0003 -0.0152  0.1014
23666ION     NA28066   2.308   5.543   5.016 -0.3893 -0.1790  0.4527
23667ION     NA28067   3.400   6.597  15.076  0.0372  0.2905  0.1269
23668ION     NA28068  11.300   2.408   6.034  0.0332  0.0289  0.0110
23669ION     NA28069   7.771   1.395  14.304  0.0170  0.0751 -0.2211
23670ION     NA28070  16.486   3.912   3.370  0.0001 -0.2376 -0.0307
23671ION     NA28071  17.220   2.389  14.331  0.2649  0.4438 -0.2040
23672ION     NA28072   6.146   1.706  12.032 -0.1328  0.1249 -0.0545
23673ION     NA28073   7.165   2.786   8.635 -0.2640  0.3565 -0.6814
23674ION     NA28074  25.086   1.173  21.243  0.1338 -0.1232 -0.3164
23675ION     NA28075   1.053   4.828  30.125 -0.2030 -0.3914  0.0013
23676ION     NA28076  20.830   4.203  10.833 -0.2586 -0.2046  0.4100
23677ION     NA28077  24.729   1.458  12.820  0.4129  0.2582  0.2613
23678ION     NA28078   2.803   5.418  30.464  0.1951 -0.0264  0.2266
23679ION     NA28079  20.286   3.807   2.820  0.1090 -0.2330  0.0768
23680ION     NA28080   9.281   6.011  34.346 -0.1929  0.4565 -0.2591
23681ION     NA28081   4.288   0.795   9.111 -0.1230  0.0546  0.2291
23682ION     NA28082   7.326   0.970  35.524 -0.2396  0.5308 -0.1751
23683ION     NA28083   6.278   1.073   8.332 -0.1328 -0.3284 -0.0609
23684ION     NA28084  13.469   3.159   6.407 -0.5259 -0.0172  0.1836
23685ION     NA28085   4.322   0.501  15.339  0.2037 -0.3544 -0.2224
23686ION     NA28086   3.291   2.798  11.794 -0.1407 -0.1554 -0.1505
23687ION     NA28087  21.394   3.743  14.662  0.1597 -0.2162 -0.2248
23688ION     NA28088   5.235   0.533   3.009 -0.0667 -0.5686  0.2806
23689ION     NA28089  21.509   2.197  26.810 -0.4959  0.2740 -0.0548
23690ION     NA28090  15.120   6.509   9.283 -0.4143  0.1996  0.1575
23691ION     NA28091  21.733   0.693  20.696  0.0831 -0.0223 -0.2081
23692ION     NA28092  12.866   5.968  27.448 -0.6749 -0.0109  0.0867
23693ION     NA28093  20.721   2.091   6.581 -0.2498  0.0062 -0.5140
23694ION     NA28094   0.386   2.323  35.919 -0.3132  0.1771  0.0908
23695ION     NA28095  13.020   5.989   8.767 -0.2503 -0.0057  0.4532
23696ION     NA28096  12.094   6.577  28.818 -0.2291  0.2011 -0.1940
23697ION     NA28097   9.004   1.994   7.125  0.4652 -0.1485  0.0045
23698ION     NA28098  15.857   2.940  12.385  0.0776  0.0897 -0.7777
23699ION     NA28099  11.561   1.578  30.030 -0.1767  0.1398 -0.1649
23700ION     NA28100   4.775   2.643   0.567  0.0940 -0.2007  0.3566
23701ION     NA28101   0.670   3.657  34.070  0.5197  0.0880  0.1678
23702ION     NA28102   2.444   0.960  11.780  0.2010  0.3177 -0.3740
23703ION     NA28103  11.927   3.872  14.518 -0.1412  0.0903 -0.0994
23704ION     NA28104  20.181   1.932   7.564  0.3937 -0.2217 -0.1815
23705ION     NA28105  24.123   4.980  27.054  0.2954 -0.4610 -0.5195
23706ION     NA28106   1.124   4.372  28.484 -0.1221 -0.2137  0.0201
23707ION     NA28107  10.025   2.384  11.885  0.0917 -0.1906 -0.3344
23708ION     NA28108   6.706   0.703   6.919  0.2729 -0.0999  0.0838
23709ION     NA28109  22.615   4.311   4.461 -0.0967  0.5866 -0.0540
23710ION     NA28110  17.054   4.605   2.673 -0.3756  0.0160 -0.0689
23711ION     NA28111  14.031   2.199  15.817 -0.1003  0.2363  0.1370
23712ION     NA28112   5.945   5.255  25.737  0.1505 -0.2659  0.2869
23713ION     NA28113   5.223   4.044  24.631  0.0295 -0.0619  0.0698
23714ION     NA28114   0.454   2.303  30.166 -0.1277 -0.1174 -0.5067
23715ION     NA28115   3.238   6.326  24.523 -0.4529 -0.1576  0.5142
23716ION     NA28116  23.120   3.782  34.995  0.5164 -0.2438 -0.0191
23717ION     NA28117  11.704   1.061  27.941  0.1551  0.0533  0.0249
23718ION     NA28118  16.157   5.075  27.058  0.2883 -0.2293  0.5312
23719ION     NA28119   2.127   5.838  31.880  0.0452  0.0582  0.1576
23720ION     NA28120   6.707   4.924   1.967 -0.4580 -0.0289 -0.0871
23721ION     NA28121   7.508   4.185  20.543 -0.1979 -0.0084  0.2157
23722ION     NA28122   4.338   0.396   6.898  0.0340  0.3237  0.1276
23723ION     NA28123  13.525   2.865  29.441  0.0866  0.0688  0.1343
23724ION     NA28124  13.807   5.228  23.643  0.1439  0.0049  0.0371
23725ION     NA28125  15.466   3.924  11.865 -0.1897  0.2942 -0.0136
23726ION     NA28126   1.241   0.521   4.989  0.1467 -0.2765  0.0315
23727ION     NA28127   1.956   5.904  12.422 -0.1364  0.0825 -0.0439
23728ION     NA28128  21.166   3.084  31.351 -0.3160 -0.0886 -0.2196
23729ION     NA28129  14.186   2.184  25.555  0.1358  0.2068 -0.3010
23730ION     NA28130   7.050   1.611   1.049  0.0322  0.1354  0.0870
23731ION     NA28131   0.553   0.742   5.417  0.1234 -0.4240  0.0625
23732ION     NA28132  19.078   5.981  24.463 -0.0678  0.3875 -0.2288
23733ION     NA28133   4.920   2.584   8.244 -0.0159 -0.4057 -0.3759
23734ION     NA28134   7.673   0.277  28.701  0.4214 -0.3916  0.1010
23735ION     NA28135  23.191   5.591  20.347 -0.0607 -0.0593 -0.1826
23736ION     NA28136   4.141   4.967  10.024 -0.3499  0.3894  0.0203
23737ION     NA28137   4.106   5.292  12.341  0.2318  0.2012  0.1673
23738ION     NA28138  20.062   4.318  12.264 -0.2915  0.0458 -0.0578
23739ION     NA28139  21.881   1.887   7.908  0.0786  0.3090 -0.1008
23740ION     NA28140  19.999   2.324  15.357  0.0398 -0.1991  0.0911
23741ION     NA28141   8.177   4.422  24.639 -0.2912  0.1495  0.6085
23742ION     NA28142  17.304   3.000  10.279 -0.0329 -0.3274  0.0671
23743ION     NA28143   4.277   0.994   6.467 -0.2680 -0.1641 -0.2482
23744ION     NA28144  25.566   2.644   7.609 -0.3787  0.0674  0.0359
23745ION     NA28145   9.626   0.196   1.845 -0.0381  0.0558  0.0675
23746ION     NA28146  11.986   1.061  30.026  0.1179  0.0595 -0.2892
23747ION     NA28147   5.630   4.150   6.043  0.0292 -0.0885 -0.1693
23748ION     NA28148   7.606   0.987   8.941 -0.0767 -0.2330 -0.2471
23749ION     NA28149   6.241   6.219  11.634  0.1967  0.1756  0.1341
23750ION     NA28150   4.005   4.682   7.544  0.1323 -0.1794 -0.0928
23751ION     NA28151  13.227   3.072  23.955  0.0665 -0.1185 -0.0645
23752ION     NA28152  15.723   5.915  28.267  0.0108  0.0019  0.1003
23753ION     NA28153   5.641   6.298   8.425 -0.0250  0.0926  0.0748
23754ION     NA28154  20.000   4.633  29.214 -0.1620  0.0863 -0.0963
23755ION     NA28155  17.990   3.147  30.164 -0.1791 -0.2275  0.0874
23756ION     NA28156   9.149   3.382  23.666 -0.1195  0.0736  0.1393
23757ION     NA28157  13.150   1.532   1.667  0.2308  0.2302  0.1047
23758ION     NA28158   5.309   6.033  12.615 -0.4593 -0.7450 -0.3030
23759ION     NA28159  23.116   3.324  27.049  0.1968  0.0431  0.5348
23760ION     NA28160  24.469   3.174  14.604 -0.2344 -0.0220  0.1663
23761ION     NA28161   6.311   4.326  26.733 -0.2514  0.3759  0.1416
23762ION     NA28162   0.599   1.720   0.364 -0.1441 -0.0539  0.2266
23763ION     NA28163   7.588   1.972  32.853  0.0311  0.0817  0.1018
23764ION     NA28164   4.719   0.711  12.590  0.4284 -0.1115  0.1728
23765ION     NA28165  11.914   0.840  25.405 -0.2614  0.2026  0.0595
23766ION     NA28166   2.857   1.204   5.035 -0.2185 -0.2730 -0.4096
23767ION     NA28167  26.079   0.167   9.178  0.1210  0.2938  0.0093
23768ION     NA28168   4.790   3.890   5.579 -0.0376 -0.5243 -0.0319
23769ION     NA28169  17.998   3.427  34.947 -0.1260 -0.2254  0.0601
23770ION     NA28170   9.023   4.784   7.694 -0.1710 -0.1532  0.0080
23771ION     NA28171   4.103   3.954  35.415 -0.0941  0.1745  0.2486
23772ION     NA28172   0.753   6.292  15.348 -0.6354 -0.5509  0.3928
23773ION     NA28173   1.427   5.678  14.879  0.2774 -0.1167  0.0365
23774ION     NA28174   3.045   4.649  22.049  0.2998  0.1303 -0.3634
23775ION     NA28175  22.477   0.775  11.451  0.4570  0.3325 -0.1530
23776ION     NA28176  10.747   0.481  34.818  0.0597  0.1218  0.1512
23777ION     NA28177  23.458   2.187   0.172 -0.3632 -0.3953  0.0206
23778ION     NA28178  15.817   5.234  13.484 -0.2588  0.1908 -0.1086
23779ION     NA28179  16.180   0.338  10.425 -0.0123  0.2578  0.0079
23780ION     NA28180  14.342   1.060  34.910 -0.0421 -0.1951 -0.0701
23781ION     NA28181  19.055   4.288  34.075  0.0805  0.3311  0.2769
23782ION     NA28182   4.782   0.923  15.615 -0.2985  0.4802 -0.2748
23783ION     NA28183  22.596   5.657   4.809  0.1617  0.0589  0.0213
23784ION     NA28184   2.611   4.521   1.161  0.0881  0.1148 -0.0057
23785ION     NA28185  15.312   3.508  14.067 -0.4253  0.3214 -0.2564
23786ION     NA28186  21.915   4.810   3.000  0.0000 -0.4332 -0.4641
23787ION     NA28187  21.833   3.389  33.302  0.2227  0.0974 -0.2929
23788ION     NA28188   0.710   4.905  27.545  0.1732  0.0833 -0.2942
23789ION     NA28189  24.635   1.261   7.224 -0.0770  0.1929 -0.2195
23790ION     NA28190  15.541   5.415  22.981  0.4756  0.0489  0.0724
23791ION     NA28191  12.076   2.207  28.939  0.5615 -0.0200 -0.0725
23792ION     NA28192  21.074   5.433   1.964  0.0474  0.1702 -0.0372
23793ION     NA28193  12.085   3.234  12.870  0.3032  0.3373 -0.1899
23794ION     NA28194  14.906   3.955   2.766 -0.0599  0.1426  0.3153
23795ION     NA28195  10.124   3.030   3.661 -0.0781 -0.1288 -0.2053
23796ION     NA28196  22.968   6.153  28.481 -0.1054  0.0594 -0.2666
23797ION     NA28197  17.031   1.966   7.066 -0.2017  0.1262 -0.0943
23798ION     NA28198  25.492   5.249   1.615 -0.3392  0.0544 -0.0055
23799ION     NA28199   3.466   3.500  28.499 -0.0781 -0.0362 -0.3790
23800ION     NA28200  20.312   0.770  30.982 -0.3827  0.2375 -0.1857
23801ION     NA28201   2.082   3.378  28.308  0.3219  0.0205  0.7214
23802ION     NA28202  14.158   2.658  31.658  0.2765 -0.3408 -0.0778
23803ION     NA28203   8.824   5.396  24.499 -0.0342 -0.1365 -0.1412
23804ION     NA28204   0.230   0.841  15.468  0.3578 -0.3082  0.0261
23805ION     NA28205  14.800   5.225  12.306  0.3296 -0.3773 -0.1943
23806ION     NA28206   5.324   6.437  24.581  0.2823  0.5529  0.0359
23807ION     NA28207   1.676   5.099  31.546  0.0604 -0.0195 -0.1659
23808ION     NA28208   4.611   4.839  20.742 -0.2508  0.2088  0.1247
23809ION     NA28209  20.347   3.527  31.270 -0.0080  0.1793  0.3835
23810ION     NA28210   0.295   0.912  11.733 -0.1713  0.0209 -0.3595
23811ION     NA28211   2.167   3.322  24.157  0.1499  0.1327  0.1211
23812ION     NA28212   6.320   3.883   0.958 -0.0677  0.0340  0.0557
23813ION     NA28213  17.233   1.167  27.286  0.1348  0.2217  0.1549
23814ION     NA28214   3.589   0.974  34.389 -0.4643  0.2747  0.0431
23815ION     NA28215  25.818   4.682   4.516  0.0193  0.3663  0.0507
23816ION     NA28216  12.313   2.381   3.777  0.0168 -0.4206  0.2073
23817ION     NA28217  16.492   4.627  21.699 -0.1563 -0.0752  0.1975
23818ION     NA28218  21.529   5.830  10.343  0.0867 -0.1089 -0.3496
23819ION     NA28219  11.025   2.238  24.520 -0.2011  0.0065 -0.0497
23820ION     NA28220  21.005   5.434  24.363  0.1907 -0.0291  0.0875
23821ION     NA28221  12.337   5.542   8.806  0.1965  0.2475  0.3098
23822ION     NA28222   0.234   2.141  23.276  0.2405  0.1718  0.0172
23823ION     NA28223   8.312   4.906   6.636 -0.0467 -0.0385 -0.0964
23824ION     NA28224  15.944   5.207  35.413 -0.3033  0.9885 -0.0178
23825ION     NA28225  14.148   5.365   1.249 -0.1200 -0.0719  0.2778
23826ION     NA28226   5.292   4.499  22.161 -0.0087 -0.0205  0.0576
23827ION     NA28227  19.704   3.141   5.694  0.5443 -0.0864 -0.0071
23828ION     NA28228  23.045   2.881   3.932 -0.1825  0.2755 -0.0984
23829ION     NA28229  11.169   1.198  15.793  0.0347  0.1210  0.6151
23830ION     NA28230   9.894   4.015  20.672 -0.1905  0.4048  0.3579
23831ION     NA28231  16.695   2.882   2.452 -0.4442 -0.0647  0.1500
23832ION     NA28232  19.612   5.491  28.786 -0.0429 -0.3774 -0.3228
23833ION     NA28233  19.433   2.905   7.448  0.4573  0.0213  0.5707
23834ION     NA28234  10.797   5.602  31.959 -0.4527  0.0417  0.4495
23835ION     NA28235   3.932   1.886  35.349  0.2365  0.0243  0.0663
23836ION     NA28236  16.901   0.471  30.997  0.1772  0.0696 -0.0332
23837ION     NA28237  18.899   2.421  28.491  0.1750 -0.5052 -0.6340
23838ION     NA28238  16.283   5.510  21.058  0.6071 -0.1718 -0.1485
23839ION     NA28239  12.328   5.490   2.950  0.2077  0.3651  0.0341
23840ION     NA28240   2.920   3.963   8.586  0.2501 -0.3544  0.2805
23841ION     NA28241  14.540   5.146  23.907 -0.4073  0.2932 -0.1197
23842ION     NA28242   3.904   4.946   1.324  0.0472 -0.4245  0.2493
23843ION     NA28243   3.455   6.047  15.830 -0.1975 -0.1896  0.1461
23844ION     NA28244  13.224   0.952  14.321  0.0366 -0.0203  0.2589
23845ION     NA28245  26.008   4.048  12.118 -0.1071  0.1272  0.1608
23846ION     NA28246   3.058   4.573   4.158 -0.0420 -0.0280 -0.2640
23847ION     NA28247   5.714   2.294   3.154 -0.0866  0.0066 -0.0898
23848ION     NA28248   9.407   3.411  12.874  0.3072 -0.3141  0.1330
23849ION     NA28249   7.546   2.502  11.073 -0.2403 -0.3411  0.1441
23850ION     NA28250  26.031   1.362  12.623  0.1205  0.3157  0.3927
23851ION     NA28251  17.532   5.704  33.675 -0.3381 -0.1662  0.0511
23852ION     NA28252   9.816   1.026   5.291 -0.0449  0.1014  0.2366
23853ION     NA28253  11.048   2.364  10.037 -0.1662  0.2315 -0.1099
23854ION     CL28254  24.307   3.639  33.598 -0.1047 -0.1399  0.5429
23855ION     CL28255  14.690   2.759  10.617  0.1781  0.2773  0.3227
23856ION     CL28256  16.367   2.357   6.647  0.0200 -0.1400 -0.0190
23857ION     CL28257   8.852   0.894  30.981  0.0767 -0.1810  0.0061
23858ION     CL28258  15.862   5.474  22.322 -0.0793 -0.2142 -0.0567
23859ION     CL28259  16.279   2.545  22.469  0.5104  0.0342 -0.0841
23860ION     CL28260  23.346   2.893  35.703 -0.6458 -0.5785 -0.0430
23861ION     CL28261  12.940   5.049  32.706  0.1392  0.0016 -0.1694
23862ION     CL28262   3.698   3.221  29.269  0.3102  0.1465  0.2694
23863ION     CL28263  19.463   5.014   2.687 -0.2412  0.2597  0.2288
23864ION     CL28264   7.703   2.898  22.344  0.0096 -0.1223  0.1982
23865ION     CL28265  24.257   3.739   1.182  0.2820  0.6822  0.1407
23866ION     CL28266   2.983   3.525  34.362  0.0791  0.3594  0.3337
23867ION     CL28267  21.153   2.322   6.981  0.0528 -0.2242 -0.2256
23868ION     CL28268  24.940   1.073  13.521 -0.0039  0.4034  0.2359
23869ION     CL28269  23.302   4.208  33.240  0.1149 -0.0182 -0.3411
23870ION     CL28270   9.882   4.492  12.073  0.2365  0.1704  0.3732
23871ION     CL28271  24.245   6.249  21.672  0.1987  0.2791 -0.2209
23872ION     CL28272  18.562   3.771  35.897  0.6551  0.3629  0.2479
23873ION     CL28273  19.902   5.301   4.627  0.0350  0.6673  0.0219
23874ION     CL28274   6.696   1.553   1.105  0.1455 -0.0027 -0.1606
23875ION     CL28275  11.299   4.992  23.322  0.3955  0.2030  0.2791
23876ION     CL28276  11.593   5.842  11.524  0.0608  0.5552  0.1032
23877ION     CL28277  24.683   2.717  35.944 -0.2539  0.2738  0.2162
23878ION     CL28278   2.735   1.302  23.401  0.1976 -0.2700  0.3072
23879ION     CL28279   3.945   1.635  10.888 -0.3418  0.0803  0.2767
23880ION     CL28280  11.509   1.948  24.595  0.3494  0.2169 -0.1374
23881ION     CL28281  22.244   0.040  34.329  0.0980 -0.1966 -0.1225
23882ION     CL28282  26.371   0.998   9.863 -0.2426 -0.1991  0.1429
23883ION     CL28283  13.568   2.544  22.595  0.1777 -0.1795  0.0065
23884ION     CL28284  18.626   3.953  12.944  0.2366  0.1672  0.0141
23885ION     CL28285   2.725   6.359  29.651 -0.0212  0.0203  0.1872
23886ION     CL28286   0.726   4.321   1.929 -0.3640 -0.1448 -0.0280
23887ION     CL28287  16.376   1.108  11.694  0.4550 -0.0204  0.1575
23888ION     CL28288  13.973   1.683  25.671  0.3778 -0.0199  0.0535
23889ION     CL28289   6.155   0.668   9.327  0.4386 -0.1835  0.1070
23890ION     CL28290   7.928   3.149  28.218 -0.1104 -0.0862  0.0962
23891ION     CL28291  11.987   5.237  12.492  0.0401  0.6755 -0.1338
23892ION     CL28292   1.357   2.913  12.580  0.1050 -0.3140  0.2744
23893ION     CL28293  16.262   3.985  21.860  0.1316 -0.0120 -0.0752
23894ION     CL28294   8.567   4.500  25.834  0.6553  0.3463 -0.0776
23895ION     CL28295  11.537   5.403  32.397  0.1048 -0.2978  0.0987
23896ION     CL28296  13.803   6.432  32.004  0.1118  0.0895  0.0146
23897ION     CL28297   8.639   0.949   7.311  0.1987 -0.0720 -0.4371
23898ION     CL28298  21.855   6.021  25.843  0.0785  0.0858 -0.2537
23899ION     CL28299  20.129   5.556  13.467  0.2036 -0.1205 -0.0880
23900ION     CL28300  19.822   3.141   7.844 -0.3819  0.0179 -0.0629
23901ION     CL28301  13.155   1.365   0.357 -0.5612 -0.2589 -0.2060
23902ION     CL28302   4.482   3.858   5.377 -0.1061  0.2272 -0.3117
23903ION     CL28303   9.188   3.072  30.590 -0.1441 -0.0583  0.2634
23904ION     CL28304  11.922   0.817  22.227 -0.0469 -0.2043 -0.1962
23905ION     CL28305  19.916   1.907   9.148 -0.2767 -0.3045  0.2561
23906ION     CL28306  26.298   5.974   7.180 -0.5092  0.0657 -0.0495
23907ION     CL28307  24.187   4.945  24.965 -0.0979 -0.2774  0.0311
23908ION     CL28308  16.075   0.996   0.412  0.3327  0.2789  0.2124
23909ION     CL28309  24.651   5.004  22.468  0.0494 -0.0238 -0.0927
23910ION     CL28310   8.115   3.275  23.791 -0.4409 -0.3304  0.1559
23911ION     CL28311  25.695   5.906   1.079  0.1235  0.2986 -0.3681
23912ION     CL28312   1.885   0.261  28.087  0.0377  0.1982 -0.1307
23913ION     CL28313   5.993   3.721  28.457  0.0397  0.0455 -0.0932
23914ION     CL28314   9.413   5.207   5.944  0.0186 -0.1044 -0.3647
23915ION     CL28315   2.743   0.824  11.543  0.0407 -0.0756  0.2261
23916ION     CL28316   4.023   3.697   6.403 -0.1053  0.1097 -0.0775
23917ION     CL28317  12.256   5.203  26.067 -0.2249 -0.3735  0.1909
23918ION     CL28318   6.062   0.632  11.029 -0.0309 -0.4877 -0.0643
23919ION     CL28319  24.548   4.282   0.332 -0.2098  0.0838  0.1576
23920ION     CL28320  16.675   2.738  28.956  0.6665 -0.1813  0.0423
23921ION     CL28321   6.904   3.057   6.909 -0.2451  0.0874 -0.3080
23922ION     CL28322  11.309   6.004  22.784 -0.2290  0.4147  0.1714
23923ION     CL28323  14.685   0.737  34.440 -0.2896  0.0699  0.4435
23924ION     CL28324  21.916   4.451  34.907 -0.0815 -0.5564  0.2048
23925ION     CL28325  21.130   3.351  23.988 -0.0909 -0.3141 -0.1156
23926ION     CL28326   9.771   6.487  33.105 -0.1960 -0.0160  0.3052
23927ION     CL28327  17.794   5.662  12.518 -0.4713 -0.1976 -0.1411
23928ION     CL28328   0.833   1.254   8.716 -0.1690 -0.1848  0.0435
23929ION     CL28329  17.567   1.188   2.280  0.2120 -0.5185  0.2465
23930ION     CL28330  21.175   2.051  12.518  0.0950  0.1019 -0.1929
23931ION     CL28331   4.513   2.220  26.863 -0.3580 -0.0266  0.1340
23932ION     CL28332  15.657   1.967  10.445 -0.0157 -0.1241  0.0810
23933ION     CL28333   8.719   4.317  33.266  0.1280 -0.0242  0.3258
23934ION     CL28334   2.655   4.589  30.626 -0.4533 -0.0063  0.0693
23935ION     CL28335  21.754   1.921   8.236 -0.4122 -0.4687 -0.0861
23936ION     CL28336   1.441   6.336  12.227 -0.2106 -0.1977  0.0263
23937ION     CL28337   6.457   4.083   8.358  0.0283 -0.3022 -0.4362
23938ION     CL28338  18.798   2.052   1.373 -0.3286  0.1996 -0.1657
23939ION     CL28339  21.506   0.595  12.447 -0.2810  0.4719 -0.1716
23940ION     CL28340   5.940   5.789  12.083  0.2190 -0.2635 -0.2674
23941ION     CL28341  16.379   0.053  10.454 -0.2254 -0.2047 -0.0265
23942ION     CL28342  23.228   5.524  28.276 -0.3158 -0.0068  0.0737
23943ION     CL28343   8.574   5.499   9.583  0.6641 -0.0099  0.1134
23944ION     CL28344   5.454   0.560  32.783  0.0706  0.3174  0.1397
23945ION     CL28345  11.887   1.223   9.596 -0.1448  0.1479 -0.1250
23946ION     CL28346  25.606   6.577  21.932 -0.3306  0.2088  0.0894
23947ION     CL28347  18.603   0.091   3.155  0.3296 -0.3652  0.1248
23948ION     CL28348  24.228   0.582   1.989 -0.3732  0.3082 -0.1925
23949ION     CL28349  21.443   4.996  35.397  0.0847  0.0437  0.2381
23950ION     CL28350  23.520   3.442  30.138  0.1038  0.0791  0.0026
23951ION     CL28351   5.414   5.426  21.514  0.1309 -0.3490  0.1223
23952ION     CL28352  26.020   2.035   6.467  0.2024  0.0302  0.2230
23953ION     CL28353   6.610   1.997   6.808 -0.4244 -0.3006  0.7320
23954ION     CL28354  12.448   2.509  28.482  0.5023  0.1602  0.1331
23955ION     CL28355  25.568   6.147  11.301  0.1029  0.2785  0.0712
23956ION     CL28356  24.993   5.767  25.659  0.3638 -0.0679  0.3309
23957ION     CL28357   3.120   5.091  27.659  0.5270 -0.1710 -0.1468
23958ION     CL28358  21.062   3.757   7.423  0.2527  0.3239  0.0464
23959ION     CL28359  13.043   2.423  25.107  0.0984 -0.1443 -0.2377
23960ION     CL28360  21.680   2.312  25.995 -0.0468  0.1956 -0.1529
23961ION     CL28361  24.343   4.048   7.344 -0.0957 -0.3672 -0.1565
23962ION     CL28362  14.776   4.888  24.159 -0.0241 -0.0461 -0.0499
23963ION     CL28363   4.758   6.097  21.490  0.0039  0.1653  0.0301
23964ION     CL28364  15.991   1.921   2.189 -0.0623 -0.2612  0.3251
23965ION     CL28365   5.718   3.874  30.124  0.0055  0.0239 -0.8758
23966ION     CL28366   4.540   2.619   6.553  0.5763 -0.0328  0.1310
23967ION     CL28367   8.574   4.805   7.344  0.0717 -0.1330 -0.4240
23968ION     CL28368  14.596   3.449  33.598 -0.2120  0.3978 -0.3204
23969ION     CL28369   6.664   5.593   7.256  0.0964  0.1699  0.0391
23970ION     CL28370   9.913   0.847  26.912  0.1036  0.0410  0.0531
23971ION     CL28371   0.355   1.069   5.390 -0.8020  0.1664  0.0630
23972ION     CL28372  15.004   4.978  36.003  0.3047  0.2362  0.3815
23973ION     CL28373  19.264   6.325  24.559  0.0192  0.0182  0.2489
23974ION     CL28374  22.163   1.047  33.803 -0.0495  0.3206 -0.1648
23975ION     CL28375  13.058   3.194   7.172 -0.1617  0.3251 -0.2411
23976ION     CL28376  12.696   5.131   3.353  0.0769  0.0396  0.1855
23977ION     CL28377   7.144   2.051  34.216 -0.4489  0.1127  0.4404
23978ION     CL28378  23.602   4.500  23.802  0.0413  0.1566 -0.8337
23979ION     CL28379  22.201   3.698  28.488 -0.2670  0.3203  0.1373
23980ION     CL28380  21.360   1.655  13.753 -0.2215 -0.1021  0.1451
23981ION     CL28381  26.336   6.484  30.873 -0.2748 -0.0497 -0.1888
23982ION     CL28382   5.228   4.773  22.349 -0.2952 -0.2102 -0.0245
23983ION     CL28383   1.791   5.935  11.913 -0.3231 -0.0163 -0.2912
23984ION     CL28384  17.644   5.100   7.496 -0.0673 -0.2805 -0.0596
23985ION     CL28385   6.900   2.655  27.286 -0.2566 -0.0851  0.1369
23986ION     CL28386   0.932   0.524  14.899 -0.1356  0.2799 -0.1949
23987ION     CL28387  22.435   5.566   4.503 -0.1824 -0.2888 -0.1780
23988ION     CL28388  12.739   5.950  34.727  0.0517  0.0477  0.3428
23989ION     CL28389  19.538   4.364   5.127 -0.4448 -0.1754 -0.0895
23990ION     CL28390  21.032   3.578  25.207 -0.1701 -0.5514 -0.7217
23991ION     CL28391  22.759   2.794  28.547 -0.3222  0.1469 -0.0333
23992ION     CL28392   4.263   5.754  27.101  0.2636  0.2347  0.1502
23993ION     CL28393  15.581   3.460  10.663  0.4857  0.1305  0.3572
23994ION     CL28394   7.273   4.763  20.684 -0.1068  0.0430  0.1446
23995ION     CL28395  22.194   1.046  22.899 -0.2490 -0.1045 -0.0582
23996ION     CL28396  22.481   6.219  31.612  0.0434  0.4555  0.3277
23997ION     CL28397  13.368   0.799  32.278  0.0761  0.2097  0.3439
23998ION     CL28398  26.240   1.825  13.445  0.4159  0.4657 -0.4319
23999DPPC   NC328399   4.048   5.228  20.414  0.0671  0.0778  0.0475
23999DPPC   PO428400   4.465   5.245  20.459  0.1627 -0.0648 -0.1811
23999DPPC   GL128401   4.663   5.330  19.983  0.4911 -0.1198 -0.2395
23999DPPC   GL228402   4.451   5.399  19.902 -0.0857 -0.2812 -0.2056
23999DPPC   C1A28403   4.963   5.409  19.780 -0.0999 -0.2234 -0.1633
23999DPPC   C2A28404   4.966   5.422  19.363 -0.0682 -0.0351 -0.4072
23999DPPC   C3A28405   4.962   5.461  18.856 -0.1648 -0.0469 -0.0676
23999DPPC   C4A28406   4.953   5.439  18.348 -0.1266  0.0032  0.1909
23999DPPC   C1B28407   4.531   5.483  19.572 -0.5730  0.0840  0.4897
23999DPPC   C2B28408   4.524   5.610  19.181  0.0047 -0.2359  0.1575
23999DPPC   C3B28409   4.480   5.612  18.690 -0.1730  0.0935 -0.2508
23999DPPC   C4B28410   4.469   5.601  18.225  0.0375  0.2763  0.0762
24000DPPC   NC328411   8.076   3.532  20.395  0.1914  0.0444 -0.3428
24000DPPC   PO428412   7.880   3.858  20.530  0.2614  0.1060 -0.0356
24000DPPC   GL128413   7.647   4.000  20.191 -0.0447 -0.1647  0.0821
24000DPPC   GL228414   7.873   4.188  20.159  0.2357  0.0001  0.0139
24000DPPC   C1A28415   7.496   3.977  19.825 -0.2678 -0.1686  0.1293
24000DPPC   C2A28416   7.334   4.031  19.418  0.1608  0.0693  0.0854
24000DPPC   C3A28417   7.338   4.054  18.943  0.1979  0.2591 -0.0527
24000DPPC   C4A28418   7.422   4.060  18.498 -0.0005 -0.0555  0.1195
24000DPPC   C1B28419   7.922   3.916  19.884 -0.1058  0.1670  0.3791
24000DPPC   C2B28420   7.847   3.886  19.474 -0.1393  0.0714  0.1076
24000DPPC   C3B28421   7.754   3.788  19.025  0.1668  0.2590 -0.2653
24000DPPC   C4B28422   7.856   3.783  18.562 -0.0846  0.3651 -0.2039
24001DPPC   NC328423   7.886   3.124  20.825 -0.0413  0.0913  0.1478
24001DPPC   PO428424   7.726   3.482  20.791 -0.1403  0.0633  0.2164
24001DPPC   GL128425   7.558   3.183  20.469 -0.2000  0.4190  0.1340
24001DPPC   GL228426   7.687   3.301  20.262  0.2221  0.1478 -0.3978
24001DPPC   C1A28427   7.272   3.160  20.273 -0.0513 -0.0040 -0.0087
24001DPPC   C2A28428   7.160   3.108  19.861 -0.1306 -0.1213 -0.3427
24001DPPC   C3A28429   7.029   3.210  19.428  0.2812 -0.1968  0.1957
24001DPPC   C4A28430   6.968   3.189  18.905  0.0600  0.2926 -0.0638
24001DPPC   C1B28431   7.554   3.379  19.918  0.1987  0.0005  0.1055
24001DPPC   C2B28432   7.458   3.475  19.550  0.0086  0.0958 -0.1046
24001DPPC   C3B28433   7.371   3.502  19.071 -0.0774  0.1494  0.1699
24001DPPC   C4B28434   7.430   3.493  18.552 -0.0553  0.0614 -0.0108
24002DPPC   NC328435   3.466   1.626  20.818  0.0934 -0.4578  0.0658
24002DPPC   PO428436   3.541   1.762  20.430  0.0786 -0.2161  0.0704
24002DPPC   GL128437   3.773   1.514  20.132  0.1084  0.2108  0.2470
24002DPPC   GL228438   3.700   1.739  19.955 -0.0194  0.0632  0.0406
24002DPPC   C1A28439   3.697   1.208  19.875  0.6450 -0.0701 -0.0224
24002DPPC   C2A28440   3.718   1.185  19.456  0.4684  0.0696 -0.0631
24002DPPC   C3A28441   3.695   1.134  18.967 -0.0309  0.4838 -0.1788
24002DPPC   C4A28442   3.712   1.085  18.477 -0.2050  0.1588  0.1847
24002DPPC   C1B28443   3.665   1.678  19.576  0.1158  0.3041 -0.1556
24002DPPC   C2B28444   3.623   1.627  19.174 -0.0660 -0.0430  0.1039
24002DPPC   C3B28445   3.666   1.621  18.718  0.2105 -0.0669 -0.0274
24002DPPC   C4B28446   3.605   1.565  18.250 -0.1463 -0.3000 -0.2332
24003DPPC   NC328447   5.525   2.322  20.563  0.1684  0.0966 -0.1201
24003DPPC   PO428448   5.235   2.529  20.770  0.0407  0.0844 -0.0422
24003DPPC   GL128449   5.178   2.731  20.424  0.1478 -0.2562 -0.0229
24003DPPC   GL228450   5.080   2.478  20.302  0.6826  0.1037  0.0093
24003DPPC   C1A28451   5.252   2.825  20.075  0.0450 -0.0255 -0.2055
24003DPPC   C2A28452   5.373   2.968  19.724  0.1123  0.0113  0.2529
24003DPPC   C3A28453   5.355   2.905  19.187  0.2861  0.0374  0.0161
24003DPPC   C4A28454   5.211   2.823  18.717  0.0059 -0.1885  0.1944
24003DPPC   C1B28455   4.911   2.443  20.015 -0.2993 -0.1664  0.0658
24003DPPC   C2B28456   4.804   2.566  19.646  0.0530  0.0600 -0.0564
24003DPPC   C3B28457   4.917   2.598  19.147  0.2001 -0.1033  0.0535
24003DPPC   C4B28458   4.815   2.562  18.645 -0.1037  0.2983 -0.0187
24004DPPC   NC328459   5.373   3.107  20.489  0.0259 -0.1974  0.0072
24004DPPC   PO428460   5.667   3.359  20.519 -0.0649 -0.1459  0.1968
24004DPPC   GL128461   5.592   3.594  20.191 -0.0689  0.4090 -0.0690
24004DPPC   GL228462   5.359   3.426  20.196  0.2542 -0.2298  0.0285
24004DPPC   C1A28463   5.736   3.775  19.930 -0.0847  0.0573 -0.3942
24004DPPC   C2A28464   5.651   3.706  19.534  0.0746 -0.4216  0.2791
24004DPPC   C3A28465   5.627   3.640  19.077 -0.0344 -0.1813 -0.0323
24004DPPC   C4A28466   5.648   3.765  18.587 -0.0295 -0.3348 -0.0833
24004DPPC   C1B28467   5.295   3.421  19.870 -0.2600  0.1151  0.1235
24004DPPC   C2B28468   5.291   3.371  19.460  0.1476  0.0685  0.1966
24004DPPC   C3B28469   5.212   3.345  19.011 -0.2098  0.2914 -0.2149
24004DPPC   C4B28470   5.308   3.311  18.524 -0.1427  0.1785 -0.0258
24005DPPC   NC328471   4.755   1.328  20.716  0.3571  0.1364  0.0036
24005DPPC   PO428472   4.418   1.520  20.669  0.0919 -0.0523 -0.3407
24005DPPC   GL128473   4.500   1.598  20.232  0.0920  0.2522 -0.0197
24005DPPC   GL228474   4.204   1.458  20.231 -0.2596  0.3025  0.2951
24005DPPC   C1A28475   4.702   1.758  20.031  0.0582  0.5151 -0.0279
24005DPPC   C2A28476   4.819   2.042  19.795 -0.0197 -0.3363 -0.1667
24005DPPC   C3A28477   4.920   2.114  19.261  0.1277  0.0643 -0.1588
24005DPPC   C4A28478   4.951   2.080  18.788 -0.0474  0.2020  0.1338
24005DPPC   C1B28479   4.074   1.510  19.878  0.4795  0.0556  0.1093
24005DPPC   C2B28480   4.100   1.573  19.464 -0.2198  0.0755 -0.0235
24005DPPC   C3B28481   4.094   1.518  19.044  0.0099  0.0087  0.0891
24005DPPC   C4B28482   4.104   1.415  18.526  0.1888  0.2705  0.3993
24006DPPC   NC328483   7.523   6.345  20.286  0.0309  0.0334  0.0762
24006DPPC   PO428484   7.493   5.952  20.375 -0.1155 -0.0842 -0.1093
24006DPPC   GL128485   7.699   5.753  20.047 -0.1098 -0.1133  0.0185
24006DPPC   GL228486   7.871   5.950  20.104 -0.1654 -0.2560 -0.3518
24006DPPC   C1A28487   7.676   5.507  19.748 -0.0138  0.2355 -0.0408
24006DPPC   C2A28488   7.633   5.462  19.357 -0.0292  0.0771 -0.0892
24006DPPC   C3A28489   7.556   5.341  18.842 -0.0932 -0.3118  0.0915
24006DPPC   C4A28490   7.607   5.245  18.358  0.1876 -0.1347 -0.0026
24006DPPC   C1B28491   8.101   6.141  19.876 -0.2048  0.1298 -0.2695
24006DPPC   C2B28492   8.051   6.224  19.504 -0.1246  0.2087  0.3102
24006DPPC   C3B28493   7.965   6.264  18.967  0.2691 -0.1568 -0.0950
24006DPPC   C4B28494   7.871   6.176  18.478  0.2763 -0.0830 -0.2633
24007DPPC   NC328495   5.284   3.845  20.570  0.0958 -0.1260 -0.0619
24007DPPC   PO428496   5.638   3.984  20.602 -0.1001  0.0640  0.0527
24007DPPC   GL128497   5.996   3.989  20.283  0.3493  0.2977 -0.2204
24007DPPC   GL228498   5.970   3.701  20.376 -0.5175  0.1883 -0.0781
24007DPPC   C1A28499   6.112   4.073  19.929  0.0101 -0.0726  0.1556
24007DPPC   C2A28500   6.049   4.077  19.554 -0.0111 -0.1054  0.0987
24007DPPC   C3A28501   6.005   4.013  19.001  0.0552 -0.2684 -0.2246
24007DPPC   C4A28502   6.063   4.078  18.534  0.2369  0.2357  0.0435
24007DPPC   C1B28503   6.129   3.401  20.193  0.1345 -0.1444 -0.1684
24007DPPC   C2B28504   6.186   3.140  19.904 -0.1215  0.2292 -0.0345
24007DPPC   C3B28505   6.193   3.065  19.430 -0.0089  0.1639 -0.2173
24007DPPC   C4B28506   6.180   3.093  18.930  0.2306  0.0767 -0.1320
24008DPPC   NC328507   8.725   1.823  20.870  0.0337 -0.2582  0.0240
24008DPPC   PO428508   8.713   1.542  20.612 -0.6119  0.0787 -0.0869
24008DPPC   GL128509   8.516   1.576  20.276  0.3250  0.0191 -0.2734
24008DPPC   GL228510   8.467   1.284  20.288 -0.1231  0.4543  0.0044
24008DPPC   C1A28511   8.302   1.649  19.998  0.3454  0.2232  0.2737
24008DPPC   C2A28512   8.154   1.496  19.666  0.0794 -0.0009 -0.2048
24008DPPC   C3A28513   8.073   1.402  19.172 -0.0132  0.1981  0.0687
24008DPPC   C4A28514   8.103   1.366  18.732  0.1098  0.1109  0.1840
24008DPPC   C1B28515   8.550   1.236  19.919  0.0250 -0.0023 -0.0075
24008DPPC   C2B28516   8.580   1.282  19.527  0.4152  0.0033 -0.0911
24008DPPC   C3B28517   8.569   1.263  19.045  0.0176 -0.0489  0.3803
24008DPPC   C4B28518   8.520   1.195  18.550  0.4187 -0.0658  0.1549
24009DPPC   NC328519   7.445   1.128  20.882  0.1515  0.0912 -0.1348
24009DPPC   PO428520   7.148   1.212  20.605 -0.1805  0.0534  0.0230
24009DPPC   GL128521   7.127   1.123  20.167 -0.0950  0.0898 -0.2125
24009DPPC   GL228522   6.873   1.260  20.231 -0.0275 -0.0716  0.0439
24009DPPC   C1A28523   7.167   1.185  19.785 -0.0793 -0.2102 -0.1494
24009DPPC   C2A28524   7.290   1.310  19.416 -0.1580  0.0130 -0.0459
24009DPPC   C3A28525   7.317   1.235  18.949  0.2132  0.0490  0.1705
24009DPPC   C4A28526   7.273   1.153  18.432 -0.1053  0.0993 -0.1364
24009DPPC   C1B28527   6.766   1.346  19.878 -0.0397 -0.0647 -0.2611
24009DPPC   C2B28528   6.765   1.459  19.488  0.0479 -0.1169  0.2080
24009DPPC   C3B28529   6.839   1.469  18.991  0.2975 -0.1157  0.2716
24009DPPC   C4B28530   6.807   1.453  18.475  0.0242 -0.1522  0.1810
24010DPPC   NC328531   8.261   0.351  20.451 -0.0679  0.1089  0.0429
24010DPPC   PO428532   7.985   0.103  20.336  0.4718 -0.0524  0.0329
24010DPPC   GL128533   8.066  -0.068  19.975 -0.2157 -0.1619 -0.0479
24010DPPC   GL228534   7.739  -0.128  19.947 -0.2062 -0.1751  0.3166
24010DPPC   C1A28535   8.341  -0.120  19.700  0.0084 -0.1501 -0.2277
24010DPPC   C2A28536   8.416  -0.045  19.311  0.0092  0.1180  0.3839
24010DPPC   C3A28537   8.346  -0.070  18.848 -0.0581 -0.2694 -0.0502
24010DPPC   C4A28538   8.326  -0.136  18.337  0.0171  0.0009 -0.1647
24010DPPC   C1B28539   7.621  -0.474  19.828  0.3489  0.6051 -0.0943
24010DPPC   C2B28540   7.476  -0.730  19.517 -0.1109 -0.3118  0.1312
24010DPPC   C3B28541   7.513  -0.721  19.071 -0.0787  0.2981 -0.0302
24010DPPC   C4B28542   7.512  -0.789  18.590  0.1309 -0.2383  0.1443
24011DPPC   NC328543   9.217   3.540  20.490  0.2159 -0.1055 -0.0336
24011DPPC   PO428544   8.897   3.337  20.656 -0.0407 -0.0512 -0.0376
24011DPPC   GL128545   8.830   3.302  20.248  0.2115  0.2849 -0.1302
24011DPPC   GL228546   8.545   3.383  20.382 -0.0606  0.1511  0.1311
24011DPPC   C1A28547   8.800   3.450  19.896 -0.0315 -0.2080  0.0983
24011DPPC   C2A28548   8.742   3.539  19.509  0.1516  0.0417 -0.1426
24011DPPC   C3A28549   8.665   3.499  19.055  0.1580  0.2116  0.1477
24011DPPC   C4A28550   8.679   3.540  18.593 -0.2715 -0.2063 -0.0596
24011DPPC   C1B28551   8.400   3.412  20.066 -0.1858  0.2596  0.1683
24011DPPC   C2B28552   8.270   3.619  19.754 -0.0203 -0.1475 -0.0408
24011DPPC   C3B28553   8.248   3.737  19.306 -0.0117  0.0012  0.0413
24011DPPC   C4B28554   8.245   3.670  18.812  0.0945 -0.2914 -0.0065
24012DPPC   NC328555   9.113   0.706  20.392 -0.2751  0.1166  0.1576
24012DPPC   PO428556   8.872   0.989  20.322  0.1920 -0.3035  0.2097
24012DPPC   GL128557   9.124   1.268  20.037 -0.0569 -0.2311 -0.0859
24012DPPC   GL228558   9.224   1.000  19.949  0.1004 -0.0339 -0.0299
24012DPPC   C1A28559   9.028   1.417  19.744  0.3264 -0.1016  0.1631
24012DPPC   C2A28560   9.000   1.567  19.388 -0.0945 -0.0564  0.4215
24012DPPC   C3A28561   8.973   1.509  18.878 -0.0684  0.1431  0.1280
24012DPPC   C4A28562   9.012   1.599  18.375 -0.0238  0.0402 -0.2065
24012DPPC   C1B28563   9.030   0.981  19.656 -0.2407  0.6178 -0.0970
24012DPPC   C2B28564   9.001   1.070  19.277  0.1604 -0.2244  0.0091
24012DPPC   C3B28565   9.089   1.046  18.768 -0.0857 -0.1670  0.0534
24012DPPC   C4B28566   9.042   1.080  18.264  0.0369 -0.1382 -0.0722
24013DPPC   NC328567   4.662   1.971  20.416  0.1092 -0.1072 -0.0498
24013DPPC   PO428568   5.038   2.072  20.448  0.2298 -0.1448 -0.2149
24013DPPC   GL128569   5.368   2.082  20.203  0.1265  0.2239  0.0743
24013DPPC   GL228570   5.439   1.785  20.235 -0.0340  0.1233  0.0486
24013DPPC   C1A28571   5.382   2.229  19.854  0.3387  0.1697  0.0375
24013DPPC   C2A28572   5.311   2.366  19.458 -0.1682 -0.1892 -0.1794
24013DPPC   C3A28573   5.363   2.365  18.992 -0.0462  0.0755  0.1870
24013DPPC   C4A28574   5.318   2.388  18.465 -0.0137 -0.0864  0.0501
24013DPPC   C1B28575   5.624   1.778  19.894 -0.0212  0.3883  0.0904
24013DPPC   C2B28576   5.812   1.779  19.511 -0.0829  0.2454  0.2072
24013DPPC   C3B28577   5.830   1.763  18.972  0.1712 -0.0733  0.0880
24013DPPC   C4B28578   5.968   1.683  18.558 -0.0193  0.3343 -0.1504
24014DPPC   NC328579   2.847   2.152  20.295  0.4742  0.2996  0.0172
24014DPPC   PO428580   3.186   2.174  20.451 -0.1957  0.1237 -0.0081
24014DPPC   GL128581   3.360   2.218  20.055 -0.0060  0.1140  0.0221
24014DPPC   GL228582   3.237   1.991  20.047 -0.3622 -0.2513  0.0211
24014DPPC   C1A28583   3.626   2.210  19.845  0.1120 -0.0769  0.3568
24014DPPC   C2A28584   3.604   2.125  19.402 -0.3990  0.2473 -0.0817
24014DPPC   C3A28585   3.600   2.088  18.938  0.1170 -0.1293 -0.1210
24014DPPC   C4A28586   3.521   2.119  18.394  0.1602  0.0714  0.1468
24014DPPC   C1B28587   3.267   1.911  19.710 -0.1019 -0.2889  0.5385
24014DPPC   C2B28588   3.193   1.765  19.341 -0.0798  0.0868  0.1591
24014DPPC   C3B28589   3.190   1.770  18.863  0.2709  0.1015  0.0053
24014DPPC   C4B28590   3.117   1.758  18.348 -0.1361  0.1884  0.1704
24015DPPC   NC328591   8.016   5.568  20.415 -0.0664 -0.2698  0.2378
24015DPPC   PO428592   7.630   5.462  20.422  0.1294  0.3568  0.2423
24015DPPC   GL128593   7.495   5.356  20.056  0.0074  0.3602  0.2329
24015DPPC   GL228594   7.294   5.551  20.059 -0.5503  0.0372 -0.0715
24015DPPC   C1A28595   7.540   5.072  19.796 -0.1039 -0.0505  0.2815
24015DPPC   C2A28596   7.565   4.861  19.424  0.1264 -0.1606  0.1512
24015DPPC   C3A28597   7.652   4.868  18.952 -0.0326 -0.0236  0.0333
24015DPPC   C4A28598   7.735   4.777  18.508  0.0343 -0.0746  0.0372
24015DPPC   C1B28599   7.171   5.524  19.754  0.1644 -0.4985 -0.1763
24015DPPC   C2B28600   7.060   5.627  19.368  0.0327 -0.2846 -0.0754
24015DPPC   C3B28601   7.079   5.635  18.854  0.3585 -0.0852 -0.2001
24015DPPC   C4B28602   7.143   5.602  18.357  0.0664 -0.0895  0.2606
24016DPPC   NC328603   6.173   3.979  20.713 -0.0029  0.0857 -0.0258
24016DPPC   PO428604   6.426   4.298  20.716 -0.0601 -0.0783  0.0315
24016DPPC   GL128605   6.487   4.106  20.311  0.1420 -0.0975  0.0709
24016DPPC   GL228606   6.797   4.299  20.293  0.2947  0.1634 -0.1544
24016DPPC   C1A28607   6.342   3.799  20.100  0.0386  0.0056 -0.0083
24016DPPC   C2A28608   6.178   3.620  19.763 -0.4116 -0.2547  0.1225
24016DPPC   C3A28609   6.128   3.554  19.287 -0.0447  0.2427  0.0185
24016DPPC   C4A28610   6.060   3.609  18.750 -0.0728  0.1989  0.0330
24016DPPC   C1B28611   7.000   4.534  20.014  0.0033 -0.2646 -0.0969
24016DPPC   C2B28612   7.147   4.595  19.662 -0.2318  0.1597  0.0828
24016DPPC   C3B28613   7.194   4.518  19.178 -0.2680  0.0791 -0.0596
24016DPPC   C4B28614   7.220   4.517  18.743  0.0679 -0.0075 -0.2477
24017DPPC   NC328615   8.516   1.027  20.688 -0.0843 -0.2574  0.0069
24017DPPC   PO428616   8.612   0.645  20.621 -0.2386 -0.1898  0.0943
24017DPPC   GL128617   8.627   0.649  20.139 -0.1182  0.2247 -0.3300
24017DPPC   GL228618   8.817   0.433  20.127  0.2253  0.2711  0.2471
24017DPPC   C1A28619   8.613   0.741  19.819 -0.0468  0.2515 -0.2911
24017DPPC   C2A28620   8.656   0.739  19.430 -0.0816 -0.0965 -0.1123
24017DPPC   C3A28621   8.587   0.776  18.983 -0.1953  0.1933 -0.1922
24017DPPC   C4A28622   8.593   0.737  18.453 -0.0283 -0.0707 -0.3013
24017DPPC   C1B28623   8.818   0.389  19.778  0.0305 -0.0687  0.0718
24017DPPC   C2B28624   8.784   0.252  19.401 -0.1078 -0.0132  0.1504
24017DPPC   C3B28625   8.735   0.225  18.966  0.2072  0.1996  0.4607
24017DPPC   C4B28626   8.696   0.140  18.473 -0.3285 -0.2998  0.2950
24018DPPC   NC328627   5.477   0.170  20.689  0.0196  0.0045  0.1289
24018DPPC   PO428628   5.622  -0.180  20.616 -0.0858  0.0561 -0.0268
24018DPPC   GL128629   5.508  -0.246  20.166  0.2381 -0.0355 -0.1766
24018DPPC   GL228630   5.783  -0.228  20.180  0.1292  0.2801  0.1681
24018DPPC   C1A28631   5.403  -0.314  19.813 -0.1021  0.3160 -0.3716
24018DPPC   C2A28632   5.262  -0.407  19.457 -0.1288 -0.1179 -0.0396
24018DPPC   C3A28633   5.214  -0.394  18.928  0.3545  0.2153  0.0045
24018DPPC   C4A28634   5.290  -0.322  18.456 -0.2117 -0.0797  0.0240
24018DPPC   C1B28635   5.963  -0.132  19.841  0.0285 -0.1655  0.1580
24018DPPC   C2B28636   6.101  -0.203  19.477  0.2076 -0.0364  0.1186
24018DPPC   C3B28637   6.095  -0.184  18.981 -0.4059  0.2756 -0.3008
24018DPPC   C4B28638   6.132  -0.221  18.483  0.1851  0.0982 -0.0161
24019DPPC   NC328639   4.110   3.751  20.710 -0.1251  0.3751 -0.1695
24019DPPC   PO428640   4.448   3.927  20.657 -0.3000 -0.3238  0.0268
24019DPPC   GL128641   4.478   3.882  20.216 -0.0227 -0.1100  0.0643
24019DPPC   GL228642   4.300   3.660  20.191  0.1996  0.1043 -0.3650
24019DPPC   C1A28643   4.531   3.988  19.826 -0.1888  0.0337 -0.0790
24019DPPC   C2A28644   4.690   4.078  19.455  0.0945  0.0001  0.2713
24019DPPC   C3A28645   4.753   4.099  18.992  0.0412  0.2347 -0.0903
24019DPPC   C4A28646   4.761   4.008  18.521  0.1362 -0.0977  0.2261
24019DPPC   C1B28647   4.254   3.649  19.809  0.0703  0.1396  0.3311
24019DPPC   C2B28648   4.322   3.760  19.418 -0.5486  0.4244  0.0239
24019DPPC   C3B28649   4.349   3.660  18.907  0.1012  0.0732  0.0289
24019DPPC   C4B28650   4.364   3.652  18.428 -0.2807 -0.0006  0.0650
24020DPPC   NC328651   8.216   4.843  20.549 -0.4214  0.1207 -0.0910
24020DPPC   PO428652   8.472   4.639  20.789  0.0569  0.1270 -0.0006
24020DPPC   GL128653   8.693   4.580  20.414  0.0616 -0.2474  0.0719
24020DPPC   GL228654   8.566   4.779  20.242 -0.0908  0.1984 -0.2253
24020DPPC   C1A28655   8.995   4.533  20.175  0.4300 -0.0530 -0.2581
24020DPPC   C2A28656   9.041   4.417  19.805 -0.1655 -0.1660  0.0385
24020DPPC   C3A28657   9.006   4.379  19.381 -0.0629 -0.0702 -0.3475
24020DPPC   C4A28658   9.085   4.279  18.920  0.0041 -0.1430  0.0118
24020DPPC   C1B28659   8.547   4.566  19.947  0.3871  0.1280 -0.0355
24020DPPC   C2B28660   8.568   4.549  19.536  0.0210  0.1067 -0.1671
24020DPPC   C3B28661   8.696   4.554  19.054 -0.0228  0.1475 -0.1582
24020DPPC   C4B28662   8.656   4.453  18.580 -0.1874 -0.1674  0.0403
24021DPPC   NC328663   3.826   2.107  20.255 -0.3152 -0.1270  0.0206
24021DPPC   PO428664   4.138   1.895  20.391  0.2983  0.2214 -0.2136
24021DPPC   GL128665   4.265   1.955  20.034 -0.1650 -0.0078 -0.2923
24021DPPC   GL228666   4.046   2.084  19.877  0.0037  0.3291  0.2247
24021DPPC   C1A28667   4.380   1.779  19.762 -0.1144  0.1760  0.3319
24021DPPC   C2A28668   4.546   1.732  19.397  0.2076 -0.2818  0.0600
24021DPPC   C3A28669   4.547   1.785  18.938 -0.0025 -0.1838 -0.0705
24021DPPC   C4A28670   4.533   1.711  18.509  0.1377 -0.2643  0.1865
24021DPPC   C1B28671   4.113   2.073  19.578 -0.1046 -0.0023  0.2639
24021DPPC   C2B28672   4.128   2.016  19.158  0.0446  0.2052 -0.0149
24021DPPC   C3B28673   4.044   1.922  18.699 -0.2706 -0.2037 -0.0710
24021DPPC   C4B28674   4.095   1.866  18.199 -0.0861 -0.1879  0.0333
24022DPPC   NC328675   2.655   5.881  20.020 -0.0171 -0.2171 -0.3793
24022DPPC   PO428676   2.343   5.826  20.307 -0.1565 -0.1227 -0.0796
24022DPPC   GL128677   2.169   5.818  19.933  0.0515  0.0737  0.1260
24022DPPC   GL228678   2.266   6.071  19.816  0.3071 -0.0075 -0.1337
24022DPPC   C1A28679   2.158   5.562  19.657 -0.0980  0.2111  0.1866
24022DPPC   C2A28680   2.241   5.409  19.282 -0.0074 -0.2997 -0.0730
24022DPPC   C3A28681   2.309   5.405  18.829  0.1693  0.1815  0.2144
24022DPPC   C4A28682   2.271   5.345  18.295  0.0679  0.1420 -0.3191
24022DPPC   C1B28683   2.269   5.975  19.504  0.2915  0.2160  0.3418
24022DPPC   C2B28684   2.220   5.935  19.127 -0.0243  0.1167 -0.3634
24022DPPC   C3B28685   2.159   5.967  18.667 -0.0365 -0.0678  0.3835
24022DPPC   C4B28686   2.193   5.935  18.133  0.0676  0.1482  0.1252
24023DPPC   NC328687   4.469   3.423  20.670 -0.0632  0.0593 -0.0350
24023DPPC   PO428688   4.163   3.301  20.466  0.0738  0.0693 -0.0350
24023DPPC   GL128689   3.941   3.387  20.120  0.0373 -0.1172 -0.0461
24023DPPC   GL228690   3.834   3.680  20.233 -0.0303  0.2953 -0.0927
24023DPPC   C1A28691   3.891   3.407  19.771 -0.2083  0.0175 -0.1873
24023DPPC   C2A28692   3.936   3.426  19.332 -0.0002 -0.1524 -0.1428
24023DPPC   C3A28693   3.954   3.389  18.825 -0.1197 -0.0783 -0.0246
24023DPPC   C4A28694   3.944   3.408  18.311 -0.2259  0.1889 -0.1847
24023DPPC   C1B28695   3.945   3.868  19.950 -0.2621  0.2191  0.0971
24023DPPC   C2B28696   3.874   3.877  19.522  0.1483  0.1787  0.0430
24023DPPC   C3B28697   3.895   3.841  19.093 -0.0557  0.0240 -0.0714
24023DPPC   C4B28698   3.920   3.862  18.641 -0.0130  0.0189  0.4210
24024DPPC   NC328699   8.686   1.977  20.389  0.0218  0.0644  0.0383
24024DPPC   PO428700   8.540   2.350  20.515  0.0710 -0.5364  0.0499
24024DPPC   GL128701   8.641   2.501  20.148 -0.0044  0.1018  0.3476
24024DPPC   GL228702   8.531   2.199  20.025 -0.1705 -0.0713 -0.3463
24024DPPC   C1A28703   8.882   2.484  19.839  0.0617  0.0045 -0.0436
24024DPPC   C2A28704   8.906   2.534  19.414 -0.2836 -0.3324  0.0004
24024DPPC   C3A28705   8.901   2.480  18.887  0.0338 -0.3829 -0.0356
24024DPPC   C4A28706   8.879   2.437  18.373  0.0893  0.2047 -0.0735
24024DPPC   C1B28707   8.461   2.300  19.706 -0.1487  0.2708 -0.5218
24024DPPC   C2B28708   8.442   2.270  19.316 -0.0021  0.0818 -0.0247
24024DPPC   C3B28709   8.399   2.265  18.884  0.3174  0.1921 -0.1245
24024DPPC   C4B28710   8.425   2.293  18.407 -0.0159 -0.1878 -0.0467
24025DPPC   NC328711   7.516   4.907  20.217  0.0092  0.0770 -0.2388
24025DPPC   PO428712   7.855   5.019  20.224 -0.0937  0.0297  0.0144
24025DPPC   GL128713   7.946   5.178  19.892  0.0826  0.2637  0.1873
24025DPPC   GL228714   8.109   5.444  19.951  0.0411  0.1237  0.2906
24025DPPC   C1A28715   7.947   5.188  19.520 -0.1526  0.3721  0.1036
24025DPPC   C2A28716   8.024   5.280  19.105  0.2736 -0.0865 -0.2395
24025DPPC   C3A28717   8.008   5.176  18.665 -0.0350 -0.0334 -0.0580
24025DPPC   C4A28718   8.016   5.143  18.156 -0.0212  0.0993 -0.2210
24025DPPC   C1B28719   8.028   5.712  19.724 -0.4050  0.3562  0.0139
24025DPPC   C2B28720   7.991   5.791  19.333  0.1453  0.1846  0.1001
24025DPPC   C3B28721   7.906   5.741  18.864  0.0450 -0.0627  0.2735
24025DPPC   C4B28722   7.937   5.711  18.331  0.0009  0.2847 -0.1904
24026DPPC   NC328723   8.957   3.886  21.186 -0.1187 -0.0521  0.1152
24026DPPC   PO428724   8.956   3.859  20.774 -0.2322 -0.2065  0.1630
24026DPPC   GL128725   8.944   4.129  20.490  0.0888 -0.1659 -0.0114
24026DPPC   GL228726   9.178   4.056  20.327  0.5592  0.2442  0.1694
24026DPPC   C1A28727   8.767   4.158  20.149  0.2391 -0.0294 -0.2210
24026DPPC   C2A28728   8.651   3.999  19.784 -0.2107 -0.0858  0.1289
24026DPPC   C3A28729   8.640   4.059  19.330 -0.0776 -0.0393 -0.1594
24026DPPC   C4A28730   8.647   4.004  18.872 -0.0651  0.1523 -0.2412
24026DPPC   C1B28731   9.300   4.149  20.022 -0.3923  0.0300 -0.0664
24026DPPC   C2B28732   9.479   4.168  19.658  0.0164  0.0395  0.2537
24026DPPC   C3B28733   9.510   4.205  19.197  0.0378  0.1383  0.0586
24026DPPC   C4B28734   9.576   4.105  18.691 -0.0039 -0.0810 -0.2685
24027DPPC   NC328735   6.416   2.279  20.729  0.0101  0.0372 -0.2391
24027DPPC   PO428736   6.125   2.073  20.693  0.0174  0.0488  0.0818
24027DPPC   GL128737   6.224   2.152  20.279  0.1977 -0.1343 -0.2309
24027DPPC   GL228738   6.064   2.415  20.383 -0.0623 -0.1048  0.0416
24027DPPC   C1A28739   6.227   2.149  19.903  0.2086 -0.0808  0.0086
24027DPPC   C2A28740   6.247   2.135  19.453  0.1229 -0.0479  0.1604
24027DPPC   C3A28741   6.276   2.082  18.959 -0.0793  0.0825  0.0803
24027DPPC   C4A28742   6.311   2.008  18.473 -0.2692 -0.0294  0.0192
24027DPPC   C1B28743   6.144   2.674  20.106  0.0995 -0.1633 -0.3387
24027DPPC   C2B28744   6.190   2.594  19.700  0.3624 -0.1246  0.0684
24027DPPC   C3B28745   6.205   2.577  19.225 -0.1039  0.1311 -0.1070
24027DPPC   C4B28746   6.228   2.569  18.731  0.0779  0.3948 -0.1533
24028DPPC   NC328747   3.418   1.295  20.439 -0.0477 -0.2234  0.1026
24028DPPC   PO428748   3.038   1.167  20.320 -0.1971  0.2912 -0.1540
24028DPPC   GL128749   2.883   1.112  20.002 -0.0693 -0.1251 -0.3794
24028DPPC   GL228750   2.906   0.812  20.024  0.1512 -0.1358  0.2570
24028DPPC   C1A28751   2.890   1.037  19.638  0.1943 -0.0765 -0.0070
24028DPPC   C2A28752   2.796   0.999  19.241  0.1527  0.1345  0.1475
24028DPPC   C3A28753   2.803   0.976  18.785 -0.2801  0.1419 -0.0793
24028DPPC   C4A28754   2.856   0.916  18.254 -0.2574 -0.4167 -0.1433
24028DPPC   C1B28755   2.909   0.600  19.746  0.3560 -0.0521 -0.1941
24028DPPC   C2B28756   2.884   0.489  19.363 -0.0212 -0.0564  0.0841
24028DPPC   C3B28757   2.850   0.463  18.906  0.0138 -0.3309  0.3988
24028DPPC   C4B28758   2.940   0.472  18.391 -0.1214  0.2857 -0.1548
24029DPPC   NC328759   6.061   5.329  20.459  0.0154  0.0134 -0.0140
24029DPPC   PO428760   5.744   5.123  20.382  0.0943 -0.1005  0.2800
24029DPPC   GL128761   5.758   4.916  20.021 -0.0843 -0.3681 -0.5802
24029DPPC   GL228762   5.908   4.698  20.145  0.0440 -0.2443  0.0248
24029DPPC   C1A28763   5.805   4.904  19.660 -0.1377  0.1802  0.2086
24029DPPC   C2A28764   5.885   5.094  19.283 -0.2948  0.0160 -0.1884
24029DPPC   C3A28765   5.937   5.067  18.775 -0.2057  0.3712 -0.3117
24029DPPC   C4A28766   5.909   5.041  18.307 -0.0569 -0.3123  0.1366
24029DPPC   C1B28767   6.033   4.547  19.821 -0.2089  0.1727 -0.0559
24029DPPC   C2B28768   5.986   4.574  19.422  0.1355 -0.0807  0.1099
24029DPPC   C3B28769   6.028   4.540  18.980  0.1072  0.0531 -0.0814
24029DPPC   C4B28770   5.982   4.561  18.504  0.1582 -0.1962  0.2718
24030DPPC   NC328771   5.547   5.951  20.348 -0.1488  0.0512  0.2701
24030DPPC   PO428772   5.784   5.686  20.191 -0.0790  0.0559 -0.0551
24030DPPC   GL128773   6.106   5.652  19.956  0.1361  0.4270  0.0617
24030DPPC   GL228774   6.311   5.506  20.065 -0.2425 -0.1815 -0.0165
24030DPPC   C1A28775   6.169   5.770  19.609 -0.0760  0.1848 -0.4374
24030DPPC   C2A28776   6.140   5.896  19.204 -0.1178 -0.4742  0.1171
24030DPPC   C3A28777   6.164   5.954  18.765  0.2736 -0.0546 -0.2032
24030DPPC   C4A28778   6.174   5.869  18.286  0.0464 -0.1590  0.2810
24030DPPC   C1B28779   6.438   5.257  19.805  0.0609 -0.3721 -0.0710
24030DPPC   C2B28780   6.303   5.324  19.422  0.1452 -0.0306  0.2751
24030DPPC   C3B28781   6.365   5.375  18.941  0.0718 -0.1116 -0.2337
24030DPPC   C4B28782   6.275   5.353  18.446  0.0100  0.1180  0.0463
24031DPPC   NC328783   3.398   3.549  20.817  0.1294 -0.3012 -0.0584
24031DPPC   PO428784   3.586   3.427  20.509  0.1527  0.1719  0.2126
24031DPPC   GL128785   3.385   3.126  20.182  0.2103  0.1750 -0.0843
24031DPPC   GL228786   3.416   3.352  20.044  0.1325 -0.0044 -0.2419
24031DPPC   C1A28787   3.372   2.813  19.967 -0.2949 -0.3085  0.1225
24031DPPC   C2A28788   3.520   2.656  19.597  0.1521  0.0495 -0.1267
24031DPPC   C3A28789   3.540   2.606  19.129  0.2780  0.1491  0.2260
24031DPPC   C4A28790   3.553   2.553  18.657  0.0950 -0.1215  0.1555
24031DPPC   C1B28791   3.537   3.225  19.722  0.1494 -0.0748 -0.3148
24031DPPC   C2B28792   3.529   3.069  19.316  0.0693  0.2455 -0.1551
24031DPPC   C3B28793   3.501   3.089  18.817  0.0477  0.1240  0.1325
24031DPPC   C4B28794   3.547   3.075  18.347 -0.0788  0.1707 -0.1281
24032DPPC   NC328795   8.208   2.692  20.282 -0.2568 -0.0666  0.3774
24032DPPC   PO428796   8.123   3.061  20.382  0.0914 -0.1985 -0.0091
24032DPPC   GL128797   8.043   3.089  20.046 -0.0559 -0.2023  0.0842
24032DPPC   GL228798   7.996   3.307  19.904 -0.3686 -0.1669 -0.0455
24032DPPC   C1A28799   7.976   2.836  19.752 -0.1292 -0.0841 -0.3762
24032DPPC   C2A28800   7.987   2.908  19.380  0.0804 -0.1292  0.2374
24032DPPC   C3A28801   7.938   2.876  18.892  0.0139  0.0355 -0.3478
24032DPPC   C4A28802   7.941   2.848  18.423  0.1416  0.1576 -0.3066
24032DPPC   C1B28803   7.942   3.360  19.570  0.2932  0.1733  0.3330
24032DPPC   C2B28804   7.849   3.338  19.137 -0.2215 -0.1337 -0.0733
24032DPPC   C3B28805   7.871   3.312  18.672 -0.1356 -0.1927  0.0927
24032DPPC   C4B28806   7.912   3.293  18.154 -0.1356  0.1300 -0.1284
24033DPPC   NC328807   4.911   5.457  20.304 -0.0560 -0.0872  0.1587
24033DPPC   PO428808   5.043   5.817  20.419 -0.1416  0.0466  0.0504
24033DPPC   GL128809   5.150   6.024  20.095 -0.3077  0.0214  0.3420
24033DPPC   GL228810   5.195   5.733  19.955  0.4459  0.1514  0.0467
24033DPPC   C1A28811   4.964   6.210  19.844  0.0799 -0.2132  0.0580
24033DPPC   C2A28812   4.786   6.394  19.480  0.1105 -0.2506 -0.0378
24033DPPC   C3A28813   4.728   6.416  18.967 -0.1999  0.0330  0.0547
24033DPPC   C4A28814   4.793   6.562  18.488 -0.1878  0.1816  0.1624
24033DPPC   C1B28815   5.346   5.692  19.617  0.1569 -0.0267 -0.2199
24033DPPC   C2B28816   5.322   5.754  19.191 -0.0330 -0.0999 -0.1323
24033DPPC   C3B28817   5.368   5.768  18.757  0.0567 -0.1828 -0.2111
24033DPPC   C4B28818   5.435   5.720  18.257  0.2533  0.1814 -0.0516
24034DPPC   NC328819   8.550   4.167  20.644 -0.2229 -0.1519  0.1585
24034DPPC   PO428820   8.425   3.794  20.660 -0.1411  0.0892 -0.0375
24034DPPC   GL128821   8.423   3.843  20.274 -0.2160 -0.2355 -0.3036
24034DPPC   GL228822   8.812   3.715  20.300  0.0815  0.0104 -0.1200
24034DPPC   C1A28823   8.299   4.117  20.003  0.0602  0.1745  0.0628
24034DPPC   C2A28824   8.201   4.231  19.633  0.1099 -0.0021 -0.2155
24034DPPC   C3A28825   8.181   4.228  19.093  0.2897  0.0772  0.1181
24034DPPC   C4A28826   8.213   4.220  18.583  0.2855  0.0760 -0.2411
24034DPPC   C1B28827   9.074   3.732  20.101  0.1801 -0.1075 -0.0947
24034DPPC   C2B28828   9.125   3.835  19.701 -0.1077  0.2759  0.0621
24034DPPC   C3B28829   9.178   3.858  19.204 -0.3514  0.2804 -0.1997
24034DPPC   C4B28830   9.167   3.848  18.750  0.3624 -0.2588  0.0016
24035DPPC   NC328831   5.284   1.966  20.846  0.0256 -0.2074  0.1914
24035DPPC   PO428832   5.129   1.644  20.707  0.1646 -0.2710 -0.1260
24035DPPC   GL128833   5.036   1.627  20.310  0.1677  0.0962  0.1816
24035DPPC   GL228834   4.885   1.372  20.282 -0.1350  0.0008 -0.0418
24035DPPC   C1A28835   5.110   1.726  19.955  0.3312  0.0452  0.0852
24035DPPC   C2A28836   5.245   1.869  19.566  0.1409  0.3513 -0.2534
24035DPPC   C3A28837   5.354   1.857  19.092  0.0711 -0.2084  0.1795
24035DPPC   C4A28838   5.461   1.916  18.599 -0.0030 -0.1758 -0.1833
24035DPPC   C1B28839   4.914   1.345  19.941  0.0601 -0.1682 -0.1099
24035DPPC   C2B28840   4.958   1.439  19.533 -0.0395  0.0203 -0.0858
24035DPPC   C3B28841   4.961   1.545  19.104 -0.1630  0.1870  0.2358
24035DPPC   C4B28842   5.008   1.640  18.589  0.2191 -0.1442 -0.3996
24036DPPC   NC328843   3.176   0.080  20.357  0.1393 -0.2378 -0.3131
24036DPPC   PO428844   2.863  -0.036  20.147  0.1635  0.0303  0.0750
24036DPPC   GL128845   2.904   0.028  19.721 -0.0373  0.0593 -0.1083
24036DPPC   GL228846   2.831  -0.320  19.816 -0.2146 -0.2958 -0.1843
24036DPPC   C1A28847   2.962   0.034  19.396 -0.0277  0.1714  0.0102
24036DPPC   C2A28848   2.928  -0.004  18.965 -0.0361  0.4639  0.2020
24036DPPC   C3A28849   2.952  -0.051  18.494  0.1371 -0.1386 -0.2205
24036DPPC   C4A28850   2.911  -0.108  17.982  0.2289  0.1611 -0.2492
24036DPPC   C1B28851   3.025  -0.401  19.515  0.1559 -0.1894 -0.2041
24036DPPC   C2B28852   3.055  -0.519  19.149 -0.1112 -0.3313 -0.1071
24036DPPC   C3B28853   3.027  -0.539  18.704  0.0751 -0.0246 -0.0568
24036DPPC   C4B28854   3.076  -0.581  18.216  0.0489 -0.1480  0.0834
24037DPPC   NC328855   6.124   6.429  20.632 -0.0923  0.2734 -0.1191
24037DPPC   PO428856   6.045   6.113  20.402 -0.3444 -0.2051  0.2539
24037DPPC   GL128857   6.166   6.092  19.967 -0.2219 -0.1615  0.3096
24037DPPC   GL228858   5.893   6.041  19.933 -0.0570  0.2162 -0.1373
24037DPPC   C1A28859   6.408   6.153  19.652  0.0128 -0.2169 -0.0503
24037DPPC   C2A28860   6.518   6.256  19.241 -0.1504 -0.0823 -0.1950
24037DPPC   C3A28861   6.583   6.253  18.755  0.1961 -0.0838 -0.2068
24037DPPC   C4A28862   6.550   6.166  18.280  0.1366  0.0705 -0.2155
24037DPPC   C1B28863   5.787   6.143  19.643  0.0366 -0.1070  0.3144
24037DPPC   C2B28864   5.694   6.086  19.225 -0.0770  0.0745 -0.1711
24037DPPC   C3B28865   5.690   6.150  18.703 -0.2833  0.3295 -0.0360
24037DPPC   C4B28866   5.744   6.105  18.230 -0.0952  0.0785  0.0967
24038DPPC   NC328867   8.142   6.087  20.990  0.1281  0.3077  0.2494
24038DPPC   PO428868   8.274   5.849  20.689  0.2627  0.0662 -0.0820
24038DPPC   GL128869   8.420   5.839  20.398 -0.1437 -0.4264  0.0136
24038DPPC   GL228870   8.347   6.067  20.270  0.0261  0.1324  0.1144
24038DPPC   C1A28871   8.522   5.733  20.046  0.2936 -0.0799 -0.0194
24038DPPC   C2A28872   8.454   5.866  19.649  0.2998  0.0364 -0.3384
24038DPPC   C3A28873   8.546   6.033  19.203  0.2647  0.1798 -0.0198
24038DPPC   C4A28874   8.342   6.035  18.757  0.0290 -0.2310 -0.2612
24038DPPC   C1B28875   8.531   6.202  19.943  0.3867  0.0984 -0.0360
24038DPPC   C2B28876   8.779   6.271  19.587 -0.2229  0.0162  0.1304
24038DPPC   C3B28877   8.872   6.337  19.077  0.0963  0.2379  0.0593
24038DPPC   C4B28878   8.834   6.296  18.583 -0.0204 -0.0860  0.2652
24039DPPC   NC328879   6.878   0.834  20.437 -0.2463 -0.0105 -0.0483
24039DPPC   PO428880   6.846   0.509  20.264  0.2581 -0.3238 -0.2265
24039DPPC   GL128881   6.767   0.498  19.825 -0.1258  0.0438 -0.0892
24039DPPC   GL228882   6.901   0.205  19.840  0.2311  0.1525  0.0309
24039DPPC   C1A28883   6.933   0.488  19.485  0.1528  0.2103 -0.5534
24039DPPC   C2A28884   6.979   0.461  19.110  0.1160  0.0666 -0.0338
24039DPPC   C3A28885   6.930   0.496  18.682 -0.1524  0.0192 -0.1392
24039DPPC   C4A28886   6.889   0.378  18.252  0.3219  0.0534  0.0204
24039DPPC   C1B28887   6.979  -0.015  19.585 -0.1302  0.0553  0.3376
24039DPPC   C2B28888   6.931  -0.009  19.194 -0.0501 -0.2038  0.5398
24039DPPC   C3B28889   6.979   0.033  18.715  0.2677  0.0038 -0.0773
24039DPPC   C4B28890   7.010  -0.118  18.280  0.2911  0.1976 -0.0617
24040DPPC   NC328891   1.582   5.262  20.525 -0.1372 -0.1505 -0.1827
24040DPPC   PO428892   1.953   5.099  20.407 -0.0268 -0.1559 -0.4460
24040DPPC   GL128893   2.191   5.230  20.026  0.1231  0.2289 -0.1701
24040DPPC   GL228894   2.363   5.422  20.108 -0.1558 -0.2249 -0.0303
24040DPPC   C1A28895   2.286   5.081  19.715 -0.0040  0.0154 -0.3102
24040DPPC   C2A28896   2.381   4.942  19.371 -0.3310 -0.2825  0.4554
24040DPPC   C3A28897   2.440   4.892  18.846 -0.1136 -0.0556 -0.3240
24040DPPC   C4A28898   2.482   4.887  18.317 -0.1101  0.2544  0.1248
24040DPPC   C1B28899   2.552   5.503  19.828 -0.1066 -0.0166 -0.0959
24040DPPC   C2B28900   2.628   5.786  19.465  0.3438 -0.2907 -0.2216
24040DPPC   C3B28901   2.661   5.761  18.976 -0.1127  0.2353  0.0953
24040DPPC   C4B28902   2.671   5.733  18.411  0.1056 -0.0067 -0.0500
24041DPPC   NC328903   7.510   0.237  20.493  0.0365  0.2388  0.2027
24041DPPC   PO428904   7.774   0.499  20.548  0.0802  0.3962 -0.5372
24041DPPC   GL128905   7.885   0.535  20.204  0.1507 -0.1082 -0.3081
24041DPPC   GL228906   7.938   0.761  20.069 -0.0760 -0.3680  0.1654
24041DPPC   C1A28907   7.946   0.385  19.876 -0.2003  0.0532  0.0574
24041DPPC   C2A28908   7.932   0.141  19.593 -0.3257 -0.1594 -0.1233
24041DPPC   C3A28909   7.898   0.111  19.121 -0.0831  0.2757  0.2488
24041DPPC   C4A28910   7.854   0.079  18.610  0.1563 -0.2421  0.1607
24041DPPC   C1B28911   7.787   0.751  19.714  0.2650  0.2247 -0.1841
24041DPPC   C2B28912   7.792   0.597  19.319  0.0716 -0.0774  0.0489
24041DPPC   C3B28913   7.813   0.556  18.861 -0.1397 -0.0893  0.1239
24041DPPC   C4B28914   7.866   0.628  18.393  0.2630  0.1126  0.0106
24042DPPC   NC328915   4.342   2.650  20.917  0.0444 -0.2760  0.0264
24042DPPC   PO428916   4.461   2.900  20.626 -0.1098  0.1459 -0.2554
24042DPPC   GL128917   4.274   2.877  20.269 -0.1498 -0.1238 -0.1359
24042DPPC   GL228918   4.512   2.795  20.140 -0.1833  0.1642  0.1726
24042DPPC   C1A28919   4.049   2.943  19.968 -0.2390 -0.3715  0.1940
24042DPPC   C2A28920   3.924   2.923  19.606  0.0273  0.0664 -0.3818
24042DPPC   C3A28921   3.963   2.921  19.096  0.0352  0.2372  0.2965
24042DPPC   C4A28922   3.975   2.915  18.616  0.2609 -0.1735 -0.0501
24042DPPC   C1B28923   4.412   2.812  19.757  0.1306 -0.0110  0.0235
24042DPPC   C2B28924   4.417   2.763  19.327 -0.0313  0.2045  0.0345
24042DPPC   C3B28925   4.403   2.736  18.876  0.3704  0.0695  0.0294
24042DPPC   C4B28926   4.383   2.625  18.408  0.0587 -0.0111 -0.1281
24043DPPC   NC328927   6.175   4.523  21.086  0.1768 -0.0288 -0.1063
24043DPPC   PO428928   5.881   4.342  20.883 -0.1231  0.0772 -0.3001
24043DPPC   GL128929   5.949   4.366  20.487  0.0025  0.5865 -0.0696
24043DPPC   GL228930   6.140   4.501  20.397  0.0268 -0.0271 -0.0526
24043DPPC   C1A28931   5.729   4.311  20.163 -0.1253 -0.5189 -0.2580
24043DPPC   C2A28932   5.670   4.271  19.751 -0.2162  0.2458 -0.1311
24043DPPC   C3A28933   5.625   4.177  19.300  0.1825 -0.0922  0.0850
24043DPPC   C4A28934   5.540   4.163  18.852 -0.0906 -0.0740  0.4702
24043DPPC   C1B28935   6.336   4.465  20.096  0.0538 -0.1556 -0.0999
24043DPPC   C2B28936   6.559   4.476  19.779 -0.2534  0.1797  0.1024
24043DPPC   C3B28937   6.470   4.453  19.307  0.1506 -0.0234  0.1160
24043DPPC   C4B28938   6.473   4.400  18.801  0.1635 -0.1021 -0.2166
24044DPPC   NC328939   7.119   5.511  20.502 -0.0554 -0.2889 -0.0197
24044DPPC   PO428940   6.920   5.727  20.246 -0.0008  0.1703 -0.2068
24044DPPC   GL128941   6.770   5.613  19.896 -0.1507  0.2899 -0.2194
24044DPPC   GL228942   6.534   5.802  19.858  0.1359  0.1260 -0.5353
24044DPPC   C1A28943   6.762   5.372  19.625  0.0188 -0.2425  0.2410
24044DPPC   C2A28944   6.754   5.317  19.207  0.0737 -0.0820  0.0506
24044DPPC   C3A28945   6.771   5.248  18.704 -0.0237  0.0922 -0.0496
24044DPPC   C4A28946   6.730   5.200  18.224  0.0051  0.1321 -0.0623
24044DPPC   C1B28947   6.540   5.758  19.484 -0.2187  0.0447  0.1060
24044DPPC   C2B28948   6.595   5.808  19.041 -0.1886  0.1268 -0.0898
24044DPPC   C3B28949   6.637   5.716  18.559 -0.1671 -0.1149 -0.1132
24044DPPC   C4B28950   6.734   5.762  18.065  0.3675 -0.1058  0.1181
24045DPPC   NC328951   6.582   6.493  20.793  0.2422 -0.0111 -0.1592
24045DPPC   PO428952   6.593   6.188  20.578 -0.1625 -0.0916  0.1676
24045DPPC   GL128953   6.555   6.228  20.167  0.0732  0.0820  0.0911
24045DPPC   GL228954   6.310   6.461  20.207  0.2656  0.0073 -0.0709
24045DPPC   C1A28955   6.755   6.275  19.894 -0.3287 -0.0923  0.0021
24045DPPC   C2A28956   6.892   6.072  19.538 -0.2210  0.1377 -0.3136
24045DPPC   C3A28957   6.982   6.155  19.063 -0.0925  0.0843  0.2692
24045DPPC   C4A28958   7.055   6.048  18.551 -0.0010 -0.1736  0.0133
24045DPPC   C1B28959   6.433   6.680  19.911  0.0479  0.0380  0.0856
24045DPPC   C2B28960   6.541   6.765  19.477  0.3761  0.1446 -0.1225
24045DPPC   C3B28961   6.555   6.815  18.937  0.0533  0.0908  0.1840
24045DPPC   C4B28962   6.551   6.698  18.496 -0.0348 -0.0216  0.1234
24046DPPC   NC328963   4.226   5.980  20.851  0.0240  0.1175  0.0065
24046DPPC   PO428964   4.085   5.726  20.589  0.0651 -0.0133 -0.2264
24046DPPC   GL128965   4.199   5.656  20.122  0.0482 -0.1060 -0.0671
24046DPPC   GL228966   4.529   5.737  20.246 -0.2099 -0.0434  0.1341
24046DPPC   C1A28967   4.024   5.361  19.887 -0.2576 -0.0635  0.1819
24046DPPC   C2A28968   4.116   5.315  19.472  0.0825 -0.0844  0.0481
24046DPPC   C3A28969   4.187   5.220  19.014  0.2208 -0.0504  0.0007
24046DPPC   C4A28970   4.151   5.241  18.519 -0.1584  0.0672 -0.2130
24046DPPC   C1B28971   4.715   5.747  19.930 -0.1660 -0.0574 -0.2800
24046DPPC   C2B28972   4.873   5.809  19.593 -0.0010  0.0373  0.1549
24046DPPC   C3B28973   4.848   5.931  19.095  0.1406  0.0296 -0.3983
24046DPPC   C4B28974   4.843   5.917  18.676 -0.0569 -0.0765 -0.1864
24047DPPC   NC328975   7.023   3.964  20.983 -0.1050  0.3514  0.1040
24047DPPC   PO428976   7.083   4.084  20.634 -0.1372  0.2966 -0.0990
24047DPPC   GL128977   6.989   3.876  20.268  0.0392  0.1245 -0.0467
24047DPPC   GL228978   7.188   4.085  20.181  0.2236  0.1676 -0.2254
24047DPPC   C1A28979   6.784   3.902  20.022  0.3699 -0.0701 -0.1008
24047DPPC   C2A28980   6.543   3.980  19.678  0.2140  0.0968 -0.0589
24047DPPC   C3A28981   6.465   3.926  19.219  0.0840  0.0677  0.0300
24047DPPC   C4A28982   6.452   3.828  18.755  0.0748 -0.1782  0.2218
24047DPPC   C1B28983   7.091   4.143  19.819  0.5309 -0.0409 -0.3060
24047DPPC   C2B28984   6.893   4.218  19.465 -0.4017  0.2424  0.3834
24047DPPC   C3B28985   6.853   4.180  19.022 -0.1340  0.1680 -0.1280
24047DPPC   C4B28986   6.908   4.157  18.563  0.1551 -0.0221  0.2388
24048DPPC   NC328987   6.647   4.772  20.289  0.2034  0.0036  0.1352
24048DPPC   PO428988   6.300   4.950  20.329  0.0060  0.3386 -0.0430
24048DPPC   GL128989   6.273   4.920  19.989 -0.2346  0.0041  0.1009
24048DPPC   GL228990   6.098   5.158  19.965 -0.0199 -0.0462 -0.3710
24048DPPC   C1A28991   6.280   4.861  19.575 -0.2698  0.2237  0.0346
24048DPPC   C2A28992   6.384   4.911  19.130  0.2139 -0.1561 -0.3839
24048DPPC   C3A28993   6.391   4.916  18.662 -0.2715 -0.0282 -0.1701
24048DPPC   C4A28994   6.315   4.840  18.171  0.1520 -0.1702 -0.4770
24048DPPC   C1B28995   5.911   5.359  19.721  0.0908 -0.1713  0.0471
24048DPPC   C2B28996   5.808   5.591  19.416  0.0077  0.0234 -0.1161
24048DPPC   C3B28997   5.786   5.669  18.982 -0.1224 -0.0641  0.2143
24048DPPC   C4B28998   5.801   5.536  18.542 -0.0354 -0.0296  0.0961
24049DPPC   NC328999   4.616   4.357  20.298 -0.1099 -0.1448 -0.0575
24049DPPC   PO429000   4.912   4.426  20.503 -0.1391 -0.1852  0.2769
24049DPPC   GL129001   5.288   4.246  20.341  0.1520  0.1051  0.3508
24049DPPC   GL229002   5.266   4.560  20.157 -0.2780  0.3967  0.1651
24049DPPC   C1A29003   5.369   3.949  20.149 -0.1763 -0.4303  0.3171
24049DPPC   C2A29004   5.263   3.891  19.778  0.0954  0.1786  0.2551
24049DPPC   C3A29005   5.181   3.906  19.320 -0.2222  0.0548  0.0779
24049DPPC   C4A29006   5.180   3.844  18.859  0.0153  0.2094  0.1472
24049DPPC   C1B29007   5.386   4.670  19.832 -0.0003 -0.0334  0.1221
24049DPPC   C2B29008   5.442   4.769  19.437  0.1032  0.2049  0.1606
24049DPPC   C3B29009   5.527   4.731  18.941 -0.0660  0.0111 -0.1061
24049DPPC   C4B29010   5.505   4.633  18.493 -0.1766 -0.3168  0.1489
24050DPPC   NC329011   4.750   6.149  20.227 -0.0248 -0.0248  0.3879
24050DPPC   PO429012   4.377   6.143  20.372 -0.3277 -0.2016  0.1633
24050DPPC   GL129013   4.279   6.139  20.109 -0.1470  0.1384  0.2696
24050DPPC   GL229014   3.997   6.028  20.143  0.2474  0.2415 -0.0286
24050DPPC   C1A29015   4.430   6.108  19.792  0.1377 -0.2527  0.0604
24050DPPC   C2A29016   4.401   6.065  19.379  0.0841  0.1569 -0.0903
24050DPPC   C3A29017   4.366   6.105  18.937  0.1824  0.2580 -0.0024
24050DPPC   C4A29018   4.468   6.196  18.485 -0.1308  0.1861 -0.2191
24050DPPC   C1B29019   3.963   5.847  19.814  0.0535  0.1978  0.3662
24050DPPC   C2B29020   3.945   5.822  19.399 -0.2607 -0.2735 -0.2975
24050DPPC   C3B29021   3.965   5.752  18.941  0.0341  0.0994 -0.0918
24050DPPC   C4B29022   3.962   5.728  18.431 -0.1104 -0.2844 -0.3344
24051DPPC   NC329023   7.681   1.002  20.357  0.2006  0.3794 -0.1804
24051DPPC   PO429024   7.414   0.734  20.213 -0.1166  0.2680  0.0045
24051DPPC   GL129025   7.266   0.715  19.908  0.1189  0.0136 -0.0113
24051DPPC   GL229026   6.963   0.815  19.964  0.1827 -0.0914 -0.1859
24051DPPC   C1A29027   7.357   0.752  19.584  0.2191  0.0738 -0.0042
24051DPPC   C2A29028   7.367   0.753  19.156  0.3004  0.4602 -0.2420
24051DPPC   C3A29029   7.382   0.690  18.679 -0.0151 -0.2689  0.1332
24051DPPC   C4A29030   7.262   0.668  18.217 -0.0777  0.0740  0.0006
24051DPPC   C1B29031   6.790   0.881  19.648  0.1702 -0.4046  0.1139
24051DPPC   C2B29032   6.896   0.945  19.262  0.3265  0.1069  0.2963
24051DPPC   C3B29033   6.870   1.030  18.821 -0.1712 -0.1130 -0.1754
24051DPPC   C4B29034   6.820   0.863  18.363  0.0084  0.1840 -0.3307
24052DPPC   NC329035   7.018   6.230  20.296 -0.1878 -0.1175 -0.2611
24052DPPC   PO429036   7.141   6.515  20.565 -0.2140  0.2232 -0.3666
24052DPPC   GL129037   7.186   6.791  20.105  0.0290  0.1429 -0.0050
24052DPPC   GL229038   7.229   6.547  20.036  0.3058  0.2611 -0.2055
24052DPPC   C1A29039   7.476   6.864  19.869  0.0514 -0.1134 -0.1624
24052DPPC   C2A29040   7.401   6.920  19.438 -0.1225  0.0409  0.2506
24052DPPC   C3A29041   7.450   6.880  18.941  0.1745  0.2640 -0.1765
24052DPPC   C4A29042   7.416   6.832  18.460 -0.1701 -0.1421  0.1845
24052DPPC   C1B29043   7.416   6.465  19.670  0.2442 -0.0207 -0.0417
24052DPPC   C2B29044   7.395   6.366  19.272 -0.3110 -0.1612  0.0134
24052DPPC   C3B29045   7.420   6.364  18.776 -0.1811  0.0934  0.0514
24052DPPC   C4B29046   7.480   6.319  18.269 -0.3340  0.0182 -0.1428
24053DPPC   NC329047   3.382   4.732  20.134 -0.0754 -0.0123 -0.3299
24053DPPC   PO429048   3.805   4.725  20.093  0.0912 -0.0848 -0.1201
24053DPPC   GL129049   4.121   4.624  19.879 -0.3268 -0.2325  0.2438
24053DPPC   GL229050   4.252   4.411  19.969 -0.0706 -0.0914  0.3099
24053DPPC   C1A29051   4.208   4.664  19.532  0.0171  0.3211 -0.1138
24053DPPC   C2A29052   4.189   4.705  19.130  0.1346 -0.1026  0.2089
24053DPPC   C3A29053   4.255   4.709  18.642 -0.0174  0.1357 -0.1554
24053DPPC   C4A29054   4.279   4.724  18.172  0.0572 -0.0961  0.1262
24053DPPC   C1B29055   4.237   4.225  19.628 -0.1429  0.0089 -0.0706
24053DPPC   C2B29056   4.263   4.234  19.258 -0.0252  0.1587  0.4246
24053DPPC   C3B29057   4.310   4.238  18.747 -0.0815 -0.2967 -0.2025
24053DPPC   C4B29058   4.385   4.225  18.300  0.1515  0.4662 -0.1579
24054DPPC   NC329059   7.756   1.794  20.565  0.1092  0.0220  0.0010
24054DPPC   PO429060   7.584   1.454  20.560 -0.3699 -0.3952  0.0483
24054DPPC   GL129061   7.355   1.470  20.299  0.2107 -0.0505  0.0945
24054DPPC   GL229062   7.587   1.401  20.169 -0.0773  0.0443 -0.1792
24054DPPC   C1A29063   7.259   1.535  19.959  0.0275 -0.1130 -0.5027
24054DPPC   C2A29064   7.188   1.777  19.628  0.0392  0.0542  0.0771
24054DPPC   C3A29065   7.203   1.812  19.139  0.0090 -0.1155 -0.2815
24054DPPC   C4A29066   7.199   1.723  18.650 -0.0899  0.0337  0.3453
24054DPPC   C1B29067   7.635   1.215  19.863  0.3243  0.0788 -0.3140
24054DPPC   C2B29068   7.750   1.180  19.481  0.2137  0.0171 -0.0891
24054DPPC   C3B29069   7.738   1.042  19.037  0.3339 -0.0860 -0.3951
24054DPPC   C4B29070   7.749   1.097  18.525  0.0829 -0.1938  0.2460
24055DPPC   NC329071   5.644   1.476  20.587  0.1846 -0.2979  0.0097
24055DPPC   PO429072   5.692   1.852  20.622  0.1894 -0.0726 -0.0712
24055DPPC   GL129073   5.800   2.030  20.372  0.4446 -0.0161  0.4758
24055DPPC   GL229074   5.981   1.778  20.218  0.3133  0.0168 -0.2116
24055DPPC   C1A29075   5.785   2.204  20.066 -0.1327 -0.0100  0.0291
24055DPPC   C2A29076   5.777   2.197  19.694  0.0338 -0.2430  0.0634
24055DPPC   C3A29077   5.798   2.212  19.201  0.1216  0.1782  0.1283
24055DPPC   C4A29078   5.885   2.200  18.724  0.3432 -0.0084  0.2232
24055DPPC   C1B29079   5.868   1.427  20.039  0.1757 -0.0028 -0.4441
24055DPPC   C2B29080   5.949   1.286  19.692  0.2058 -0.1855 -0.1660
24055DPPC   C3B29081   5.943   1.348  19.241 -0.1312  0.0894  0.1412
24055DPPC   C4B29082   5.965   1.169  18.795 -0.0343  0.0299  0.1647
24056DPPC   NC329083   6.413   5.733  20.464 -0.0400 -0.0341 -0.1294
24056DPPC   PO429084   6.602   5.380  20.414 -0.0638 -0.0742 -0.1287
24056DPPC   GL129085   6.969   5.232  20.172  0.1110  0.0496  0.4195
24056DPPC   GL229086   6.710   5.146  20.052  0.3778 -0.1749 -0.1552
24056DPPC   C1A29087   7.129   5.079  19.877  0.0277  0.0070  0.1697
24056DPPC   C2A29088   7.157   5.175  19.504 -0.2114  0.1141  0.2642
24056DPPC   C3A29089   7.234   5.075  19.083  0.1782 -0.1226  0.1441
24056DPPC   C4A29090   7.218   5.056  18.596  0.1418  0.0005  0.0126
24056DPPC   C1B29091   6.707   4.933  19.758  0.2501 -0.0459  0.1197
24056DPPC   C2B29092   6.797   4.822  19.377 -0.0505  0.0265  0.1872
24056DPPC   C3B29093   6.806   4.752  18.864 -0.3399 -0.1956  0.1550
24056DPPC   C4B29094   6.818   4.740  18.374  0.0071 -0.2413  0.1292
24057DPPC   NC329095   3.120   0.712  20.466  0.2681 -0.0150  0.3947
24057DPPC   PO429096   2.825   0.446  20.332  0.1910  0.0614 -0.0119
24057DPPC   GL129097   2.518   0.535  20.056  0.1595  0.1260  0.1008
24057DPPC   GL229098   2.632   0.340  19.913 -0.0097  0.3017 -0.3447
24057DPPC   C1A29099   2.499   0.706  19.772  0.0487  0.2825 -0.1192
24057DPPC   C2A29100   2.449   0.704  19.373 -0.0594 -0.1321  0.1579
24057DPPC   C3A29101   2.372   0.584  18.970  0.0423  0.0067  0.1525
24057DPPC   C4A29102   2.483   0.571  18.525  0.2809  0.0224  0.0746
24057DPPC   C1B29103   2.529   0.294  19.568 -0.1067 -0.0317  0.2277
24057DPPC   C2B29104   2.515   0.173  19.224  0.1114  0.0592 -0.2880
24057DPPC   C3B29105   2.504   0.114  18.741 -0.0043  0.0068 -0.1881
24057DPPC   C4B29106   2.556   0.141  18.232  0.3596  0.1454 -0.4215
24058DPPC   NC329107   3.667   5.896  20.416 -0.4066  0.0299  0.1107
24058DPPC   PO429108   3.627   5.548  20.419  0.0872  0.1334  0.3556
24058DPPC   GL129109   3.648   5.428  20.027  0.0368 -0.0547 -0.0767
24058DPPC   GL229110   3.638   5.159  20.007 -0.0021 -0.1063 -0.2067
24058DPPC   C1A29111   3.589   5.549  19.681  0.3028  0.3377 -0.1100
24058DPPC   C2A29112   3.613   5.483  19.250 -0.0227 -0.0552 -0.0836
24058DPPC   C3A29113   3.666   5.407  18.752 -0.0343 -0.1716 -0.1911
24058DPPC   C4A29114   3.630   5.390  18.288  0.0294 -0.3017 -0.0099
24058DPPC   C1B29115   3.732   5.119  19.668  0.1857  0.0036 -0.1144
24058DPPC   C2B29116   3.781   4.984  19.277  0.0789  0.0248 -0.1014
24058DPPC   C3B29117   3.818   4.925  18.774 -0.0859 -0.2798  0.0991
24058DPPC   C4B29118   3.759   4.897  18.287  0.1052 -0.1863 -0.0906
24059DPPC   NC329119   6.024   0.582  20.462  0.1233 -0.0932  0.1301
24059DPPC   PO429120   5.919   0.221  20.458  0.3838  0.0159  0.1774
24059DPPC   GL129121   5.571   0.251  20.185 -0.2404 -0.2888  0.1034
24059DPPC   GL229122   5.697   0.543  20.103 -0.1314  0.0411  0.2824
24059DPPC   C1A29123   5.613   0.082  19.858 -0.1351  0.1272  0.0792
24059DPPC   C2A29124   5.612  -0.029  19.424 -0.0003  0.0467 -0.0440
24059DPPC   C3A29125   5.629  -0.007  18.997 -0.1542 -0.0140  0.1761
24059DPPC   C4A29126   5.678   0.022  18.492 -0.0937 -0.0618  0.0345
24059DPPC   C1B29127   5.696   0.539  19.724  0.0228 -0.2764  0.1781
24059DPPC   C2B29128   5.649   0.541  19.271  0.1836  0.1919  0.0200
24059DPPC   C3B29129   5.685   0.513  18.804  0.0610  0.2300  0.1629
24059DPPC   C4B29130   5.565   0.458  18.314  0.0079  0.1889  0.1258
24060DPPC   NC329131   3.933   4.670  20.574  0.0677  0.2760 -0.1973
24060DPPC   PO429132   4.308   4.696  20.473  0.0007 -0.0162 -0.0151
24060DPPC   GL129133   4.517   4.746  20.096  0.3011 -0.3067  0.0498
24060DPPC   GL229134   4.308   4.998  20.024 -0.2070 -0.0431  0.2269
24060DPPC   C1A29135   4.570   4.609  19.753 -0.2205  0.2144  0.5205
24060DPPC   C2A29136   4.738   4.563  19.311 -0.1266  0.1663 -0.0310
24060DPPC   C3A29137   4.697   4.598  18.831 -0.0955  0.1023  0.1099
24060DPPC   C4A29138   4.784   4.534  18.301  0.0928  0.2380 -0.0296
24060DPPC   C1B29139   4.407   5.015  19.680 -0.0313 -0.1756  0.0883
24060DPPC   C2B29140   4.560   5.120  19.310 -0.0186 -0.0485 -0.3271
24060DPPC   C3B29141   4.633   5.055  18.811  0.0918  0.0962  0.2020
24060DPPC   C4B29142   4.562   5.115  18.335 -0.0811 -0.1085 -0.0469
24061DPPC   NC329143   4.387   6.534  20.696  0.0790  0.5612  0.0994
24061DPPC   PO429144   4.696   6.625  20.418 -0.1237 -0.1379 -0.1491
24061DPPC   GL129145   4.740   6.733  19.973  0.0247  0.2430 -0.2815
24061DPPC   GL229146   4.499   6.500  20.012  0.0835 -0.0555  0.2387
24061DPPC   C1A29147   4.696   6.924  19.685 -0.0687  0.2622 -0.2049
24061DPPC   C2A29148   4.740   6.921  19.292 -0.0329 -0.1045 -0.2365
24061DPPC   C3A29149   4.751   6.964  18.860  0.4553  0.0990  0.2666
24061DPPC   C4A29150   4.632   7.024  18.417 -0.0542 -0.2684 -0.2002
24061DPPC   C1B29151   4.289   6.594  19.712 -0.1401 -0.1853 -0.2209
24061DPPC   C2B29152   4.387   6.598  19.344 -0.2789  0.2756  0.0760
24061DPPC   C3B29153   4.243   6.598  18.852 -0.0456  0.1304 -0.1624
24061DPPC   C4B29154   4.242   6.560  18.348  0.1341 -0.0901  0.0125
24062DPPC   NC329155   6.014   1.194  21.063 -0.1561 -0.1999  0.0001
24062DPPC   PO429156   6.093   1.072  20.694 -0.3803 -0.3905 -0.0963
24062DPPC   GL129157   5.960   1.031  20.316  0.1220 -0.3955 -0.1825
24062DPPC   GL229158   5.648   1.017  20.348  0.0927 -0.1648 -0.0626
24062DPPC   C1A29159   5.992   0.842  19.973  0.2911 -0.1914 -0.2011
24062DPPC   C2A29160   6.022   0.766  19.540 -0.0601 -0.2632 -0.0975
24062DPPC   C3A29161   5.994   0.753  19.065 -0.0485  0.1140 -0.5238
24062DPPC   C4A29162   5.981   0.751  18.546 -0.0638 -0.0127  0.2060
24062DPPC   C1B29163   5.569   1.017  20.012 -0.1408  0.1195  0.1402
24062DPPC   C2B29164   5.571   1.009  19.553 -0.1582  0.1777  0.1984
24062DPPC   C3B29165   5.551   1.025  19.030  0.2725 -0.1187  0.0526
24062DPPC   C4B29166   5.497   0.921  18.550 -0.2580 -0.0124 -0.1149
24063DPPC   NC329167   8.767   2.580  20.861 -0.2146 -0.2718  0.0931
24063DPPC   PO429168   8.963   2.296  20.733  0.0574 -0.0570  0.0159
24063DPPC   GL129169   8.990   2.275  20.316 -0.0445  0.2736  0.0044
24063DPPC   GL229170   9.088   2.545  20.262  0.0252  0.3700  0.2313
24063DPPC   C1A29171   8.938   2.056  20.010  0.0158 -0.0411  0.3292
24063DPPC   C2A29172   8.947   2.067  19.611  0.1581  0.0746 -0.2411
24063DPPC   C3A29173   8.901   2.058  19.138  0.1474 -0.1679  0.0318
24063DPPC   C4A29174   8.914   2.015  18.626 -0.1041  0.2035  0.1243
24063DPPC   C1B29175   9.294   2.367  19.980  0.3059 -0.4269  0.0361
24063DPPC   C2B29176   9.349   2.380  19.597  0.1101 -0.2790 -0.1433
24063DPPC   C3B29177   9.342   2.304  19.109  0.2267 -0.1072  0.0650
24063DPPC   C4B29178   9.342   2.308  18.586  0.1225 -0.1545 -0.2567
24064DPPC   NC329179   6.436   3.066  21.041 -0.1288  0.1251  0.2355
24064DPPC   PO429180   6.460   2.739  20.832  0.0974 -0.0301 -0.1583
24064DPPC   GL129181   6.493   2.695  20.426 -0.5449  0.2095 -0.5380
24064DPPC   GL229182   6.540   2.427  20.315 -0.1649 -0.0282 -0.0080
24064DPPC   C1A29183   6.531   2.810  20.124  0.2272  0.0520  0.0855
24064DPPC   C2A29184   6.595   2.927  19.717  0.3713  0.0891  0.1563
24064DPPC   C3A29185   6.652   2.976  19.221  0.1223  0.1188  0.1907
24064DPPC   C4A29186   6.606   2.901  18.782  0.2669 -0.2541 -0.2771
24064DPPC   C1B29187   6.600   2.446  19.930 -0.3082 -0.0753  0.3529
24064DPPC   C2B29188   6.680   2.418  19.490  0.2694  0.0569 -0.0865
24064DPPC   C3B29189   6.669   2.379  19.000  0.1182 -0.1437 -0.0192
24064DPPC   C4B29190   6.637   2.402  18.433 -0.0799  0.1559 -0.0508
24065DPPC   NC329191  10.021   3.398  20.435 -0.1270 -0.0727  0.0357
24065DPPC   PO429192   9.663   3.470  20.338 -0.0698 -0.0916  0.2259
24065DPPC   GL129193   9.623   3.281  19.902  0.0225  0.1304  0.4472
24065DPPC   GL229194   9.329   3.311  19.998 -0.2923 -0.1375  0.0782
24065DPPC   C1A29195   9.703   3.132  19.573  0.0431  0.1304  0.0631
24065DPPC   C2A29196   9.664   3.179  19.145 -0.5115 -0.0945 -0.3007
24065DPPC   C3A29197   9.671   3.217  18.662 -0.0093 -0.0812 -0.0613
24065DPPC   C4A29198   9.652   3.263  18.118  0.0090  0.1944  0.0750
24065DPPC   C1B29199   9.243   3.355  19.657  0.1487 -0.1455 -0.3952
24065DPPC   C2B29200   9.161   3.345  19.289  0.0139  0.5333 -0.0363
24065DPPC   C3B29201   9.212   3.324  18.830 -0.3123 -0.1280  0.1057
24065DPPC   C4B29202   9.151   3.351  18.373  0.0080  0.0265 -0.0992
24066DPPC   NC329203   7.381   2.432  20.472  0.1219  0.2559 -0.0139
24066DPPC   PO429204   7.641   2.190  20.306  0.1721 -0.0444 -0.0659
24066DPPC   GL129205   7.672   2.259  19.990  0.0253 -0.1812  0.2375
24066DPPC   GL229206   7.890   2.453  19.905  0.0405  0.0027  0.1748
24066DPPC   C1A29207   7.559   2.138  19.629  0.0183 -0.1641 -0.3117
24066DPPC   C2A29208   7.611   2.110  19.233  0.2090 -0.2375  0.2812
24066DPPC   C3A29209   7.603   2.097  18.723  0.3062  0.0378 -0.0502
24066DPPC   C4A29210   7.660   2.053  18.235  0.0714  0.0560 -0.2134
24066DPPC   C1B29211   8.045   2.497  19.553 -0.0520  0.0435 -0.3358
24066DPPC   C2B29212   8.001   2.402  19.164  0.2147 -0.0220  0.1469
24066DPPC   C3B29213   7.965   2.364  18.635 -0.1609 -0.0883  0.1662
24066DPPC   C4B29214   8.013   2.459  18.165 -0.1915  0.1311 -0.1651
24067DPPC   NC329215   2.651   1.828  20.671 -0.2314 -0.2924 -0.2161
24067DPPC   PO429216   2.989   1.655  20.633 -0.1218 -0.0454 -0.0058
24067DPPC   GL129217   3.130   1.638  20.249  0.0886 -0.2644 -0.3741
24067DPPC   GL229218   2.894   1.724  20.157 -0.1655 -0.0997  0.0758
24067DPPC   C1A29219   3.290   1.539  20.005 -0.3007  0.0169 -0.0244
24067DPPC   C2A29220   3.272   1.319  19.638 -0.1575 -0.1096 -0.0892
24067DPPC   C3A29221   3.199   1.286  19.188  0.0356 -0.1106  0.1365
24067DPPC   C4A29222   3.245   1.316  18.669 -0.3151  0.6409  0.0426
24067DPPC   C1B29223   2.884   1.644  19.764  0.0421 -0.2514  0.5043
24067DPPC   C2B29224   2.820   1.469  19.392 -0.0583  0.1590 -0.2394
24067DPPC   C3B29225   2.825   1.482  18.932 -0.1648 -0.0242  0.3619
24067DPPC   C4B29226   2.767   1.333  18.443 -0.1578  0.3332  0.1696
24068DPPC   NC329227   6.955   1.638  20.634  0.0283 -0.1957 -0.0878
24068DPPC   PO429228   7.253   1.877  20.536  0.1950  0.0304 -0.0231
24068DPPC   GL129229   7.251   1.973  20.101 -0.1173  0.1495  0.2322
24068DPPC   GL229230   7.564   1.827  20.053  0.1172  0.2601  0.4081
24068DPPC   C1A29231   6.925   1.823  19.972  0.3146 -0.0830 -0.1795
24068DPPC   C2A29232   6.666   1.925  19.704  0.0937  0.3130 -0.3160
24068DPPC   C3A29233   6.716   1.974  19.231  0.0883 -0.0952  0.0912
24068DPPC   C4A29234   6.712   1.926  18.724 -0.1311 -0.1795 -0.1781
24068DPPC   C1B29235   7.651   1.723  19.699 -0.1017 -0.0621 -0.0317
24068DPPC   C2B29236   7.618   1.644  19.272 -0.0895  0.1926  0.1460
24068DPPC   C3B29237   7.672   1.540  18.879  0.4443 -0.0823  0.1258
24068DPPC   C4B29238   7.599   1.553  18.445 -0.1716 -0.1100  0.0652
24069DPPC   NC329239   3.857   0.350  20.239 -0.0597 -0.2722 -0.4065
24069DPPC   PO429240   3.516   0.481  20.358  0.2602  0.0385 -0.2346
24069DPPC   GL129241   3.216   0.471  20.078 -0.2217 -0.1568  0.0785
24069DPPC   GL229242   3.120   0.291  19.966 -0.1173 -0.3073  0.2094
24069DPPC   C1A29243   3.371   0.627  19.809  0.0527 -0.0016  0.2146
24069DPPC   C2A29244   3.375   0.778  19.435  0.1963  0.1053 -0.1481
24069DPPC   C3A29245   3.237   0.741  18.992  0.2171  0.1048  0.2791
24069DPPC   C4A29246   3.272   0.832  18.510 -0.2084  0.3565  0.0082
24069DPPC   C1B29247   3.269   0.279  19.553 -0.3179  0.1376 -0.0956
24069DPPC   C2B29248   3.363   0.261  19.146 -0.0526 -0.0712 -0.0937
24069DPPC   C3B29249   3.368   0.229  18.695 -0.2442  0.0054  0.0503
24069DPPC   C4B29250   3.344   0.135  18.236  0.1335  0.3034 -0.2197
24070DPPC   NC329251   9.428   2.118  20.514 -0.0900  0.0815 -0.0345
24070DPPC   PO429252   9.119   1.856  20.568 -0.4409  0.0478 -0.0593
24070DPPC   GL129253   8.982   1.653  20.242 -0.1361  0.0740 -0.1300
24070DPPC   GL229254   9.234   1.714  20.064 -0.0732 -0.0919 -0.2028
24070DPPC   C1A29255   8.752   1.630  19.976  0.0240  0.3905 -0.1363
24070DPPC   C2A29256   8.560   1.833  19.651  0.4296  0.0692  0.2686
24070DPPC   C3A29257   8.495   1.757  19.215 -0.1910  0.1140  0.1242
24070DPPC   C4A29258   8.477   1.697  18.696 -0.0338 -0.2421 -0.2221
24070DPPC   C1B29259   9.327   1.770  19.710  0.3726 -0.8268  0.2654
24070DPPC   C2B29260   9.371   1.866  19.322  0.2255  0.0314  0.0709
24070DPPC   C3B29261   9.316   1.876  18.851  0.1063 -0.1216 -0.0364
24070DPPC   C4B29262   9.384   1.876  18.348 -0.1364  0.0699 -0.1088
24071DPPC   NC329263   4.833   0.635  21.194  0.2199  0.1345 -0.1364
24071DPPC   PO429264   4.629   0.850  20.925  0.0031  0.0800  0.1576
24071DPPC   GL129265   4.726   0.892  20.468  0.1637 -0.1679  0.5414
24071DPPC   GL229266   4.734   0.636  20.364  0.0872 -0.0164  0.0381
24071DPPC   C1A29267   4.546   0.997  20.173  0.0189  0.1197  0.2115
24071DPPC   C2A29268   4.505   1.271  19.817  0.2313 -0.2221  0.2759
24071DPPC   C3A29269   4.588   1.231  19.326 -0.0927 -0.0334 -0.0327
24071DPPC   C4A29270   4.533   1.293  18.823 -0.0953 -0.1976  0.1689
24071DPPC   C1B29271   4.780   0.696  19.967  0.1287  0.1749 -0.1654
24071DPPC   C2B29272   4.683   0.770  19.558  0.1849  0.2284  0.1261
24071DPPC   C3B29273   4.626   0.789  19.046 -0.0278  0.0856 -0.0162
24071DPPC   C4B29274   4.586   0.891  18.554  0.0331  0.1956 -0.2605
24072DPPC   NC329275   5.505   0.929  20.784 -0.1706  0.0030 -0.0088
24072DPPC   PO429276   5.516   0.614  20.530 -0.0066  0.0681  0.2815
24072DPPC   GL129277   5.187   0.508  20.262 -0.0094  0.0029  0.4380
24072DPPC   GL229278   5.075   0.309  20.389  0.1246 -0.0060  0.0047
24072DPPC   C1A29279   5.217   0.532  19.885 -0.1887  0.0102 -0.1810
24072DPPC   C2A29280   5.190   0.520  19.470  0.1188 -0.1115  0.0063
24072DPPC   C3A29281   5.217   0.595  18.956  0.0379 -0.4132  0.0334
24072DPPC   C4A29282   5.114   0.619  18.491 -0.0199 -0.2557 -0.0986
24072DPPC   C1B29283   5.168   0.078  20.092 -0.1356  0.1650 -0.0167
24072DPPC   C2B29284   5.174   0.085  19.697  0.0730  0.0193  0.0386
24072DPPC   C3B29285   5.145   0.040  19.201 -0.3861  0.0256 -0.0044
24072DPPC   C4B29286   5.254   0.146  18.742  0.1840 -0.1816  0.3012
24073DPPC   NC329287   5.563   4.631  20.502 -0.3617  0.0748 -0.3502
24073DPPC   PO429288   5.283   4.909  20.537  0.1821 -0.2734 -0.0056
24073DPPC   GL129289   5.224   5.043  20.120 -0.0082 -0.0792 -0.2522
24073DPPC   GL229290   5.378   5.353  20.182  0.0347  0.0737  0.1054
24073DPPC   C1A29291   4.951   4.975  19.964 -0.2070 -0.0537 -0.0221
24073DPPC   C2A29292   4.890   4.918  19.588 -0.0489 -0.0840 -0.1482
24073DPPC   C3A29293   5.047   4.930  19.158 -0.2551  0.0048  0.1165
24073DPPC   C4A29294   5.116   4.894  18.693  0.1324  0.3049 -0.2886
24073DPPC   C1B29295   5.518   5.370  19.876  0.0888 -0.0918  0.1236
24073DPPC   C2B29296   5.439   5.239  19.485 -0.1675  0.0930  0.1412
24073DPPC   C3B29297   5.473   5.226  19.054 -0.0647 -0.2281  0.0138
24073DPPC   C4B29298   5.351   5.289  18.560 -0.0372  0.0678  0.0246
24074DPPS   CNO29299   3.252   2.511  20.814  0.2949 -0.0672  0.0605
24074DPPS   PO429300   3.014   2.754  20.624  0.1272  0.0515 -0.2367
24074DPPS   GL129301   3.051   2.705  20.188 -0.0536 -0.3164  0.5551
24074DPPS   GL229302   2.800   2.873  20.143 -0.1668  0.0534 -0.3345
24074DPPS   C1A29303   3.060   2.483  19.881 -0.2059  0.0169 -0.1423
24074DPPS   C2A29304   3.104   2.278  19.491 -0.2770 -0.1889  0.3032
24074DPPS   C3A29305   3.076   2.246  19.026 -0.0364  0.0280  0.2020
24074DPPS   C4A29306   3.106   2.230  18.620  0.0359  0.1028 -0.1111
24074DPPS   C1B29307   2.964   2.883  19.775  0.2467  0.3564  0.2774
24074DPPS   C2B29308   3.048   2.742  19.357 -0.1416 -0.0750 -0.2866
24074DPPS   C3B29309   3.076   2.743  18.892 -0.0792  0.0633 -0.3193
24074DPPS   C4B29310   3.135   2.733  18.412  0.0933 -0.1673  0.1086
24075DPPS   CNO29311   3.114   5.828  20.592  0.1130 -0.1344  0.2384
24075DPPS   PO429312   3.216   6.123  20.337  0.0591  0.0690  0.1562
24075DPPS   GL129313   3.146   6.097  19.972 -0.0032 -0.3329 -0.2981
24075DPPS   GL229314   3.313   6.410  19.927  0.3645 -0.2076  0.0674
24075DPPS   C1A29315   3.056   5.797  19.684 -0.1067  0.1089 -0.2408
24075DPPS   C2A29316   3.061   5.591  19.313  0.1293 -0.0274 -0.0158
24075DPPS   C3A29317   3.122   5.554  18.797 -0.1579 -0.1377  0.4068
24075DPPS   C4A29318   3.125   5.531  18.316  0.0954 -0.0866 -0.3524
24075DPPS   C1B29319   3.440   6.374  19.579 -0.0755 -0.0789  0.4466
24075DPPS   C2B29320   3.453   6.399  19.135 -0.2484  0.1322 -0.2119
24075DPPS   C3B29321   3.458   6.301  18.661 -0.2155 -0.1871  0.1044
24075DPPS   C4B29322   3.792   6.199  18.271  0.0623 -0.0353  0.1147
24076DPPS   CNO29323   3.169   5.325  20.558  0.0385 -0.2870 -0.1902
24076DPPS   PO429324   3.062   5.194  20.220 -0.1507  0.0837  0.0854
24076DPPS   GL129325   3.305   5.265  19.775  0.0065  0.1252  0.3682
24076DPPS   GL229326   2.986   5.372  19.743  0.0340 -0.0854 -0.1868
24076DPPS   C1A29327   3.316   5.175  19.442  0.1401 -0.5285 -0.0055
24076DPPS   C2A29328   3.315   5.150  19.016 -0.2568  0.1845 -0.2047
24076DPPS   C3A29329   3.340   5.159  18.558 -0.0635  0.0555 -0.0575
24076DPPS   C4A29330   3.303   5.050  18.073  0.0591 -0.1037 -0.1978
24076DPPS   C1B29331   2.750   5.269  19.495  0.1330  0.1252 -0.1254
24076DPPS   C2B29332   2.771   5.238  19.110  0.0159 -0.1234  0.3170
24076DPPS   C3B29333   2.820   5.181  18.617  0.0737 -0.5344 -0.5037
24076DPPS   C4B29334   2.848   5.118  18.134  0.3968 -0.0791 -0.1331
24077DPPS   CNO29335   3.630   3.943  20.620 -0.0243  0.2343 -0.0450
24077DPPS   PO429336   3.264   3.898  20.494 -0.0936 -0.1770 -0.3543
24077DPPS   GL129337   3.038   3.720  20.065 -0.5313 -0.0093 -0.0942
24077DPPS   GL229338   3.157   3.974  20.012 -0.0461 -0.0627  0.0827
24077DPPS   C1A29339   3.031   3.659  19.695 -0.0164  0.3467  0.0382
24077DPPS   C2A29340   3.066   3.752  19.306  0.2750 -0.0080  0.1253
24077DPPS   C3A29341   3.066   3.775  18.809 -0.0214 -0.0226  0.1669
24077DPPS   C4A29342   3.078   3.789  18.309 -0.1153  0.0823 -0.0309
24077DPPS   C1B29343   3.299   4.032  19.693  0.0445  0.1768  0.3047
24077DPPS   C2B29344   3.468   4.039  19.316  0.2574  0.1040 -0.0410
24077DPPS   C3B29345   3.473   4.064  18.874 -0.0452  0.0157  0.0699
24077DPPS   C4B29346   3.517   4.065  18.380  0.1852  0.3423 -0.1164
24078DPPS   CNO29347   6.341   3.497  20.674 -0.2131 -0.1477 -0.1466
24078DPPS   PO429348   6.691   3.654  20.636 -0.4112  0.0337 -0.0724
24078DPPS   GL129349   6.921   3.443  20.356 -0.1866 -0.0094  0.1222
24078DPPS   GL229350   6.622   3.494  20.234  0.1049  0.3460 -0.1909
24078DPPS   C1A29351   7.091   3.537  20.037 -0.0564  0.4418  0.0693
24078DPPS   C2A29352   7.042   3.712  19.677  0.0381 -0.2233  0.1366
24078DPPS   C3A29353   6.936   3.737  19.189  0.2199 -0.0864 -0.0596
24078DPPS   C4A29354   6.973   3.672  18.694  0.3149 -0.0975  0.1410
24078DPPS   C1B29355   6.610   3.487  19.915  0.3879 -0.2181 -0.1600
24078DPPS   C2B29356   6.604   3.489  19.499  0.0488  0.0926  0.0012
24078DPPS   C3B29357   6.577   3.423  19.028  0.1371  0.1743  0.1425
24078DPPS   C4B29358   6.523   3.344  18.581  0.0855  0.0256  0.1436
24079DPPS   CNO29359   4.616   0.404  20.716 -0.0152 -0.1408 -0.1222
24079DPPS   PO429360   4.326   0.519  20.544 -0.3255  0.0222  0.1296
24079DPPS   GL129361   4.319   0.255  20.205 -0.0922 -0.2214  0.2580
24079DPPS   GL229362   4.144   0.018  20.275  0.3360 -0.0268 -0.3198
24079DPPS   C1A29363   4.254   0.385  19.898  0.0342  0.1139 -0.1009
24079DPPS   C2A29364   4.261   0.451  19.499  0.0410  0.4909 -0.1883
24079DPPS   C3A29365   4.210   0.470  19.010  0.2339 -0.2452  0.2756
24079DPPS   C4A29366   4.200   0.428  18.583 -0.4751 -0.0871 -0.2270
24079DPPS   C1B29367   3.934  -0.079  19.978 -0.0620  0.0433 -0.0941
24079DPPS   C2B29368   3.999  -0.341  19.666 -0.2663 -0.3137  0.0730
24079DPPS   C3B29369   3.969  -0.272  19.213  0.3590 -0.0157  0.2432
24079DPPS   C4B29370   3.942  -0.369  18.704  0.0193  0.1986 -0.2168
24080DPPS   CNO29371   6.002   2.616  20.798 -0.4671  0.0453  0.0587
24080DPPS   PO429372   5.686   2.757  20.711 -0.1119  0.1913 -0.2163
24080DPPS   GL129373   5.685   2.791  20.303  0.2818  0.2821  0.0321
24080DPPS   GL229374   5.676   2.565  20.195  0.1054 -0.3993  0.1203
24080DPPS   C1A29375   5.776   3.016  20.042  0.1594 -0.2960  0.1735
24080DPPS   C2A29376   5.753   3.255  19.746 -0.0565 -0.2307 -0.0068
24080DPPS   C3A29377   5.762   3.187  19.284 -0.0759 -0.0797 -0.0200
24080DPPS   C4A29378   5.660   3.129  18.798  0.0146  0.2261  0.1912
24080DPPS   C1B29379   5.630   2.594  19.867 -0.1678  0.3647  0.0190
24080DPPS   C2B29380   5.760   2.670  19.457  0.0727 -0.4052 -0.2445
24080DPPS   C3B29381   5.787   2.683  18.964  0.0236  0.1028 -0.0042
24080DPPS   C4B29382   5.774   2.723  18.503  0.1057 -0.2312 -0.0020
24081DPPS   CNO29383   8.705   5.495  20.565 -0.0529 -0.3255  0.1220
24081DPPS   PO429384   8.402   5.361  20.519 -0.2237  0.0997 -0.2276
24081DPPS   GL129385   8.296   5.108  20.140 -0.1956  0.3033  0.1484
24081DPPS   GL229386   8.540   5.221  20.062 -0.0094  0.0731  0.3358
24081DPPS   C1A29387   8.357   4.976  19.784 -0.0726  0.2318  0.0273
24081DPPS   C2A29388   8.513   5.064  19.423  0.2682 -0.1056 -0.0990
24081DPPS   C3A29389   8.581   5.063  19.019 -0.1194 -0.0368  0.1087
24081DPPS   C4A29390   8.563   4.974  18.520  0.0299  0.2293 -0.1879
24081DPPS   C1B29391   8.469   5.414  19.721  0.2089  0.0277  0.2996
24081DPPS   C2B29392   8.429   5.540  19.321 -0.1172  0.0995 -0.0818
24081DPPS   C3B29393   8.426   5.527  18.876  0.2160 -0.0192  0.0532
24081DPPS   C4B29394   8.403   5.425  18.375  0.2146 -0.0047 -0.2021
24082DPPS   CNO29395   8.957   2.875  20.494  0.1467  0.0898  0.1099
24082DPPS   PO429396   8.607   2.928  20.404 -0.1576  0.2991  0.0730
24082DPPS   GL129397   8.461   2.982  20.001 -0.0211  0.0557 -0.2239
24082DPPS   GL229398   8.446   2.767  19.872 -0.0181 -0.2941 -0.1717
24082DPPS   C1A29399   8.307   3.122  19.689 -0.2272  0.2216 -0.1484
24082DPPS   C2A29400   8.313   3.240  19.275 -0.1195 -0.3459 -0.0212
24082DPPS   C3A29401   8.345   3.208  18.861  0.3700 -0.0592  0.2424
24082DPPS   C4A29402   8.338   3.194  18.417  0.1067 -0.0071  0.0011
24082DPPS   C1B29403   8.492   2.740  19.517 -0.2314  0.0900 -0.2886
24082DPPS   C2B29404   8.481   2.734  19.117 -0.1340  0.0831  0.1832
24082DPPS   C3B29405   8.372   2.731  18.606  0.2244 -0.1275  0.1047
24082DPPS   C4B29406   8.453   2.653  18.114 -0.0459  0.0638  0.2300
24083DPPS   CNO29407   6.277   0.302  20.825 -0.2455  0.1751  0.0574
24083DPPS   PO429408   6.423   0.270  20.457  0.1153  0.1202  0.0454
24083DPPS   GL129409   6.278   0.420  20.108 -0.0285  0.1320 -0.0845
24083DPPS   GL229410   6.049   0.262  19.950 -0.0116  0.3758 -0.4347
24083DPPS   C1A29411   6.387   0.501  19.711 -0.0557 -0.0705  0.2955
24083DPPS   C2A29412   6.484   0.631  19.323 -0.0531 -0.0120  0.1291
24083DPPS   C3A29413   6.442   0.680  18.887 -0.0712  0.2165  0.4078
24083DPPS   C4A29414   6.381   0.581  18.401 -0.0446 -0.1501  0.0162
24083DPPS   C1B29415   6.036   0.330  19.586 -0.3633 -0.1608 -0.4721
24083DPPS   C2B29416   6.070   0.260  19.155  0.2267 -0.2015 -0.0763
24083DPPS   C3B29417   6.063   0.257  18.704 -0.1306  0.0065  0.0357
24083DPPS   C4B29418   6.064   0.200  18.192 -0.1525 -0.2303 -0.2149
24084DPPS   CNO29419   6.491   1.132  21.088 -0.3205 -0.0621 -0.0035
24084DPPS   PO429420   6.612   1.242  20.742 -0.1260  0.0376 -0.0788
24084DPPS   GL129421   6.409   1.250  20.384 -0.1064 -0.2537  0.0861
24084DPPS   GL229422   6.525   1.523  20.338 -0.2824 -0.0170  0.1033
24084DPPS   C1A29423   6.355   1.225  20.008  0.0148  0.2047  0.2037
24084DPPS   C2A29424   6.409   1.152  19.581 -0.2525  0.0662  0.0557
24084DPPS   C3A29425   6.410   1.189  19.066  0.0989 -0.1646  0.0875
24084DPPS   C4A29426   6.468   1.116  18.568  0.0069  0.1423 -0.0650
24084DPPS   C1B29427   6.435   1.737  20.053  0.0319 -0.0475  0.0994
24084DPPS   C2B29428   6.310   1.611  19.704 -0.0146 -0.2488  0.1299
24084DPPS   C3B29429   6.382   1.633  19.279  0.2480  0.2090  0.0079
24084DPPS   C4B29430   6.379   1.561  18.752  0.0168  0.2250 -0.1759
24085DPPS   CNO29431   3.838   2.678  20.787  0.1586  0.0336 -0.1271
24085DPPS   PO429432   4.064   2.520  20.524 -0.0990 -0.1700 -0.2255
24085DPPS   GL129433   4.050   2.500  20.076 -0.5194 -0.3590  0.2515
24085DPPS   GL229434   4.348   2.341  20.139  0.1730  0.0877  0.0965
24085DPPS   C1A29435   4.123   2.489  19.703  0.1964 -0.3513 -0.2276
24085DPPS   C2A29436   4.007   2.453  19.337 -0.1646 -0.0004  0.0392
24085DPPS   C3A29437   3.995   2.404  18.840 -0.1966  0.1052  0.0059
24085DPPS   C4A29438   3.923   2.334  18.342  0.1413 -0.1458 -0.4649
24085DPPS   C1B29439   4.453   2.276  19.821 -0.0673  0.3312  0.0410
24085DPPS   C2B29440   4.484   2.273  19.400  0.0875 -0.4464  0.1499
24085DPPS   C3B29441   4.554   2.272  18.981 -0.1110 -0.0504  0.0993
24085DPPS   C4B29442   4.436   2.191  18.530  0.3091  0.1677  0.0161
24086DPPS   CNO29443   3.556   4.445  20.899  0.0966 -0.3230 -0.0473
24086DPPS   PO429444   3.436   4.382  20.535  0.0987 -0.3321 -0.0914
24086DPPS   GL129445   3.586   4.038  20.197  0.5283  0.1436  0.2162
24086DPPS   GL229446   3.621   4.288  20.073  0.0944  0.0963 -0.2567
24086DPPS   C1A29447   3.458   3.735  19.946 -0.0594 -0.0105 -0.1326
24086DPPS   C2A29448   3.462   3.609  19.540 -0.1752 -0.0608  0.1208
24086DPPS   C3A29449   3.513   3.539  19.072  0.0596  0.0493  0.0713
24086DPPS   C4A29450   3.488   3.574  18.608 -0.0799  0.0571  0.0052
24086DPPS   C1B29451   3.791   4.305  19.746  0.0920 -0.1876  0.0092
24086DPPS   C2B29452   3.814   4.456  19.355  0.2094 -0.3522 -0.1810
24086DPPS   C3B29453   3.866   4.415  18.961 -0.0580 -0.1620  0.2718
24086DPPS   C4B29454   3.919   4.393  18.470 -0.1963  0.1295 -0.0859
24087DPPS   CNO29455   5.105   1.453  21.296 -0.2922  0.0350 -0.0929
24087DPPS   PO429456   5.124   1.152  21.033  0.0973  0.1366  0.0951
24087DPPS   GL129457   5.273   1.247  20.575  0.2472 -0.1417  0.3387
24087DPPS   GL229458   5.116   1.061  20.533  0.3435  0.1291 -0.3704
24087DPPS   C1A29459   5.360   1.404  20.177 -0.2151  0.4236 -0.0390
24087DPPS   C2A29460   5.407   1.414  19.743  0.3545  0.1240 -0.0667
24087DPPS   C3A29461   5.396   1.390  19.280 -0.4707 -0.1552 -0.0126
24087DPPS   C4A29462   5.433   1.426  18.801  0.3640 -0.0394  0.1331
24087DPPS   C1B29463   5.133   0.964  20.119  0.1964 -0.2737  0.0496
24087DPPS   C2B29464   5.091   0.991  19.754  0.2347 -0.2995  0.0369
24087DPPS   C3B29465   5.083   1.039  19.299  0.0752  0.0461 -0.1590
24087DPPS   C4B29466   5.056   1.075  18.791 -0.0244  0.1531  0.0518
24088DPPS   CNO29467   2.148   3.272  20.238 -0.0071  0.1906 -0.3313
24088DPPS   PO429468   2.418   2.999  20.331 -0.0944  0.0353  0.3580
24088DPPS   GL129469   2.397   2.869  19.909  0.2208  0.2138 -0.1167
24088DPPS   GL229470   2.075   2.942  19.874 -0.2735 -0.4503 -0.0687
24088DPPS   C1A29471   2.543   2.943  19.583  0.0084 -0.1887  0.1559
24088DPPS   C2A29472   2.645   2.958  19.125 -0.1773  0.0497  0.2754
24088DPPS   C3A29473   2.677   2.919  18.652 -0.1099 -0.3537 -0.2463
24088DPPS   C4A29474   2.715   2.886  18.186 -0.1148 -0.0868  0.4761
24088DPPS   C1B29475   2.137   3.122  19.598 -0.1923  0.2236  0.2110
24088DPPS   C2B29476   2.198   3.176  19.194 -0.2365  0.0748  0.1838
24088DPPS   C3B29477   2.179   3.126  18.712  0.0123 -0.1219 -0.2350
24088DPPS   C4B29478   2.265   3.177  18.189  0.0431 -0.1092 -0.0190
24089DPPS   CNO29479   4.925   3.038  20.746  0.0282 -0.1784  0.1610
24089DPPS   PO429480   4.948   3.385  20.548 -0.2984  0.2872  0.2236
24089DPPS   GL129481   4.923   3.149  20.173  0.0740  0.0871 -0.1685
24089DPPS   GL229482   4.632   3.204  20.304  0.0137 -0.2795 -0.2173
24089DPPS   C1A29483   4.807   3.065  19.834 -0.0295  0.0130  0.0090
24089DPPS   C2A29484   4.867   3.071  19.443 -0.1560  0.1426  0.2231
24089DPPS   C3A29485   4.810   3.033  18.949  0.5728 -0.0014  0.0878
24089DPPS   C4A29486   4.840   3.029  18.484 -0.1737  0.0424  0.3436
24089DPPS   C1B29487   4.460   3.231  19.997 -0.1552 -0.2297 -0.1725
24089DPPS   C2B29488   4.402   3.271  19.611 -0.2060  0.1373 -0.3715
24089DPPS   C3B29489   4.391   3.243  19.174  0.1440 -0.1248 -0.1045
24089DPPS   C4B29490   4.397   3.213  18.667 -0.1228  0.2712 -0.2934
24090DPPS   CNO29491   7.707   2.645  20.802 -0.0401  0.0496  0.1491
24090DPPS   PO429492   7.728   2.732  20.400  0.2755  0.1222  0.0680
24090DPPS   GL129493   7.404   2.706  20.107 -0.0471 -0.0218 -0.2674
24090DPPS   GL229494   7.578   2.950  20.042  0.0979  0.2224 -0.0717
24090DPPS   C1A29495   7.450   2.563  19.765 -0.0102 -0.2618 -0.5204
24090DPPS   C2A29496   7.583   2.587  19.412 -0.1626 -0.0361  0.2210
24090DPPS   C3A29497   7.552   2.537  18.924 -0.1609  0.0270 -0.2849
24090DPPS   C4A29498   7.554   2.575  18.405  0.0890 -0.2476 -0.2119
24090DPPS   C1B29499   7.573   3.040  19.663 -0.2020 -0.0000  0.3889
24090DPPS   C2B29500   7.430   3.023  19.255  0.0117 -0.1209  0.4257
24090DPPS   C3B29501   7.449   3.033  18.750 -0.2700 -0.1917 -0.0090
24090DPPS   C4B29502   7.477   3.029  18.268 -0.2193 -0.2676  0.2662
24091DPPS   CNO29503   7.167   2.457  20.912  0.0336 -0.1641  0.0188
24091DPPS   PO429504   6.905   2.460  20.629  0.0567 -0.2031  0.2638
24091DPPS   GL129505   6.918   2.602  20.259 -0.2052 -0.1384 -0.0741
24091DPPS   GL229506   7.106   2.350  20.153 -0.0345  0.5221  0.5596
24091DPPS   C1A29507   6.986   2.747  19.937  0.1148 -0.3055 -0.0525
24091DPPS   C2A29508   7.066   2.747  19.547 -0.1184 -0.1019 -0.0483
24091DPPS   C3A29509   7.072   2.713  19.109  0.0985  0.4259 -0.1384
24091DPPS   C4A29510   7.065   2.674  18.628 -0.0681  0.0836  0.1498
24091DPPS   C1B29511   7.004   2.289  19.797  0.1034 -0.0970 -0.1913
24091DPPS   C2B29512   7.157   2.278  19.416  0.2983 -0.0600  0.1826
24091DPPS   C3B29513   7.119   2.255  18.910  0.1645  0.1027 -0.1013
24091DPPS   C4B29514   7.214   2.144  18.408 -0.1696 -0.0466 -0.0548
24092DPPS   CNO29515   2.434   4.409  20.583 -0.1031 -0.2396 -0.0378
24092DPPS   PO429516   2.680   4.673  20.417 -0.0988  0.1305  0.1455
24092DPPS   GL129517   2.909   4.648  20.159 -0.0995  0.1088  0.0403
24092DPPS   GL229518   3.054   4.380  20.264  0.0630 -0.0688 -0.0493
24092DPPS   C1A29519   3.031   4.780  19.847  0.0534 -0.3610  0.0336
24092DPPS   C2A29520   2.956   4.895  19.449  0.0545  0.0266 -0.2361
24092DPPS   C3A29521   2.984   4.787  18.949 -0.0497  0.0389 -0.1199
24092DPPS   C4A29522   3.043   4.743  18.431 -0.1782  0.0950  0.0794
24092DPPS   C1B29523   3.181   4.411  19.952  0.1440  0.2516 -0.0076
24092DPPS   C2B29524   3.327   4.534  19.592 -0.2790  0.1311 -0.0613
24092DPPS   C3B29525   3.426   4.657  19.133  0.0794 -0.0842  0.2092
24092DPPS   C4B29526   3.459   4.559  18.642 -0.0676  0.1654 -0.1155
24093DPPS   CNO29527   8.224   1.900  20.535 -0.0654  0.1626 -0.1796
24093DPPS   PO429528   8.230   1.543  20.619 -0.1391 -0.0700  0.0287
24093DPPS   GL129529   7.987   1.513  20.278 -0.1877  0.0702  0.5408
24093DPPS   GL229530   7.975   1.823  20.177 -0.0677 -0.0481  0.2333
24093DPPS   C1A29531   8.071   1.225  20.061  0.1106  0.4378  0.1788
24093DPPS   C2A29532   8.215   0.987  19.730  0.2310  0.2324  0.3392
24093DPPS   C3A29533   8.200   0.951  19.288  0.0751  0.0727  0.0021
24093DPPS   C4A29534   8.160   0.884  18.779 -0.0947 -0.0227  0.0380
24093DPPS   C1B29535   7.953   2.015  19.828  0.1935  0.2043  0.2103
24093DPPS   C2B29536   8.005   1.935  19.427 -0.2524 -0.1693 -0.1416
24093DPPS   C3B29537   8.049   1.880  18.971 -0.0054  0.0779 -0.0925
24093DPPS   C4B29538   7.986   1.872  18.529  0.0571  0.0017 -0.0194
24094DPPS   CNO29539   4.783   3.682  20.991 -0.2054 -0.0385 -0.0179
24094DPPS   PO429540   4.897   4.001  20.820 -0.0943 -0.2961 -0.0022
24094DPPS   GL129541   4.906   4.001  20.313  0.2714 -0.1740  0.0263
24094DPPS   GL229542   4.879   3.752  20.338  0.2417  0.2099 -0.0002
24094DPPS   C1A29543   4.958   4.214  19.965 -0.2757  0.2593 -0.3039
24094DPPS   C2A29544   5.089   4.417  19.622  0.1048  0.2049  0.0722
24094DPPS   C3A29545   5.177   4.405  19.130  0.0299 -0.1148 -0.0602
24094DPPS   C4A29546   5.101   4.347  18.642 -0.0231 -0.3191  0.1475
24094DPPS   C1B29547   4.741   3.613  20.042  0.0034 -0.1856 -0.3162
24094DPPS   C2B29548   4.775   3.560  19.633 -0.2136 -0.0255 -0.1155
24094DPPS   C3B29549   4.783   3.582  19.215 -0.2971 -0.1689  0.0607
24094DPPS   C4B29550   4.810   3.516  18.762  0.2525  0.1399 -0.0730
24095DPPS   CNO29551   3.709   1.157  20.874 -0.2183 -0.0849  0.3593
24095DPPS   PO429552   3.595   0.928  20.618  0.0561 -0.1410 -0.1635
24095DPPS   GL129553   3.826   0.821  20.363 -0.2184  0.2806 -0.0276
24095DPPS   GL229554   3.847   1.078  20.266 -0.1403 -0.0358 -0.0327
24095DPPS   C1A29555   3.953   0.716  20.034  0.3037 -0.0164  0.0311
24095DPPS   C2A29556   3.785   0.673  19.704  0.1959  0.0198  0.0329
24095DPPS   C3A29557   3.803   0.631  19.234  0.0568  0.1606  0.0383
24095DPPS   C4A29558   3.731   0.586  18.730 -0.0826 -0.1973  0.0902
24095DPPS   C1B29559   4.114   1.110  20.019  0.1408  0.1304 -0.0053
24095DPPS   C2B29560   4.187   0.964  19.649  0.2326  0.0315  0.2148
24095DPPS   C3B29561   4.190   1.012  19.168  0.2740  0.0723 -0.1396
24095DPPS   C4B29562   4.143   0.945  18.704 -0.3513 -0.1648  0.0176
24096DPPS   CNO29563   8.586   6.366  21.029 -0.2592  0.0174  0.0409
24096DPPS   PO429564   8.390   6.432  20.661 -0.0048  0.1507  0.0123
24096DPPS   GL129565   8.457   6.522  20.255 -0.1233  0.0445 -0.0330
24096DPPS   GL229566   8.730   6.372  20.331  0.0121  0.4823 -0.0465
24096DPPS   C1A29567   8.444   6.800  19.999  0.0032 -0.3189 -0.2425
24096DPPS   C2A29568   8.355   7.049  19.658  0.1901  0.2319  0.1232
24096DPPS   C3A29569   8.268   7.075  19.177  0.1558  0.2027  0.0812
24096DPPS   C4A29570   8.287   6.973  18.713  0.1967  0.0601  0.0024
24096DPPS   C1B29571   8.922   6.286  20.008 -0.0789  0.0318  0.4868
24096DPPS   C2B29572   9.200   6.199  19.698 -0.3011  0.1912 -0.1920
24096DPPS   C3B29573   9.327   6.166  19.252 -0.0046 -0.1355 -0.2185
24096DPPS   C4B29574   9.283   6.165  18.757 -0.1405  0.1134 -0.0071
24097DPPS   CNO29575   7.711   4.847  20.686  0.0650 -0.0526  0.2898
24097DPPS   PO429576   7.789   4.529  20.471  0.0651  0.0349 -0.3653
24097DPPS   GL129577   7.911   4.613  20.036 -0.0801  0.0048  0.2057
24097DPPS   GL229578   7.588   4.470  20.018  0.0969  0.2470 -0.1778
24097DPPS   C1A29579   8.035   4.643  19.684  0.2880  0.0909  0.1519
24097DPPS   C2A29580   8.124   4.758  19.265  0.0647  0.0389 -0.0975
24097DPPS   C3A29581   8.165   4.661  18.804 -0.0349 -0.1673  0.2647
24097DPPS   C4A29582   8.174   4.636  18.284 -0.0629  0.1480  0.0391
24097DPPS   C1B29583   7.559   4.438  19.641  0.1331  0.0367 -0.1243
24097DPPS   C2B29584   7.690   4.344  19.246 -0.0755  0.3122 -0.1376
24097DPPS   C3B29585   7.774   4.356  18.817  0.0944 -0.1254 -0.0553
24097DPPS   C4B29586   7.751   4.326  18.275  0.2754 -0.3196 -0.1679
24098DPPS   CNO29587   3.552   6.250  20.816  0.1000  0.0981 -0.1430
24098DPPS   PO429588   3.538   6.567  20.639 -0.2231  0.3464  0.1435
24098DPPS   GL129589   3.598   6.591  20.215 -0.1904 -0.0652 -0.2413
24098DPPS   GL229590   3.644   6.278  20.206  0.0798 -0.0263 -0.3433
24098DPPS   C1A29591   3.565   6.807  19.846 -0.2560 -0.1671 -0.0433
24098DPPS   C2A29592   3.750   6.778  19.464 -0.0220  0.0918  0.3335
24098DPPS   C3A29593   3.814   6.759  19.009  0.0629 -0.0513 -0.0936
24098DPPS   C4A29594   3.830   6.681  18.554 -0.0531 -0.2775  0.1619
24098DPPS   C1B29595   3.570   6.085  19.849  0.2202 -0.2588 -0.2495
24098DPPS   C2B29596   3.447   5.950  19.505  0.0082  0.1757  0.1407
24098DPPS   C3B29597   3.481   5.861  18.984 -0.0953 -0.0453  0.0856
24098DPPS   C4B29598   3.460   5.864  18.473 -0.4168 -0.3854  0.0023
24099DPPC   NC329599   4.418   5.120  15.443 -0.0312 -0.1257 -0.0066
24099DPPC   PO429600   4.321   5.326  15.781  0.1046  0.0023 -0.0704
24099DPPC   GL129601   4.291   5.161  16.242  0.0002  0.2255  0.0911
24099DPPC   GL229602   4.551   5.235  16.232  0.1080 -0.4706  0.2127
24099DPPC   C1A29603   4.128   5.199  16.551 -0.1057  0.2998 -0.2839
24099DPPC   C2A29604   4.105   5.192  16.981 -0.2680  0.3799 -0.1791
24099DPPC   C3A29605   4.123   5.225  17.494  0.0715  0.1454 -0.0226
24099DPPC   C4A29606   4.069   5.110  17.948 -0.0104  0.3949 -0.1805
24099DPPC   C1B29607   4.681   5.100  16.533  0.2032  0.2412  0.0214
24099DPPC   C2B29608   4.661   5.035  16.952 -0.0022  0.1379  0.1190
24099DPPC   C3B29609   4.590   4.987  17.405  0.1622  0.1431  0.3104
24099DPPC   C4B29610   4.600   5.028  17.837  0.0925  0.0534  0.1457
24100DPPC   NC329611   4.617   4.500  15.950  0.2464 -0.3343 -0.2014
24100DPPC   PO429612   5.020   4.481  15.982 -0.0371 -0.0053 -0.0445
24100DPPC   GL129613   5.131   4.393  16.413 -0.1295 -0.0858 -0.1163
24100DPPC   GL229614   4.855   4.235  16.322  0.4677  0.0334  0.0114
24100DPPC   C1A29615   5.162   4.450  16.748  0.0431 -0.3115 -0.1614
24100DPPC   C2A29616   5.265   4.417  17.169 -0.3550  0.1309  0.1394
24100DPPC   C3A29617   5.154   4.378  17.645 -0.1783 -0.0608  0.0473
24100DPPC   C4A29618   5.176   4.288  18.141  0.0369 -0.0845 -0.4384
24100DPPC   C1B29619   4.754   4.073  16.664 -0.2598 -0.1540  0.5657
24100DPPC   C2B29620   4.777   4.021  17.059  0.0582 -0.1288 -0.2566
24100DPPC   C3B29621   4.791   4.063  17.554 -0.0148  0.0864 -0.1390
24100DPPC   C4B29622   4.763   4.038  17.998  0.0945 -0.1355 -0.0525
24101DPPC   NC329623   6.362   0.132  15.607 -0.0100  0.0812 -0.1935
24101DPPC   PO429624   6.416   0.522  15.705 -0.0546  0.3043  0.2365
24101DPPC   GL129625   6.417   0.574  16.150  0.1261  0.1427  0.2998
24101DPPC   GL229626   6.289   0.761  16.254 -0.1330  0.1271  0.2147
24101DPPC   C1A29627   6.631   0.568  16.508  0.1062  0.3549 -0.0552
24101DPPC   C2A29628   6.595   0.554  16.923  0.1267 -0.0931 -0.0164
24101DPPC   C3A29629   6.523   0.589  17.392 -0.0681 -0.1483 -0.2095
24101DPPC   C4A29630   6.482   0.555  17.844  0.2251  0.2659  0.2688
24101DPPC   C1B29631   6.188   0.671  16.635 -0.0494  0.2898  0.1692
24101DPPC   C2B29632   6.167   0.693  17.055  0.0017 -0.0704  0.1518
24101DPPC   C3B29633   6.077   0.696  17.547  0.0443 -0.0952 -0.1871
24101DPPC   C4B29634   5.974   0.700  18.030  0.0188 -0.0289 -0.1390
24102DPPC   NC329635   8.818   2.172  16.213  0.1144  0.0456 -0.1839
24102DPPC   PO429636   8.477   1.950  16.205  0.0501 -0.1035  0.1551
24102DPPC   GL129637   8.489   1.740  16.447 -0.1921  0.1721 -0.0375
24102DPPC   GL229638   8.536   1.424  16.347  0.1767  0.5029 -0.2120
24102DPPC   C1A29639   8.578   1.736  16.770 -0.1747 -0.5274  0.0285
24102DPPC   C2A29640   8.576   1.777  17.175 -0.3121 -0.0530 -0.1269
24102DPPC   C3A29641   8.599   1.773  17.697  0.1019  0.1766 -0.1090
24102DPPC   C4A29642   8.566   1.843  18.176  0.2357  0.1290  0.0447
24102DPPC   C1B29643   8.705   1.227  16.589 -0.0846 -0.1010 -0.4118
24102DPPC   C2B29644   8.690   1.260  16.986 -0.1143  0.1148 -0.3219
24102DPPC   C3B29645   8.654   1.271  17.506  0.1819  0.0830  0.0858
24102DPPC   C4B29646   8.608   1.282  18.006 -0.0876 -0.1798 -0.4447
24103DPPC   NC329647   8.801   4.701  15.860  0.3563 -0.0647 -0.2740
24103DPPC   PO429648   9.082   4.885  16.040  0.0543 -0.0078 -0.2521
24103DPPC   GL129649   9.030   4.834  16.527 -0.2034 -0.0112  0.1428
24103DPPC   GL229650   8.816   5.009  16.348  0.2811  0.1245 -0.0928
24103DPPC   C1A29651   9.052   4.945  16.891 -0.0771  0.0790 -0.1784
24103DPPC   C2A29652   9.076   4.908  17.297 -0.0071 -0.0538 -0.1258
24103DPPC   C3A29653   9.006   4.850  17.767 -0.1820 -0.0093 -0.3796
24103DPPC   C4A29654   9.012   4.880  18.261 -0.1726 -0.0345  0.0441
24103DPPC   C1B29655   8.633   5.129  16.633 -0.2929 -0.2794  0.0746
24103DPPC   C2B29656   8.567   5.100  17.033 -0.1340  0.2950  0.1203
24103DPPC   C3B29657   8.593   5.029  17.570  0.2028  0.0951 -0.0196
24103DPPC   C4B29658   8.519   4.996  18.047 -0.0027  0.1897 -0.1125
24104DPPC   NC329659   8.306   5.468  15.324 -0.0945 -0.0206 -0.0058
24104DPPC   PO429660   8.265   5.429  15.742  0.3108 -0.0495  0.1176
24104DPPC   GL129661   8.116   5.566  16.099 -0.0237 -0.2712  0.1619
24104DPPC   GL229662   8.338   5.740  16.174 -0.1428 -0.1478 -0.0212
24104DPPC   C1A29663   7.967   5.339  16.356 -0.3396  0.1316 -0.0983
24104DPPC   C2A29664   8.206   5.281  16.685  0.0722  0.0088 -0.1038
24104DPPC   C3A29665   8.114   5.180  17.164 -0.0107  0.1255 -0.3438
24104DPPC   C4A29666   8.073   5.102  17.673  0.1188 -0.1533  0.0396
24104DPPC   C1B29667   8.426   5.647  16.522 -0.1021 -0.1946  0.3914
24104DPPC   C2B29668   8.523   5.529  16.892 -0.0056 -0.2696 -0.0077
24104DPPC   C3B29669   8.479   5.454  17.354  0.3960 -0.0967  0.1129
24104DPPC   C4B29670   8.514   5.508  17.826  0.3407 -0.0567  0.1804
24105DPPC   NC329671   8.591   3.830  15.868  0.2548  0.0578  0.0276
24105DPPC   PO429672   8.598   3.867  16.272 -0.0303  0.0179  0.0059
24105DPPC   GL129673   8.410   3.961  16.497  0.3628 -0.3415 -0.0499
24105DPPC   GL229674   8.171   4.105  16.373 -0.0690 -0.3562  0.3929
24105DPPC   C1A29675   8.325   3.773  16.834 -0.2042  0.1905  0.2114
24105DPPC   C2A29676   8.290   3.717  17.259 -0.0927 -0.0339 -0.1474
24105DPPC   C3A29677   8.305   3.717  17.756 -0.2763 -0.1464 -0.1779
24105DPPC   C4A29678   8.210   3.689  18.273  0.3179  0.0628 -0.3001
24105DPPC   C1B29679   7.962   3.986  16.676 -0.2935 -0.3800  0.2096
24105DPPC   C2B29680   7.869   3.849  17.056  0.0830  0.1144 -0.0301
24105DPPC   C3B29681   7.845   3.828  17.570  0.1097  0.1393 -0.0129
24105DPPC   C4B29682   7.784   3.854  18.086 -0.1176  0.2245  0.0186
24106DPPC   NC329683   2.335   0.101  15.734  0.2480  0.0355 -0.1816
24106DPPC   PO429684   2.504   0.405  15.893  0.1765 -0.0379 -0.2455
24106DPPC   GL129685   2.593   0.526  16.248  0.0702 -0.1532  0.0115
24106DPPC   GL229686   2.433   0.739  16.234  0.1503 -0.1618 -0.2293
24106DPPC   C1A29687   2.556   0.513  16.598  0.0298 -0.0529  0.2407
24106DPPC   C2A29688   2.575   0.517  17.012 -0.0259  0.1415  0.1520
24106DPPC   C3A29689   2.481   0.573  17.478  0.3731  0.0896  0.0455
24106DPPC   C4A29690   2.520   0.623  17.977  0.1769  0.0028 -0.0001
24106DPPC   C1B29691   2.230   0.784  16.559  0.1018  0.3335  0.1475
24106DPPC   C2B29692   2.123   0.735  16.987 -0.0109 -0.0280  0.0399
24106DPPC   C3B29693   2.027   0.729  17.426  0.1346  0.0810 -0.2564
24106DPPC   C4B29694   1.961   0.732  17.874 -0.2391  0.1131 -0.0059
24107DPPC   NC329695   4.436   2.207  15.479 -0.0133 -0.0564 -0.2845
24107DPPC   PO429696   4.198   2.368  15.770  0.1112 -0.2634  0.0816
24107DPPC   GL129697   4.216   2.332  16.193 -0.1544 -0.4339  0.4837
24107DPPC   GL229698   4.461   2.168  16.263 -0.0269 -0.1196 -0.0865
24107DPPC   C1A29699   4.135   2.389  16.577 -0.1306  0.3618  0.2006
24107DPPC   C2A29700   4.089   2.413  16.956  0.2070 -0.1812  0.0255
24107DPPC   C3A29701   3.988   2.318  17.418  0.2369 -0.0496  0.2072
24107DPPC   C4A29702   4.062   2.423  17.901 -0.1190 -0.2014 -0.0628
24107DPPC   C1B29703   4.533   2.184  16.557 -0.1593 -0.0988  0.2038
24107DPPC   C2B29704   4.527   2.166  17.020  0.0914 -0.1548  0.0578
24107DPPC   C3B29705   4.521   2.167  17.549  0.0618  0.0838  0.1804
24107DPPC   C4B29706   4.489   2.227  18.039  0.0046 -0.0060  0.0739
24108DPPC   NC329707   4.777   0.213  16.045  0.2139 -0.2611  0.2914
24108DPPC   PO429708   5.077   0.050  15.913  0.1597 -0.0459  0.1643
24108DPPC   GL129709   5.214  -0.006  16.285 -0.0570 -0.2134 -0.2225
24108DPPC   GL229710   4.951  -0.153  16.377 -0.1241 -0.2621 -0.2510
24108DPPC   C1A29711   5.204   0.019  16.678 -0.0658 -0.3697  0.0145
24108DPPC   C2A29712   5.298   0.090  17.105  0.3295 -0.0505  0.0278
24108DPPC   C3A29713   5.242   0.017  17.599 -0.2811  0.0261  0.0771
24108DPPC   C4A29714   5.273   0.105  18.098 -0.0434  0.3190  0.1252
24108DPPC   C1B29715   4.915  -0.292  16.765  0.0514  0.0076 -0.1538
24108DPPC   C2B29716   4.919  -0.220  17.160 -0.2509 -0.0750  0.1092
24108DPPC   C3B29717   4.849  -0.268  17.626 -0.3040 -0.2657  0.0902
24108DPPC   C4B29718   4.876  -0.254  18.043  0.0254 -0.2313 -0.1009
24109DPPC   NC329719   3.062   2.068  15.946 -0.0676  0.0842 -0.1449
24109DPPC   PO429720   3.120   1.673  15.984 -0.2707  0.1051 -0.0463
24109DPPC   GL129721   3.331   1.544  16.346  0.2701  0.2448 -0.3370
24109DPPC   GL229722   3.529   1.800  16.276  0.1298  0.5778  0.0758
24109DPPC   C1A29723   3.340   1.373  16.713 -0.3460  0.2189 -0.0176
24109DPPC   C2A29724   3.291   1.235  17.129 -0.1331 -0.0568 -0.1080
24109DPPC   C3A29725   3.322   1.187  17.645 -0.1570  0.1439  0.1980
24109DPPC   C4A29726   3.282   1.216  18.128  0.2572 -0.0507  0.2447
24109DPPC   C1B29727   3.619   1.957  16.628  0.0688  0.0598  0.0358
24109DPPC   C2B29728   3.706   2.103  16.974 -0.1285  0.1082  0.0437
24109DPPC   C3B29729   3.588   2.022  17.420  0.0096 -0.3713  0.0055
24109DPPC   C4B29730   3.591   2.070  17.939  0.2529 -0.3516 -0.2533
24110DPPC   NC329731   4.864   1.840  16.230  0.0571  0.0837 -0.0639
24110DPPC   PO429732   5.182   1.851  15.964  0.4058 -0.2320  0.0533
24110DPPC   GL129733   5.375   1.995  16.273  0.0379  0.1229 -0.0516
24110DPPC   GL229734   5.316   1.689  16.406 -0.0255 -0.3515  0.0256
24110DPPC   C1A29735   5.426   2.199  16.548  0.1309 -0.0332  0.1900
24110DPPC   C2A29736   5.388   2.410  16.905  0.1451 -0.1311  0.1085
24110DPPC   C3A29737   5.343   2.379  17.365  0.2146  0.1441 -0.1810
24110DPPC   C4A29738   5.371   2.382  17.850 -0.1785  0.0139  0.2107
24110DPPC   C1B29739   5.390   1.810  16.743  0.0325  0.2234  0.3899
24110DPPC   C2B29740   5.451   1.821  17.106 -0.1206 -0.4011  0.1786
24110DPPC   C3B29741   5.379   1.867  17.552  0.2264  0.0011 -0.1798
24110DPPC   C4B29742   5.298   1.896  18.032 -0.3284 -0.1082 -0.0026
24111DPPC   NC329743   5.440   4.204  15.795  0.0777  0.1897 -0.2231
24111DPPC   PO429744   5.452   4.177  16.159 -0.0202 -0.0464 -0.1343
24111DPPC   GL129745   5.374   4.065  16.627  0.3542 -0.2480 -0.0556
24111DPPC   GL229746   5.525   4.286  16.635 -0.0233 -0.1045 -0.2023
24111DPPC   C1A29747   5.218   3.992  16.897  0.0398  0.1892 -0.0515
24111DPPC   C2A29748   5.171   3.854  17.341 -0.0831  0.2294 -0.0814
24111DPPC   C3A29749   5.189   3.836  17.823  0.0618  0.1860 -0.2445
24111DPPC   C4A29750   5.239   3.793  18.276 -0.1496 -0.2527 -0.4570
24111DPPC   C1B29751   5.699   4.235  16.936  0.0762 -0.1040 -0.3840
24111DPPC   C2B29752   5.700   4.189  17.342 -0.0071  0.2415 -0.1717
24111DPPC   C3B29753   5.615   4.242  17.777 -0.1191  0.0401 -0.5478
24111DPPC   C4B29754   5.633   4.224  18.228 -0.0454  0.2240 -0.0421
24112DPPC   NC329755   3.001   4.008  15.714  0.0648  0.1719 -0.4829
24112DPPC   PO429756   2.611   3.997  15.609  0.0960 -0.1040 -0.2288
24112DPPC   GL129757   2.498   4.044  16.009  0.0029 -0.0123  0.2187
24112DPPC   GL229758   2.214   4.020  16.007 -0.2777  0.2137 -0.0404
24112DPPC   C1A29759   2.548   4.209  16.369  0.0726 -0.1634  0.1873
24112DPPC   C2A29760   2.494   4.349  16.716  0.1394 -0.2410 -0.0323
24112DPPC   C3A29761   2.538   4.366  17.156 -0.2462  0.0904 -0.1523
24112DPPC   C4A29762   2.497   4.347  17.607 -0.1498 -0.3724  0.0164
24112DPPC   C1B29763   2.096   4.020  16.344  0.1331  0.1908 -0.0596
24112DPPC   C2B29764   2.173   3.918  16.759  0.0168 -0.0786 -0.2164
24112DPPC   C3B29765   2.126   3.986  17.220 -0.2723 -0.0462  0.1264
24112DPPC   C4B29766   2.080   4.044  17.687  0.3636 -0.0339 -0.1443
24113DPPC   NC329767   4.591   2.676  16.028 -0.0791  0.1148 -0.3015
24113DPPC   PO429768   4.257   2.792  16.118  0.0737 -0.3951  0.1674
24113DPPC   GL129769   4.019   2.761  16.359  0.4022 -0.2865  0.3006
24113DPPC   GL229770   3.750   2.572  16.380 -0.0135  0.2520 -0.0742
24113DPPC   C1A29771   4.010   2.887  16.711  0.0577  0.2208  0.0053
24113DPPC   C2A29772   3.962   2.876  17.149  0.2888 -0.1037  0.0558
24113DPPC   C3A29773   3.968   2.831  17.617 -0.2327 -0.0738 -0.0630
24113DPPC   C4A29774   3.970   2.924  18.125  0.0576  0.0714 -0.0482
24113DPPC   C1B29775   3.704   2.554  16.749  0.0438 -0.3761  0.1053
24113DPPC   C2B29776   3.612   2.532  17.141 -0.1483 -0.0178 -0.0810
24113DPPC   C3B29777   3.531   2.527  17.634 -0.0173  0.4113  0.2374
24113DPPC   C4B29778   3.538   2.625  18.126  0.0840  0.1876 -0.1807
24114DPPC   NC329779   4.028   5.604  16.145  0.4074 -0.0410  0.0455
24114DPPC   PO429780   3.810   5.587  15.811  0.3346 -0.1180 -0.0177
24114DPPC   GL129781   3.470   5.784  16.100 -0.2016  0.3434 -0.0517
24114DPPC   GL229782   3.679   5.906  16.252  0.4824  0.1642 -0.1219
24114DPPC   C1A29783   3.352   5.614  16.409  0.1744  0.0570 -0.0052
24114DPPC   C2A29784   3.184   5.509  16.778 -0.3086 -0.1218  0.2593
24114DPPC   C3A29785   3.213   5.479  17.259  0.0854  0.0715 -0.1522
24114DPPC   C4A29786   3.187   5.456  17.776 -0.0291 -0.2396 -0.1294
24114DPPC   C1B29787   3.621   5.969  16.609 -0.0039  0.0516 -0.1335
24114DPPC   C2B29788   3.625   5.832  17.007 -0.1837  0.1014  0.0055
24114DPPC   C3B29789   3.580   5.828  17.518 -0.0715  0.0242 -0.0465
24114DPPC   C4B29790   3.503   5.768  18.016 -0.3354 -0.1814 -0.1505
24115DPPC   NC329791   8.324   0.409  16.052  0.1163 -0.2650  0.1226
24115DPPC   PO429792   8.159   0.088  15.974 -0.1529  0.2195  0.0828
24115DPPC   GL129793   8.049   0.106  16.362  0.3081 -0.2630  0.0317
24115DPPC   GL229794   7.798   0.246  16.206  0.0131  0.1166  0.2657
24115DPPC   C1A29795   7.961   0.108  16.739  0.2454 -0.1394 -0.0325
24115DPPC   C2A29796   7.905   0.147  17.170  0.1909  0.1389 -0.0069
24115DPPC   C3A29797   7.846   0.178  17.647 -0.2674  0.1555  0.0662
24115DPPC   C4A29798   7.802   0.035  18.112 -0.2424 -0.3000 -0.2523
24115DPPC   C1B29799   7.541   0.214  16.444  0.1128 -0.2143 -0.0836
24115DPPC   C2B29800   7.536   0.319  16.819  0.0153 -0.2507  0.1226
24115DPPC   C3B29801   7.458   0.295  17.321 -0.0488 -0.2054 -0.0581
24115DPPC   C4B29802   7.427   0.323  17.865  0.0242  0.1310  0.0907
24116DPPC   NC329803   4.754   5.503  15.840  0.1121 -0.2947 -0.2840
24116DPPC   PO429804   5.177   5.517  15.844  0.1551  0.2475 -0.0888
24116DPPC   GL129805   5.144   5.313  16.254  0.0857 -0.0076  0.0495
24116DPPC   GL229806   5.347   5.289  16.297  0.0361  0.2412  0.1297
24116DPPC   C1A29807   4.924   5.493  16.531 -0.0812 -0.1366 -0.1456
24116DPPC   C2A29808   5.023   5.403  16.906 -0.0191  0.0362 -0.0164
24116DPPC   C3A29809   5.046   5.342  17.345  0.2269 -0.1647  0.1984
24116DPPC   C4A29810   5.015   5.360  17.846 -0.1125 -0.0898  0.0736
24116DPPC   C1B29811   5.522   5.271  16.645 -0.2100 -0.3045 -0.1022
24116DPPC   C2B29812   5.503   5.225  17.052  0.2570  0.1079 -0.1884
24116DPPC   C3B29813   5.494   5.213  17.570 -0.3171  0.1184  0.0951
24116DPPC   C4B29814   5.456   5.287  18.085  0.1454  0.1638 -0.1431
24117DPPC   NC329815   3.714   3.304  15.688 -0.4885 -0.0370 -0.1621
24117DPPC   PO429816   3.744   3.578  15.982 -0.0418  0.2558  0.0645
24117DPPC   GL129817   3.728   3.582  16.391 -0.0756  0.0436 -0.1027
24117DPPC   GL229818   3.971   3.865  16.435 -0.0960  0.4049  0.1228
24117DPPC   C1A29819   3.586   3.509  16.692  0.2488  0.1375  0.0152
24117DPPC   C2A29820   3.520   3.471  17.101 -0.1281  0.3270  0.0268
24117DPPC   C3A29821   3.482   3.519  17.537  0.0370 -0.1425  0.1087
24117DPPC   C4A29822   3.502   3.595  18.005 -0.1279  0.1372  0.1302
24117DPPC   C1B29823   3.903   3.950  16.786  0.0538  0.1441  0.1068
24117DPPC   C2B29824   3.904   3.933  17.220  0.0298  0.0439  0.2408
24117DPPC   C3B29825   3.875   3.820  17.708  0.4058 -0.4412 -0.0429
24117DPPC   C4B29826   3.972   3.960  18.159 -0.1150  0.0776 -0.0921
24118DPPC   NC329827   6.143   3.064  15.825 -0.1925  0.0616  0.1845
24118DPPC   PO429828   6.421   2.875  16.023  0.0841  0.1073  0.0279
24118DPPC   GL129829   6.338   2.787  16.462 -0.1604 -0.1087 -0.0769
24118DPPC   GL229830   6.631   2.952  16.498  0.2841  0.0589 -0.2196
24118DPPC   C1A29831   6.235   2.646  16.786 -0.1716  0.2555 -0.0241
24118DPPC   C2A29832   6.243   2.536  17.190 -0.0227 -0.0771 -0.2142
24118DPPC   C3A29833   6.198   2.524  17.652  0.1375  0.0512  0.3227
24118DPPC   C4A29834   6.193   2.484  18.173  0.1821  0.1514 -0.1835
24118DPPC   C1B29835   6.659   2.809  16.848 -0.0591 -0.3266 -0.0391
24118DPPC   C2B29836   6.670   2.786  17.308 -0.1200  0.1475  0.1613
24118DPPC   C3B29837   6.679   2.791  17.816  0.3271  0.0339 -0.2602
24118DPPC   C4B29838   6.626   2.844  18.299 -0.0383 -0.0905 -0.0938
24119DPPC   NC329839   5.550   1.466  15.979  0.2196  0.2908  0.0092
24119DPPC   PO429840   5.828   1.654  16.124  0.0647 -0.1457  0.2696
24119DPPC   GL129841   5.743   1.752  16.525  0.1847  0.0732  0.1913
24119DPPC   GL229842   5.764   1.433  16.545 -0.4543  0.1082  0.0648
24119DPPC   C1A29843   5.813   2.030  16.796  0.0126  0.0863  0.5739
24119DPPC   C2A29844   5.820   2.167  17.186 -0.2700 -0.3320 -0.2459
24119DPPC   C3A29845   5.848   2.159  17.682  0.1054  0.1571  0.0345
24119DPPC   C4A29846   5.712   2.234  18.178 -0.0241  0.0054 -0.1042
24119DPPC   C1B29847   5.639   1.406  16.882  0.0726 -0.1463  0.2807
24119DPPC   C2B29848   5.542   1.395  17.298  0.2415 -0.1115 -0.0527
24119DPPC   C3B29849   5.519   1.397  17.801  0.0515 -0.0810 -0.2285
24119DPPC   C4B29850   5.476   1.383  18.302 -0.0410 -0.1997 -0.0884
24120DPPC   NC329851   3.479   4.848  15.316 -0.3609 -0.0186  0.1904
24120DPPC   PO429852   3.544   4.807  15.732 -0.1209 -0.0772 -0.0990
24120DPPC   GL129853   3.849   4.857  16.081 -0.1884 -0.2126 -0.1971
24120DPPC   GL229854   3.853   5.132  16.010  0.5012  0.1301  0.0751
24120DPPC   C1A29855   3.883   4.831  16.432  0.0430 -0.1605  0.3396
24120DPPC   C2A29856   3.781   4.873  16.842 -0.0576  0.0675 -0.0949
24120DPPC   C3A29857   3.785   4.863  17.322  0.0410 -0.0251 -0.4196
24120DPPC   C4A29858   3.707   4.840  17.775 -0.1689  0.0212  0.0933
24120DPPC   C1B29859   3.690   5.260  16.396  0.0862  0.1805  0.5209
24120DPPC   C2B29860   3.707   5.356  16.780  0.1585 -0.0052 -0.1672
24120DPPC   C3B29861   3.751   5.406  17.270  0.2900 -0.1498  0.1419
24120DPPC   C4B29862   3.681   5.352  17.774 -0.2078 -0.0829 -0.2472
24121DPPC   NC329863   8.321   1.492  15.957 -0.2152  0.2593 -0.0475
24121DPPC   PO429864   8.723   1.510  15.876  0.3074 -0.3025 -0.0940
24121DPPC   GL129865   8.978   1.511  16.171 -0.2360  0.1032  0.1673
24121DPPC   GL229866   9.167   1.678  16.045 -0.0466  0.0695  0.6314
24121DPPC   C1A29867   9.007   1.548  16.517  0.0814  0.0559  0.2209
24121DPPC   C2A29868   9.067   1.621  16.886  0.1093  0.1913 -0.0501
24121DPPC   C3A29869   9.034   1.581  17.378  0.1733  0.1878 -0.2979
24121DPPC   C4A29870   9.041   1.586  17.872  0.0121  0.0668  0.1401
24121DPPC   C1B29871   9.378   1.545  16.273  0.2474 -0.0731 -0.1875
24121DPPC   C2B29872   9.488   1.397  16.610  0.1146 -0.1062  0.0949
24121DPPC   C3B29873   9.554   1.433  17.067 -0.0450 -0.1084 -0.2706
24121DPPC   C4B29874   9.435   1.379  17.542 -0.2821 -0.0986  0.1122
24122DPPC   NC329875   5.097   0.911  16.356  0.0582 -0.1422 -0.2557
24122DPPC   PO429876   5.419   0.941  16.132  0.2886 -0.0033 -0.1953
24122DPPC   GL129877   5.648   0.999  16.449  0.2487  0.0573 -0.2643
24122DPPC   GL229878   5.411   1.234  16.514  0.3943  0.2462 -0.0604
24122DPPC   C1A29879   5.708   0.811  16.703  0.1655  0.3935 -0.0024
24122DPPC   C2A29880   5.712   0.829  17.131  0.0969 -0.2460  0.1402
24122DPPC   C3A29881   5.628   0.868  17.576  0.1587  0.0896 -0.1280
24122DPPC   C4A29882   5.514   0.897  18.080 -0.0270  0.0295  0.0258
24122DPPC   C1B29883   5.302   1.092  16.878  0.4779  0.3316 -0.1623
24122DPPC   C2B29884   5.180   1.080  17.326  0.0143 -0.0422  0.0615
24122DPPC   C3B29885   5.094   1.152  17.787 -0.0288 -0.0931  0.0650
24122DPPC   C4B29886   5.074   1.099  18.290 -0.0426  0.0891 -0.1324
24123DPPC   NC329887   7.573   2.639  15.598 -0.3334 -0.3958 -0.5058
24123DPPC   PO429888   7.278   2.576  15.873 -0.0386 -0.0492  0.1626
24123DPPC   GL129889   7.357   2.460  16.265  0.0279 -0.1437 -0.0420
24123DPPC   GL229890   7.039   2.430  16.310  0.0581  0.0978  0.2320
24123DPPC   C1A29891   7.452   2.511  16.584 -0.0905  0.1676  0.2735
24123DPPC   C2A29892   7.576   2.567  16.938 -0.1441  0.0345 -0.0816
24123DPPC   C3A29893   7.546   2.592  17.428  0.0453  0.0821 -0.1820
24123DPPC   C4A29894   7.589   2.575  17.930  0.1133 -0.1999 -0.1291
24123DPPC   C1B29895   6.943   2.377  16.677  0.0786 -0.4048  0.3188
24123DPPC   C2B29896   6.721   2.351  16.998 -0.0298 -0.1015 -0.2506
24123DPPC   C3B29897   6.745   2.304  17.466 -0.1293 -0.1555 -0.0513
24123DPPC   C4B29898   6.639   2.333  17.939 -0.1288  0.0791  0.0704
24124DPPC   NC329899   7.782   3.892  15.677  0.2487  0.1162 -0.0246
24124DPPC   PO429900   7.424   3.904  15.892  0.1488  0.0644  0.2368
24124DPPC   GL129901   7.366   3.852  16.270 -0.0147 -0.0767  0.0776
24124DPPC   GL229902   7.222   4.059  16.317 -0.2050  0.0856 -0.4612
24124DPPC   C1A29903   7.534   3.713  16.601  0.0754  0.0794 -0.0609
24124DPPC   C2A29904   7.486   3.481  16.946  0.2903 -0.0774  0.0726
24124DPPC   C3A29905   7.482   3.484  17.436 -0.2067  0.0555  0.0556
24124DPPC   C4A29906   7.441   3.455  17.980 -0.3233  0.1026  0.2748
24124DPPC   C1B29907   7.072   4.120  16.671 -0.1158 -0.1266 -0.1030
24124DPPC   C2B29908   6.894   4.148  17.069  0.2135 -0.1375 -0.0764
24124DPPC   C3B29909   6.906   4.150  17.589  0.1462  0.0201  0.0175
24124DPPC   C4B29910   6.868   4.263  18.057 -0.0758  0.1983  0.0210
24125DPPC   NC329911   5.299   2.213  15.648 -0.0710 -0.0950 -0.0662
24125DPPC   PO429912   5.225   2.408  16.021  0.2961  0.0883  0.1583
24125DPPC   GL129913   4.900   2.354  16.351  0.0977  0.0147  0.1224
24125DPPC   GL229914   5.019   2.213  16.500  0.4192  0.1944  0.3946
24125DPPC   C1A29915   4.679   2.581  16.508  0.0477 -0.0917  0.0785
24125DPPC   C2A29916   4.485   2.698  16.865 -0.1545 -0.2182  0.1263
24125DPPC   C3A29917   4.380   2.689  17.333 -0.2549  0.3761 -0.0473
24125DPPC   C4A29918   4.416   2.717  17.818  0.2526  0.4253  0.0213
24125DPPC   C1B29919   4.974   2.140  16.882  0.0998 -0.0644  0.1927
24125DPPC   C2B29920   4.962   2.070  17.300 -0.2255 -0.0376  0.0995
24125DPPC   C3B29921   4.946   2.129  17.765 -0.1807  0.1900  0.2572
24125DPPC   C4B29922   4.878   2.056  18.244 -0.1437  0.1034  0.0995
24126DPPC   NC329923   8.197   3.136  15.454  0.2261 -0.2604 -0.2447
24126DPPC   PO429924   7.919   2.973  15.705  0.0561  0.1048 -0.2527
24126DPPC   GL129925   7.907   2.941  16.136 -0.0208  0.0381 -0.5628
24126DPPC   GL229926   7.710   2.674  16.075  0.1103 -0.3138  0.1863
24126DPPC   C1A29927   8.199   3.035  16.366 -0.5128  0.2110 -0.2006
24126DPPC   C2A29928   8.410   2.868  16.656 -0.1657 -0.0271 -0.0679
24126DPPC   C3A29929   8.458   2.798  17.162  0.0072  0.3617 -0.1220
24126DPPC   C4A29930   8.494   2.691  17.638 -0.1116 -0.2583 -0.0677
24126DPPC   C1B29931   7.539   2.870  16.397 -0.1633  0.1392  0.2907
24126DPPC   C2B29932   7.446   3.019  16.740 -0.2614 -0.1111 -0.1309
24126DPPC   C3B29933   7.528   3.036  17.157  0.1320  0.1534 -0.0864
24126DPPC   C4B29934   7.486   3.019  17.666  0.3151  0.0541 -0.0197
24127DPPC   NC329935   7.000   1.385  15.885  0.3779 -0.2284  0.3665
24127DPPC   PO429936   6.822   1.685  16.065 -0.1198 -0.0713  0.1647
24127DPPC   GL129937   6.799   1.952  16.393 -0.1030 -0.3835 -0.0465
24127DPPC   GL229938   6.616   1.720  16.502  0.3827 -0.0377 -0.2986
24127DPPC   C1A29939   6.851   1.954  16.771  0.3382 -0.2226  0.1302
24127DPPC   C2A29940   6.823   1.914  17.190  0.0041  0.3471 -0.1909
24127DPPC   C3A29941   6.740   1.863  17.658 -0.2057 -0.1321 -0.1736
24127DPPC   C4A29942   6.766   1.829  18.099 -0.1629 -0.0169 -0.0038
24127DPPC   C1B29943   6.513   1.673  16.872 -0.2054  0.1272 -0.2355
24127DPPC   C2B29944   6.434   1.514  17.219 -0.0141 -0.3093 -0.1588
24127DPPC   C3B29945   6.358   1.542  17.746  0.6272 -0.1503 -0.2158
24127DPPC   C4B29946   6.304   1.523  18.232  0.0482 -0.1670 -0.3274
24128DPPC   NC329947   5.446   6.106  15.686 -0.0391  0.2060  0.0516
24128DPPC   PO429948   5.473   6.358  15.949  0.0461 -0.0824  0.1521
24128DPPC   GL129949   5.356   6.171  16.230 -0.2800  0.0079 -0.0441
24128DPPC   GL229950   5.403   5.880  16.131  0.0413  0.1239  0.1410
24128DPPC   C1A29951   5.323   6.185  16.574 -0.1930  0.1218 -0.2335
24128DPPC   C2A29952   5.295   6.135  16.987 -0.1047 -0.1651  0.2188
24128DPPC   C3A29953   5.286   6.125  17.468  0.0036  0.1306  0.0153
24128DPPC   C4A29954   5.337   6.240  17.930  0.0365  0.0645 -0.1732
24128DPPC   C1B29955   5.434   5.685  16.445 -0.3248  0.3074  0.2256
24128DPPC   C2B29956   5.430   5.646  16.872  0.0331 -0.1701  0.2852
24128DPPC   C3B29957   5.450   5.646  17.287 -0.1595 -0.1913 -0.1470
24128DPPC   C4B29958   5.391   5.647  17.764  0.2731 -0.2473 -0.1763
24129DPPC   NC329959   9.127   3.458  15.746  0.2026 -0.1045 -0.0077
24129DPPC   PO429960   9.068   3.757  15.985  0.2400  0.2514  0.0810
24129DPPC   GL129961   9.108   3.870  16.398  0.1681 -0.0022  0.2994
24129DPPC   GL229962   8.969   3.611  16.365  0.2872 -0.1791 -0.3402
24129DPPC   C1A29963   9.110   3.905  16.745  0.2140  0.0122 -0.2824
24129DPPC   C2A29964   9.109   3.915  17.115  0.0592 -0.0364  0.0626
24129DPPC   C3A29965   9.084   3.875  17.608 -0.3299  0.2029 -0.2090
24129DPPC   C4A29966   9.111   3.838  18.174  0.2095 -0.1884  0.1010
24129DPPC   C1B29967   8.883   3.524  16.726  0.0987 -0.1471  0.1277
24129DPPC   C2B29968   8.774   3.579  17.154  0.0519  0.0567  0.2053
24129DPPC   C3B29969   8.711   3.535  17.658 -0.2159  0.0178 -0.1521
24129DPPC   C4B29970   8.683   3.421  18.129 -0.2187 -0.1822  0.1683
24130DPPC   NC329971   3.985   0.138  15.598 -0.2092  0.3500 -0.2289
24130DPPC   PO429972   4.295   0.239  15.832 -0.0281 -0.1181  0.0506
24130DPPC   GL129973   4.241   0.257  16.279  0.3975 -0.0388  0.0208
24130DPPC   GL229974   4.462   0.339  16.320  0.4433 -0.2029 -0.0257
24130DPPC   C1A29975   4.085   0.163  16.631 -0.1919  0.0502 -0.0973
24130DPPC   C2A29976   3.966   0.041  17.031  0.0009  0.0986  0.0389
24130DPPC   C3A29977   3.852   0.018  17.450  0.2852  0.0402 -0.0050
24130DPPC   C4A29978   3.920   0.004  17.973  0.2399 -0.0632  0.2883
24130DPPC   C1B29979   4.472   0.362  16.694  0.1389  0.0330 -0.1287
24130DPPC   C2B29980   4.338   0.428  17.061  0.0790  0.0995  0.1047
24130DPPC   C3B29981   4.341   0.393  17.549 -0.1663  0.1421 -0.0349
24130DPPC   C4B29982   4.303   0.355  18.064 -0.0361  0.0927  0.2711
24131DPPC   NC329983   6.300   3.270  16.261 -0.2926  0.0944 -0.2964
24131DPPC   PO429984   5.976   3.452  16.159  0.3098  0.0818  0.0482
24131DPPC   GL129985   5.509   3.453  16.290  0.0209  0.1972  0.1394
24131DPPC   GL229986   5.626   3.748  16.338 -0.0689 -0.2098 -0.0301
24131DPPC   C1A29987   5.283   3.457  16.608 -0.0808 -0.2193 -0.0441
24131DPPC   C2A29988   5.252   3.461  17.051  0.2471 -0.2591  0.5133
24131DPPC   C3A29989   5.253   3.377  17.506  0.2690  0.0490  0.1220
24131DPPC   C4A29990   5.365   3.353  18.013 -0.0135 -0.4321  0.1074
24131DPPC   C1B29991   5.613   3.735  16.669  0.0307 -0.0677  0.0815
24131DPPC   C2B29992   5.605   3.771  17.040 -0.1360  0.0933 -0.2173
24131DPPC   C3B29993   5.706   3.702  17.542 -0.1003 -0.0472 -0.1497
24131DPPC   C4B29994   5.699   3.750  18.026  0.0835 -0.1513  0.2461
24132DPPC   NC329995   6.306   5.647  15.689  0.1443  0.0301  0.2594
24132DPPC   PO429996   6.111   5.376  15.893 -0.3410 -0.0279  0.2053
24132DPPC   GL129997   6.090   5.441  16.227 -0.0071 -0.0653 -0.1396
24132DPPC   GL229998   5.803   5.583  16.279 -0.0430  0.2052 -0.2421
24132DPPC   C1A29999   6.247   5.390  16.543  0.0512  0.4596  0.0543
24132DPPC   C2A30000   6.346   5.332  16.923 -0.0885  0.0867 -0.1742
24132DPPC   C3A30001   6.327   5.349  17.481 -0.1556  0.1134  0.2746
24132DPPC   C4A30002   6.349   5.359  17.943 -0.2753  0.0726 -0.0146
24132DPPC   C1B30003   5.886   5.513  16.631  0.1712 -0.0888  0.3372
24132DPPC   C2B30004   5.906   5.553  17.061 -0.0525 -0.2347 -0.1440
24132DPPC   C3B30005   5.870   5.536  17.550  0.1138  0.0008  0.2763
24132DPPC   C4B30006   5.892   5.619  17.986 -0.1698  0.2791  0.1194
24133DPPC   NC330007   6.824   4.972  15.872 -0.2369 -0.0365  0.1554
24133DPPC   PO430008   6.882   4.749  16.165 -0.0240 -0.0653 -0.0903
24133DPPC   GL130009   7.222   4.749  16.343  0.2788  0.0503 -0.0065
24133DPPC   GL230010   7.240   4.509  16.463  0.6494  0.4673 -0.1653
24133DPPC   C1A30011   7.188   4.896  16.690 -0.0161  0.0991  0.2332
24133DPPC   C2A30012   7.313   5.059  17.066  0.0367 -0.1154  0.0807
24133DPPC   C3A30013   7.253   5.074  17.586  0.2155 -0.1174 -0.0358
24133DPPC   C4A30014   7.193   5.211  18.065  0.1399  0.1012 -0.3511
24133DPPC   C1B30015   7.390   4.551  16.808 -0.0627 -0.2210 -0.0942
24133DPPC   C2B30016   7.388   4.525  17.235  0.0368  0.0729 -0.1398
24133DPPC   C3B30017   7.315   4.496  17.725 -0.2714  0.1245 -0.2323
24133DPPC   C4B30018   7.276   4.609  18.179 -0.2441  0.1173 -0.1045
24134DPPC   NC330019   2.974   3.403  15.720  0.0238  0.4644  0.0321
24134DPPC   PO430020   2.898   3.040  15.892  0.0583  0.2337 -0.1007
24134DPPC   GL130021   3.071   3.072  16.368 -0.0373  0.0227  0.2360
24134DPPC   GL230022   2.945   3.299  16.254  0.1132  0.0381  0.0326
24134DPPC   C1A30023   3.136   3.176  16.732  0.2660  0.2201 -0.0724
24134DPPC   C2A30024   3.111   3.208  17.120  0.2517  0.0167 -0.3854
24134DPPC   C3A30025   3.099   3.159  17.572  0.0177 -0.1742  0.2202
24134DPPC   C4A30026   3.112   3.172  18.117  0.1374  0.1846  0.2550
24134DPPC   C1B30027   2.757   3.427  16.508 -0.4633  0.0631  0.4359
24134DPPC   C2B30028   2.658   3.302  16.869  0.5826  0.1259  0.0686
24134DPPC   C3B30029   2.707   3.380  17.343 -0.0878 -0.1183  0.0118
24134DPPC   C4B30030   2.646   3.242  17.775 -0.0513 -0.2334 -0.0192
24135DPPC   NC330031   6.838   3.726  15.977  0.4693 -0.1162 -0.0113
24135DPPC   PO430032   6.789   4.093  16.114 -0.1825 -0.3274 -0.0401
24135DPPC   GL130033   6.797   4.350  16.389 -0.2403 -0.0481  0.2636
24135DPPC   GL230034   6.548   4.255  16.541 -0.2690 -0.1245 -0.2319
24135DPPC   C1A30035   6.853   4.511  16.662  0.0357  0.3337  0.0284
24135DPPC   C2A30036   6.921   4.671  17.022  0.1444  0.1694  0.0059
24135DPPC   C3A30037   6.859   4.633  17.488 -0.0866  0.0051 -0.1567
24135DPPC   C4A30038   6.896   4.873  17.910 -0.0587  0.2209 -0.1084
24135DPPC   C1B30039   6.500   4.309  16.907 -0.0373  0.1666  0.0220
24135DPPC   C2B30040   6.455   4.354  17.307  0.3255 -0.1854 -0.0460
24135DPPC   C3B30041   6.478   4.465  17.810  0.0961  0.2619  0.1621
24135DPPC   C4B30042   6.438   4.401  18.310  0.1985 -0.2442  0.1295
24136DPPC   NC330043   8.147   4.078  15.933  0.0551 -0.0138 -0.3866
24136DPPC   PO430044   8.488   4.295  16.009  0.0183  0.3323  0.1074
24136DPPC   GL130045   8.507   4.415  16.357  0.0821 -0.3251  0.1470
24136DPPC   GL230046   8.675   4.614  16.365 -0.0242  0.2477  0.1802
24136DPPC   C1A30047   8.391   4.361  16.717 -0.2358 -0.4343  0.0761
24136DPPC   C2A30048   8.269   4.209  17.085  0.1031  0.0792  0.2045
24136DPPC   C3A30049   8.233   4.138  17.570 -0.1340 -0.2680  0.1037
24136DPPC   C4A30050   8.201   4.159  18.067  0.1241  0.0562 -0.1414
24136DPPC   C1B30051   8.707   4.677  16.752  0.0539  0.0319 -0.1634
24136DPPC   C2B30052   8.637   4.570  17.141  0.0074 -0.0836 -0.0312
24136DPPC   C3B30053   8.732   4.488  17.580 -0.0239  0.2215  0.1285
24136DPPC   C4B30054   8.697   4.550  18.087  0.3009  0.1515  0.2475
24137DPPC   NC330055   2.390   1.491  15.865  0.0256  0.1784  0.0710
24137DPPC   PO430056   2.618   1.814  15.857 -0.2377  0.0025  0.1633
24137DPPC   GL130057   2.701   1.896  16.255  0.0816  0.0042  0.0033
24137DPPC   GL230058   2.844   1.691  16.399 -0.3083 -0.1101 -0.0417
24137DPPC   C1A30059   2.831   2.162  16.446  0.0030 -0.0945  0.1608
24137DPPC   C2A30060   2.773   2.309  16.791  0.2969  0.0456  0.0157
24137DPPC   C3A30061   2.728   2.347  17.309 -0.0483 -0.2503 -0.2363
24137DPPC   C4A30062   2.605   2.295  17.833 -0.0368 -0.0464  0.2749
24137DPPC   C1B30063   2.812   1.824  16.745  0.0258 -0.0814  0.3104
24137DPPC   C2B30064   2.830   1.890  17.108  0.1611  0.1439  0.0471
24137DPPC   C3B30065   2.767   1.864  17.583  0.1073 -0.1331  0.1642
24137DPPC   C4B30066   2.709   1.858  18.062  0.0110 -0.1049  0.0745
24138DPPC   NC330067   8.818   3.054  15.384 -0.1452  0.1982 -0.1462
24138DPPC   PO430068   8.935   2.952  15.755 -0.0544 -0.0537 -0.2208
24138DPPC   GL130069   8.865   2.674  16.146 -0.1923  0.2305 -0.2287
24138DPPC   GL230070   8.704   2.868  16.230  0.0936  0.0372  0.1624
24138DPPC   C1A30071   8.981   2.593  16.469  0.0773  0.1910 -0.2060
24138DPPC   C2A30072   8.916   2.555  16.827  0.0346 -0.0275 -0.1019
24138DPPC   C3A30073   8.940   2.567  17.288 -0.1612 -0.0652 -0.2297
24138DPPC   C4A30074   8.913   2.519  17.765 -0.1531  0.0739  0.0688
24138DPPC   C1B30075   8.828   3.048  16.488  0.3013  0.4600 -0.0849
24138DPPC   C2B30076   8.857   3.110  16.889 -0.2057  0.0041  0.0412
24138DPPC   C3B30077   8.852   3.075  17.348 -0.0748 -0.0100  0.2489
24138DPPC   C4B30078   8.858   2.978  17.849  0.0967 -0.0553  0.2949
24139DPPC   NC330079   2.396   4.408  15.647 -0.2147 -0.1943  0.0134
24139DPPC   PO430080   2.734   4.405  15.833 -0.0379 -0.0820  0.1245
24139DPPC   GL130081   2.877   4.417  16.189 -0.3662 -0.0912  0.1633
24139DPPC   GL230082   2.975   4.165  16.211 -0.3338  0.0814 -0.0773
24139DPPC   C1A30083   2.899   4.553  16.527 -0.0850 -0.0966 -0.2476
24139DPPC   C2A30084   2.870   4.665  16.920  0.2169 -0.0253 -0.2519
24139DPPC   C3A30085   2.860   4.660  17.398 -0.3264  0.1372  0.0121
24139DPPC   C4A30086   2.941   4.745  17.839  0.1244 -0.1437 -0.1741
24139DPPC   C1B30087   3.051   4.147  16.554 -0.0478 -0.0693 -0.1342
24139DPPC   C2B30088   2.950   4.169  16.996  0.0533  0.0675  0.2598
24139DPPC   C3B30089   2.920   4.164  17.464  0.2547  0.2689 -0.2286
24139DPPC   C4B30090   3.014   4.289  17.938 -0.1673  0.1601  0.1981
24140DPPC   NC330091   3.890   1.141  15.589 -0.0361 -0.1240  0.0130
24140DPPC   PO430092   3.857   0.917  15.936 -0.0504  0.1124 -0.0782
24140DPPC   GL130093   3.640   1.081  16.222  0.0868 -0.1804  0.0398
24140DPPC   GL230094   3.615   1.344  16.141  0.0879 -0.1258 -0.4426
24140DPPC   C1A30095   3.351   1.011  16.435 -0.1668 -0.1551  0.5261
24140DPPC   C2A30096   3.084   0.938  16.744 -0.2709  0.0472  0.1350
24140DPPC   C3A30097   2.934   0.863  17.222  0.2258 -0.0229  0.1416
24140DPPC   C4A30098   2.913   0.893  17.745 -0.2268 -0.2059  0.2990
24140DPPC   C1B30099   3.777   1.457  16.516  0.1648 -0.0313  0.0661
24140DPPC   C2B30100   3.704   1.566  16.880  0.0877  0.2141  0.1167
24140DPPC   C3B30101   3.740   1.545  17.342 -0.0713 -0.2534 -0.1337
24140DPPC   C4B30102   3.673   1.501  17.800  0.2137 -0.3681  0.0120
24141DPPC   NC330103   5.690   5.588  15.863  0.1023  0.1595  0.4227
24141DPPC   PO430104   5.612   5.199  15.946  0.1295  0.1307 -0.2716
24141DPPC   GL130105   5.759   5.084  16.290 -0.0384 -0.0701 -0.1104
24141DPPC   GL230106   5.965   4.875  16.215 -0.2033 -0.0536 -0.1311
24141DPPC   C1A30107   5.674   4.833  16.584 -0.2922  0.3050 -0.1266
24141DPPC   C2A30108   5.599   4.722  16.960  0.0845  0.1056  0.1437
24141DPPC   C3A30109   5.563   4.729  17.453 -0.0875  0.0249  0.0763
24141DPPC   C4A30110   5.489   4.803  17.950  0.3004  0.2826 -0.2864
24141DPPC   C1B30111   6.097   4.936  16.564 -0.2182 -0.1328 -0.0740
24141DPPC   C2B30112   5.966   5.014  16.918 -0.0218 -0.1048  0.0571
24141DPPC   C3B30113   5.972   5.010  17.371  0.1084 -0.0482  0.0042
24141DPPC   C4B30114   5.964   5.105  17.847  0.3227  0.0456  0.4461
24142DPPC   NC330115   4.650   6.305  15.970 -0.1783 -0.2657 -0.0847
24142DPPC   PO430116   4.937   6.056  15.974 -0.1645 -0.2440 -0.0033
24142DPPC   GL130117   4.754   5.765  16.224  0.2092  0.2062 -0.1626
24142DPPC   GL230118   4.906   5.961  16.470 -0.1406  0.2723  0.2148
24142DPPC   C1A30119   4.479   5.608  16.393 -0.2738 -0.0764  0.1097
24142DPPC   C2A30120   4.535   5.498  16.778  0.0676  0.1293  0.0472
24142DPPC   C3A30121   4.508   5.474  17.234 -0.2889 -0.0313 -0.0447
24142DPPC   C4A30122   4.532   5.494  17.721  0.0823  0.4336  0.0381
24142DPPC   C1B30123   4.932   5.871  16.826 -0.0458 -0.3980 -0.0395
24142DPPC   C2B30124   4.924   5.802  17.253  0.1411 -0.0093 -0.0730
24142DPPC   C3B30125   4.894   5.812  17.736  0.0083 -0.1340  0.0564
24142DPPC   C4B30126   5.035   5.898  18.206 -0.0805  0.0290  0.2308
24143DPPC   NC330127   6.973   2.972  15.969 -0.1404  0.0670  0.0812
24143DPPC   PO430128   6.770   3.264  16.097 -0.2070 -0.2707 -0.2088
24143DPPC   GL130129   6.698   3.532  16.448  0.1552  0.2286 -0.3414
24143DPPC   GL230130   6.820   3.764  16.464  0.2072  0.1461  0.0808
24143DPPC   C1A30131   6.638   3.421  16.749  0.1595 -0.0390 -0.0782
24143DPPC   C2A30132   6.619   3.266  17.127  0.0449  0.0401  0.1257
24143DPPC   C3A30133   6.560   3.265  17.582  0.2044 -0.1759 -0.2541
24143DPPC   C4A30134   6.592   3.294  18.103  0.0583  0.0171 -0.0431
24143DPPC   C1B30135   6.955   3.734  16.826  0.1484  0.0561 -0.3301
24143DPPC   C2B30136   7.071   3.632  17.185  0.4040  0.2524 -0.0081
24143DPPC   C3B30137   6.983   3.637  17.647 -0.2437  0.1423 -0.0855
24143DPPC   C4B30138   6.972   3.676  18.133 -0.1898 -0.1882  0.0574
24144DPPC   NC330139   7.793   4.681  15.718  0.1516  0.2519 -0.2475
24144DPPC   PO430140   7.723   4.321  15.944 -0.1859 -0.0896  0.1394
24144DPPC   GL130141   7.617   4.331  16.332 -0.1195 -0.0442 -0.0364
24144DPPC   GL230142   7.674   4.651  16.305  0.0684  0.2640  0.0591
24144DPPC   C1A30143   7.502   4.211  16.652  0.0474 -0.1286  0.0330
24144DPPC   C2A30144   7.388   3.997  16.983  0.0180 -0.4497 -0.3120
24144DPPC   C3A30145   7.365   3.990  17.472  0.0645  0.2685  0.0581
24144DPPC   C4A30146   7.336   4.022  17.977  0.0470  0.1636 -0.0954
24144DPPC   C1B30147   7.788   4.802  16.642  0.4884 -0.1247 -0.0555
24144DPPC   C2B30148   7.745   4.829  17.060 -0.1170 -0.1385  0.0377
24144DPPC   C3B30149   7.662   4.828  17.484  0.3276  0.0646  0.0306
24144DPPC   C4B30150   7.740   4.757  17.965 -0.1965  0.0863  0.1078
24145DPPC   NC330151   6.318   4.235  16.125 -0.1164  0.3984 -0.0387
24145DPPC   PO430152   6.350   3.827  16.243 -0.2327  0.0926  0.1325
24145DPPC   GL130153   6.278   3.816  16.635 -0.0436 -0.1854  0.1296
24145DPPC   GL230154   6.079   3.571  16.595 -0.0662 -0.1123 -0.3455
24145DPPC   C1A30155   6.487   3.847  16.956 -0.3239  0.1273  0.3556
24145DPPC   C2A30156   6.565   3.869  17.353  0.3646  0.0846  0.0299
24145DPPC   C3A30157   6.540   3.795  17.817 -0.0631 -0.1751  0.0868
24145DPPC   C4A30158   6.558   3.945  18.300  0.0349 -0.2127  0.1539
24145DPPC   C1B30159   6.030   3.538  16.957 -0.0202 -0.1940 -0.3076
24145DPPC   C2B30160   6.147   3.488  17.331  0.1305  0.2019 -0.2361
24145DPPC   C3B30161   6.102   3.491  17.769  0.0465  0.0083  0.1484
24145DPPC   C4B30162   6.169   3.620  18.240 -0.2347 -0.1745 -0.2029
24146DPPC   NC330163   5.653   2.646  16.107  0.2975  0.2325  0.0014
24146DPPC   PO430164   5.931   2.895  16.217 -0.0544 -0.0692  0.0414
24146DPPC   GL130165   5.837   3.190  16.554  0.1169 -0.1159  0.0327
24146DPPC   GL230166   6.048   3.167  16.682 -0.0308 -0.0224  0.1915
24146DPPC   C1A30167   5.678   3.281  16.876 -0.1705  0.0509  0.1276
24146DPPC   C2A30168   5.721   3.231  17.301 -0.3770 -0.0788  0.0978
24146DPPC   C3A30169   5.707   3.172  17.795 -0.0783  0.0476 -0.1057
24146DPPC   C4A30170   5.769   3.234  18.264  0.0938 -0.1320 -0.0228
24146DPPC   C1B30171   6.133   3.088  17.038 -0.0233 -0.0365  0.2278
24146DPPC   C2B30172   6.199   2.966  17.457  0.3639 -0.2496  0.0305
24146DPPC   C3B30173   6.183   2.977  17.903  0.2542 -0.2293  0.2455
24146DPPC   C4B30174   6.165   2.999  18.440  0.0060  0.1074  0.0118
24147DPPC   NC330175   4.244   3.600  16.132  0.1409  0.0683 -0.1015
24147DPPC   PO430176   4.337   3.286  15.905  0.1781  0.1018 -0.0583
24147DPPC   GL130177   4.492   3.126  16.337  0.1136 -0.2645  0.2209
24147DPPC   GL230178   4.748   3.073  16.265 -0.1305  0.0158 -0.0914
24147DPPC   C1A30179   4.498   3.166  16.734 -0.1033 -0.0421 -0.3729
24147DPPC   C2A30180   4.418   3.176  17.147  0.0530  0.0832 -0.0302
24147DPPC   C3A30181   4.390   3.181  17.625 -0.2497 -0.0041 -0.1236
24147DPPC   C4A30182   4.424   3.147  18.157  0.0239  0.0317 -0.3692
24147DPPC   C1B30183   4.952   3.094  16.557 -0.2363  0.1098 -0.0013
24147DPPC   C2B30184   4.935   3.023  16.951 -0.3190 -0.3223 -0.0164
24147DPPC   C3B30185   4.844   3.082  17.489 -0.1965 -0.0009 -0.2067
24147DPPC   C4B30186   4.851   3.090  17.970 -0.1488  0.0266  0.0404
24148DPPC   NC330187   7.911   1.930  15.329  0.3759 -0.2408  0.3485
24148DPPC   PO430188   7.684   2.126  15.587  0.0946  0.1937  0.4749
24148DPPC   GL130189   7.587   2.209  15.963  0.2229 -0.2143 -0.2813
24148DPPC   GL230190   7.638   1.973  16.069 -0.2299  0.1711 -0.1823
24148DPPC   C1A30191   7.879   2.300  16.227 -0.2967  0.3085  0.2644
24148DPPC   C2A30192   8.091   2.304  16.635  0.1232 -0.0521  0.2424
24148DPPC   C3A30193   8.118   2.404  17.156  0.1465 -0.0726 -0.2167
24148DPPC   C4A30194   8.047   2.387  17.656 -0.1555 -0.0891 -0.3173
24148DPPC   C1B30195   7.582   1.916  16.409  0.2905 -0.1076  0.1081
24148DPPC   C2B30196   7.676   2.103  16.756 -0.0650 -0.0279 -0.1017
24148DPPC   C3B30197   7.703   2.056  17.229  0.0880  0.1409 -0.1809
24148DPPC   C4B30198   7.593   2.119  17.738  0.0049  0.0724  0.0914
24149DPPC   NC330199   7.567   3.385  16.306 -0.2720 -0.0795  0.0057
24149DPPC   PO430200   7.189   3.430  16.293 -0.0503 -0.3237  0.1154
24149DPPC   GL130201   7.052   3.342  16.665  0.0830  0.3051 -0.0000
24149DPPC   GL230202   7.087   3.040  16.481 -0.0127  0.0705  0.0144
24149DPPC   C1A30203   7.115   3.260  17.006  0.0414  0.3795 -0.2035
24149DPPC   C2A30204   7.041   3.124  17.420  0.0078 -0.3534  0.2257
24149DPPC   C3A30205   7.030   3.160  17.894 -0.2542  0.1245  0.0200
24149DPPC   C4A30206   6.999   3.244  18.404 -0.2936  0.1763  0.1860
24149DPPC   C1B30207   7.105   2.777  16.741 -0.1256 -0.0871 -0.5171
24149DPPC   C2B30208   7.131   2.643  17.153  0.2533  0.2034  0.1125
24149DPPC   C3B30209   7.086   2.662  17.612  0.3763 -0.0019 -0.0898
24149DPPC   C4B30210   7.085   2.631  18.124 -0.2859  0.0919 -0.0225
24150DPPC   NC330211   8.914   0.089  15.444 -0.2128 -0.1423  0.0617
24150DPPC   PO430212   8.673   0.070  15.720  0.1722  0.3859 -0.0859
24150DPPC   GL130213   8.719   0.114  16.140 -0.1684 -0.4402  0.0497
24150DPPC   GL230214   8.551  -0.075  16.178  0.1992  0.1362 -0.3178
24150DPPC   C1A30215   8.914   0.236  16.461 -0.2188  0.0057  0.0031
24150DPPC   C2A30216   8.852   0.242  16.900  0.1804 -0.1117 -0.2357
24150DPPC   C3A30217   8.805   0.231  17.374 -0.0944  0.2174  0.0922
24150DPPC   C4A30218   8.708   0.292  17.870 -0.0556  0.0152  0.3558
24150DPPC   C1B30219   8.432  -0.072  16.498  0.3148 -0.0010 -0.0874
24150DPPC   C2B30220   8.420  -0.061  16.911  0.0631  0.1299  0.1886
24150DPPC   C3B30221   8.395  -0.055  17.344  0.1173  0.3821  0.0209
24150DPPC   C4B30222   8.344  -0.092  17.832 -0.0039 -0.1525 -0.0438
24151DPPC   NC330223   5.101   3.323  16.119 -0.0415 -0.1598  0.2515
24151DPPC   PO430224   5.194   2.925  16.142 -0.2677 -0.2632  0.0277
24151DPPC   GL130225   5.498   2.865  16.454 -0.1975  0.1624 -0.0429
24151DPPC   GL230226   5.286   2.660  16.490 -0.2515  0.1678 -0.0487
24151DPPC   C1A30227   5.552   2.894  16.821  0.0877  0.2738 -0.0951
24151DPPC   C2A30228   5.331   2.850  17.157 -0.0450 -0.0049 -0.0419
24151DPPC   C3A30229   5.288   2.878  17.680  0.1932 -0.4213  0.3289
24151DPPC   C4A30230   5.252   2.877  18.223 -0.0101 -0.2415  0.0553
24151DPPC   C1B30231   5.028   2.618  16.758  0.0933  0.0592  0.1325
24151DPPC   C2B30232   4.920   2.589  17.199  0.0243  0.0171  0.0166
24151DPPC   C3B30233   4.870   2.630  17.686 -0.1896 -0.1170 -0.1038
24151DPPC   C4B30234   4.863   2.552  18.118  0.1525  0.2217 -0.5051
24152DPPC   NC330235   6.143   0.909  15.874  0.0357  0.2770 -0.2724
24152DPPC   PO430236   5.917   1.107  16.084  0.1761  0.3932 -0.0207
24152DPPC   GL130237   6.121   1.099  16.494  0.2787  0.3534 -0.2850
24152DPPC   GL230238   6.186   1.404  16.436 -0.0882 -0.0895 -0.0778
24152DPPC   C1A30239   6.107   1.231  16.854  0.1681 -0.1189  0.1441
24152DPPC   C2A30240   6.058   1.196  17.271 -0.1019  0.1112 -0.1273
24152DPPC   C3A30241   6.019   1.213  17.787  0.2659 -0.1313 -0.1855
24152DPPC   C4A30242   5.932   1.227  18.290 -0.2889  0.0732 -0.3902
24152DPPC   C1B30243   6.117   1.676  16.729  0.1681 -0.1484 -0.0558
24152DPPC   C2B30244   5.935   1.717  17.109 -0.3182 -0.0919  0.2631
24152DPPC   C3B30245   5.860   1.657  17.621 -0.0559 -0.2736  0.1281
24152DPPC   C4B30246   5.800   1.728  18.085 -0.1771  0.0745 -0.1612
24153DPPC   NC330247   3.048   4.723  15.571 -0.2194  0.2877  0.0402
24153DPPC   PO430248   2.675   4.840  15.606 -0.0592 -0.1745  0.3914
24153DPPC   GL130249   2.680   5.013  15.964  0.1630  0.0609  0.1422
24153DPPC   GL230250   2.660   4.768  16.108 -0.1748  0.0037 -0.4582
24153DPPC   C1A30251   2.652   5.122  16.293  0.1200 -0.0316  0.1321
24153DPPC   C2A30252   2.745   5.122  16.719  0.3348 -0.1229  0.2080
24153DPPC   C3A30253   2.893   5.113  17.166 -0.0499 -0.3153 -0.0835
24153DPPC   C4A30254   2.715   5.152  17.655  0.1645  0.0423 -0.0443
24153DPPC   C1B30255   2.439   4.780  16.446  0.3257  0.0945  0.0487
24153DPPC   C2B30256   2.390   4.830  16.881  0.2658  0.1655 -0.0702
24153DPPC   C3B30257   2.415   4.823  17.355 -0.2345 -0.3085 -0.0807
24153DPPC   C4B30258   2.358   4.865  17.818  0.0357  0.1116 -0.0504
24154DPPC   NC330259   8.824   2.469  15.646  0.1519  0.0656 -0.1144
24154DPPC   PO430260   8.476   2.439  15.881 -0.0476 -0.0910 -0.1275
24154DPPC   GL130261   8.451   2.501  16.294 -0.2879 -0.1467  0.1065
24154DPPC   GL230262   8.134   2.584  16.171 -0.1475  0.1138  0.0761
24154DPPC   C1A30263   8.550   2.406  16.621  0.3591 -0.0944 -0.0466
24154DPPC   C2A30264   8.527   2.261  16.934  0.2062 -0.2078 -0.2239
24154DPPC   C3A30265   8.507   2.287  17.416 -0.1042 -0.0552 -0.0524
24154DPPC   C4A30266   8.467   2.236  17.867 -0.0929 -0.1051  0.1455
24154DPPC   C1B30267   7.926   2.741  16.490 -0.1226  0.1556 -0.1098
24154DPPC   C2B30268   7.969   2.878  16.905  0.1818 -0.0120 -0.0850
24154DPPC   C3B30269   8.035   2.857  17.402  0.2440 -0.0760 -0.1097
24154DPPC   C4B30270   7.987   2.826  17.877  0.1599 -0.2068 -0.0314
24155DPPC   NC330271   4.253   4.122  15.389  0.0303  0.0847  0.2329
24155DPPC   PO430272   4.252   4.164  15.765  0.1683 -0.2121 -0.0822
24155DPPC   GL130273   4.205   4.655  15.900  0.0624 -0.1495  0.0857
24155DPPC   GL230274   4.113   4.414  16.045 -0.3753 -0.2102  0.2745
24155DPPC   C1A30275   4.307   4.730  16.275 -0.4599 -0.1218  0.2385
24155DPPC   C2A30276   4.280   4.760  16.681  0.0973 -0.0940 -0.2412
24155DPPC   C3A30277   4.267   4.670  17.113 -0.1186 -0.2506 -0.0177
24155DPPC   C4A30278   4.232   4.629  17.584  0.2605  0.0086 -0.1385
24155DPPC   C1B30279   4.153   4.400  16.455 -0.0103  0.1028  0.0990
24155DPPC   C2B30280   4.291   4.212  16.799 -0.0922 -0.1047  0.3469
24155DPPC   C3B30281   4.284   4.207  17.260  0.3814 -0.1080 -0.0585
24155DPPC   C4B30282   4.299   4.125  17.769  0.1659  0.1609 -0.3431
24156DPPC   NC330283   7.109   0.628  15.522  0.3124 -0.1897 -0.2385
24156DPPC   PO430284   7.182   0.977  15.716  0.0911  0.0920  0.1435
24156DPPC   GL130285   7.151   0.952  16.145 -0.2373  0.2449 -0.2475
24156DPPC   GL230286   7.412   1.081  16.189 -0.2092  0.1410  0.0163
24156DPPC   C1A30287   6.993   0.879  16.414  0.0963  0.1008  0.1092
24156DPPC   C2A30288   6.901   0.886  16.823 -0.1792  0.0129 -0.2938
24156DPPC   C3A30289   6.945   0.895  17.357 -0.1173  0.0761  0.1293
24156DPPC   C4A30290   6.877   0.848  17.861 -0.0807  0.0794  0.2086
24156DPPC   C1B30291   7.298   1.266  16.503 -0.0723  0.3095  0.2301
24156DPPC   C2B30292   7.363   1.265  16.870  0.2686 -0.1130 -0.3372
24156DPPC   C3B30293   7.307   1.270  17.345  0.0551 -0.1615  0.7152
24156DPPC   C4B30294   7.237   1.165  17.789  0.0049 -0.1819  0.0944
24157DPPC   NC330295   3.004   0.231  15.935 -0.0437  0.0116 -0.0601
24157DPPC   PO430296   3.062   0.586  15.754 -0.0845 -0.1726 -0.2180
24157DPPC   GL130297   2.973   0.803  16.125  0.0008  0.1382  0.0909
24157DPPC   GL230298   3.191   0.603  16.168  0.1502 -0.1135 -0.1598
24157DPPC   C1A30299   2.833   0.788  16.445 -0.1561  0.5487 -0.0570
24157DPPC   C2A30300   2.604   0.968  16.782  0.1187 -0.1132  0.3656
24157DPPC   C3A30301   2.440   1.041  17.194  0.2539 -0.0883 -0.0142
24157DPPC   C4A30302   2.359   1.068  17.643  0.0181 -0.1524 -0.0414
24157DPPC   C1B30303   2.959   0.401  16.400 -0.0425  0.0444  0.4525
24157DPPC   C2B30304   3.019   0.410  16.812 -0.2272 -0.0005 -0.1727
24157DPPC   C3B30305   2.940   0.362  17.334  0.2793 -0.0023 -0.1328
24157DPPC   C4B30306   2.947   0.310  17.812  0.3523  0.2114  0.2883
24158DPPC   NC330307   6.651   6.060  16.004  0.0695  0.2493 -0.4164
24158DPPC   PO430308   6.389   6.383  15.980 -0.0648 -0.0167 -0.0118
24158DPPC   GL130309   6.200   6.327  16.300  0.1372 -0.1404 -0.1731
24158DPPC   GL230310   5.897   6.434  16.242 -0.0461 -0.0972  0.0215
24158DPPC   C1A30311   6.098   6.350  16.639  0.2953  0.1181 -0.3248
24158DPPC   C2A30312   6.166   6.351  17.054  0.1674 -0.0516 -0.1178
24158DPPC   C3A30313   6.231   6.363  17.511  0.0099  0.2891  0.0387
24158DPPC   C4A30314   6.186   6.300  17.986  0.0088  0.2349 -0.0364
24158DPPC   C1B30315   5.696   6.455  16.543 -0.1103 -0.2135 -0.1893
24158DPPC   C2B30316   5.722   6.492  16.995  0.3094  0.0466 -0.0512
24158DPPC   C3B30317   5.766   6.516  17.501  0.2092  0.0237 -0.0672
24158DPPC   C4B30318   5.738   6.520  17.984  0.0644 -0.2756 -0.0739
24159DPPC   NC330319   5.406   0.386  15.824 -0.2142 -0.2131 -0.0225
24159DPPC   PO430320   5.089   0.633  15.857 -0.2904  0.1436  0.1332
24159DPPC   GL130321   5.069   0.489  16.273  0.0490 -0.1517 -0.0463
24159DPPC   GL230322   5.357   0.466  16.315  0.3488 -0.1427  0.2366
24159DPPC   C1A30323   4.906   0.245  16.481  0.2001 -0.2896 -0.0771
24159DPPC   C2A30324   4.874   0.279  16.890  0.1142  0.0526  0.2083
24159DPPC   C3A30325   4.793   0.302  17.372 -0.1592 -0.1926 -0.1339
24159DPPC   C4A30326   4.720   0.229  17.833 -0.0326  0.1014  0.1008
24159DPPC   C1B30327   5.343   0.581  16.611 -0.2944  0.1883 -0.0583
24159DPPC   C2B30328   5.259   0.658  16.976 -0.1635  0.0210  0.1027
24159DPPC   C3B30329   5.209   0.576  17.455 -0.2192 -0.1424 -0.0091
24159DPPC   C4B30330   5.097   0.561  17.931 -0.1609 -0.1887  0.0859
24160DPPC   NC330331   5.118   5.035  15.891  0.0241 -0.0505  0.0584
24160DPPC   PO430332   4.739   5.005  15.895  0.0541 -0.0592 -0.1233
24160DPPC   GL130333   4.880   4.736  16.293  0.1733 -0.0276  0.1707
24160DPPC   GL230334   5.060   4.906  16.378  0.1139  0.1295 -0.4151
24160DPPC   C1A30335   4.646   4.600  16.518 -0.0332  0.0621 -0.4587
24160DPPC   C2A30336   4.692   4.547  16.912 -0.1513  0.0643  0.2553
24160DPPC   C3A30337   4.697   4.517  17.357 -0.1799  0.1538  0.0346
24160DPPC   C4A30338   4.620   4.529  17.838  0.1628  0.1066 -0.1494
24160DPPC   C1B30339   5.152   4.934  16.746 -0.1224 -0.1255 -0.1218
24160DPPC   C2B30340   5.066   4.892  17.133 -0.2320 -0.2479  0.2955
24160DPPC   C3B30341   5.051   4.921  17.598  0.2590 -0.1102 -0.4068
24160DPPC   C4B30342   5.009   4.929  18.104 -0.1622  0.1804  0.3159
24161DPPC   NC330343   2.721   6.108  15.607  0.2525  0.0053 -0.1171
24161DPPC   PO430344   2.773   6.496  15.666  0.1006  0.0553  0.1006
24161DPPC   GL130345   2.611   6.599  16.059 -0.2535 -0.2655 -0.2115
24161DPPC   GL230346   2.694   6.364  16.122 -0.1689  0.0889 -0.1312
24161DPPC   C1A30347   2.482   6.674  16.378 -0.0631  0.3318 -0.2215
24161DPPC   C2A30348   2.605   6.684  16.786 -0.1745 -0.0832 -0.0315
24161DPPC   C3A30349   2.587   6.643  17.240  0.2517  0.4740  0.0530
24161DPPC   C4A30350   2.507   6.594  17.638  0.1725  0.0924 -0.2486
24161DPPC   C1B30351   2.618   6.300  16.484 -0.1767 -0.2194  0.4489
24161DPPC   C2B30352   2.592   6.209  16.910 -0.0737  0.0762 -0.0709
24161DPPC   C3B30353   2.613   6.124  17.391 -0.1804  0.1349 -0.0254
24161DPPC   C4B30354   2.637   6.068  17.915 -0.1748 -0.1244  0.1154
24162DPPC   NC330355   7.205   4.390  15.978 -0.0299 -0.0113 -0.0289
24162DPPC   PO430356   7.272   4.728  15.791 -0.0544  0.2617 -0.1994
24162DPPC   GL130357   7.413   5.107  16.065 -0.1466  0.1692  0.4466
24162DPPC   GL230358   7.121   5.169  16.140 -0.2350 -0.1259  0.0759
24162DPPC   C1A30359   7.589   5.125  16.400 -0.1538  0.0486  0.1694
24162DPPC   C2A30360   7.679   5.240  16.764 -0.0169 -0.1057  0.0302
24162DPPC   C3A30361   7.702   5.425  17.238 -0.0279  0.0143 -0.0174
24162DPPC   C4A30362   7.613   5.366  17.717  0.1050 -0.0263  0.0423
24162DPPC   C1B30363   7.040   5.224  16.470  0.2967 -0.0603 -0.1761
24162DPPC   C2B30364   6.848   5.173  16.830  0.0950  0.0558 -0.0603
24162DPPC   C3B30365   6.749   5.228  17.303 -0.2965 -0.0804  0.0148
24162DPPC   C4B30366   6.796   5.358  17.697 -0.3681  0.3302 -0.3222
24163DPPC   NC330367   8.864   1.069  16.122  0.0386 -0.0653 -0.1603
24163DPPC   PO430368   8.479   0.995  16.163 -0.1236  0.0389  0.1776
24163DPPC   GL130369   8.287   0.943  16.468 -0.1793  0.1395 -0.0463
24163DPPC   GL230370   8.358   0.601  16.476 -0.0369 -0.2833 -0.0609
24163DPPC   C1A30371   8.306   1.006  16.805  0.2340 -0.0964  0.3283
24163DPPC   C2A30372   8.300   0.952  17.186  0.2433  0.0360 -0.1423
24163DPPC   C3A30373   8.231   0.943  17.689 -0.1443 -0.1336 -0.0524
24163DPPC   C4A30374   8.110   1.077  18.186  0.1876  0.1119  0.1430
24163DPPC   C1B30375   8.385   0.370  16.809 -0.0197 -0.1291  0.0767
24163DPPC   C2B30376   8.378   0.439  17.193 -0.3966 -0.2300 -0.0176
24163DPPC   C3B30377   8.285   0.399  17.648 -0.0775  0.0382  0.1133
24163DPPC   C4B30378   8.244   0.362  18.157 -0.1115 -0.1450 -0.1349
24164DPPC   NC330379   7.900   6.156  15.386  0.0725  0.1532 -0.1878
24164DPPC   PO430380   7.922   6.164  15.793 -0.0170  0.0220 -0.0218
24164DPPC   GL130381   7.826   6.418  16.135 -0.0163  0.0328 -0.1065
24164DPPC   GL230382   8.115   6.272  16.238  0.1355 -0.5421 -0.1001
24164DPPC   C1A30383   7.589   6.391  16.425  0.1061  0.3277 -0.0153
24164DPPC   C2A30384   7.496   6.378  16.813 -0.2510 -0.0466  0.0959
24164DPPC   C3A30385   7.565   6.359  17.283  0.2166 -0.1089  0.0690
24164DPPC   C4A30386   7.532   6.396  17.779  0.1349  0.3253  0.0284
24164DPPC   C1B30387   8.130   6.245  16.619 -0.2306  0.0277 -0.0094
24164DPPC   C2B30388   8.011   6.233  17.060  0.0531  0.0181  0.2761
24164DPPC   C3B30389   8.004   6.253  17.522  0.2230 -0.4810 -0.0774
24164DPPC   C4B30390   8.026   6.166  18.047 -0.0771 -0.3368 -0.0967
24165DPPC   NC330391   4.151   5.832  15.588 -0.0088  0.1163  0.2312
24165DPPC   PO430392   4.417   5.878  15.881  0.1683 -0.3862  0.2663
24165DPPC   GL130393   4.325   6.010  16.221  0.2361  0.2879 -0.0784
24165DPPC   GL230394   4.084   5.996  16.313 -0.0211  0.0606  0.0784
24165DPPC   C1A30395   4.503   6.056  16.565  0.2125  0.1620 -0.1503
24165DPPC   C2A30396   4.566   6.047  16.985 -0.3127 -0.0217 -0.0086
24165DPPC   C3A30397   4.495   6.063  17.457  0.0564  0.3867  0.0067
24165DPPC   C4A30398   4.457   6.002  17.894  0.0328  0.1472 -0.1295
24165DPPC   C1B30399   4.068   5.793  16.609  0.1226 -0.0301 -0.0128
24165DPPC   C2B30400   4.129   5.735  17.001  0.0091 -0.1642 -0.4412
24165DPPC   C3B30401   4.123   5.735  17.458  0.2392 -0.0511  0.0040
24165DPPC   C4B30402   4.017   5.634  17.946 -0.2830 -0.0307  0.3974
24166DPPC   NC330403   2.414   5.272  15.673  0.3300  0.4718 -0.1208
24166DPPC   PO430404   2.685   5.493  15.830  0.2367  0.0114  0.0347
24166DPPC   GL130405   2.810   5.593  16.263 -0.1052 -0.0967 -0.3139
24166DPPC   GL230406   3.009   5.509  16.172  0.1401 -0.2918 -0.1772
24166DPPC   C1A30407   2.800   5.667  16.628 -0.2630 -0.3345  0.2387
24166DPPC   C2A30408   2.775   5.611  17.026  0.0302 -0.2795 -0.1416
24166DPPC   C3A30409   2.653   5.594  17.448 -0.0231  0.1721 -0.1821
24166DPPC   C4A30410   2.595   5.559  17.935  0.1558 -0.1424  0.0094
24166DPPC   C1B30411   3.182   5.201  16.342 -0.0396 -0.0549 -0.1241
24166DPPC   C2B30412   3.222   4.935  16.657 -0.0250  0.4074  0.2762
24166DPPC   C3B30413   3.358   5.064  17.026  0.3109 -0.0331 -0.2871
24166DPPC   C4B30414   3.329   4.934  17.493  0.1368  0.1049  0.0899
24167DPPC   NC330415   5.900   4.760  15.773 -0.1339 -0.0053 -0.0017
24167DPPC   PO430416   5.846   4.447  15.979  0.0084  0.0585 -0.0138
24167DPPC   GL130417   5.819   4.439  16.352  0.2674  0.2636 -0.1235
24167DPPC   GL230418   5.872   4.102  16.334  0.1451 -0.1282 -0.2784
24167DPPC   C1A30419   5.914   4.481  16.700  0.0485  0.1070 -0.1416
24167DPPC   C2A30420   6.062   4.528  17.060  0.1461  0.2661 -0.0241
24167DPPC   C3A30421   6.020   4.522  17.534  0.2508 -0.0607  0.0485
24167DPPC   C4A30422   5.881   4.570  17.997 -0.0582 -0.1542 -0.0791
24167DPPC   C1B30423   5.923   4.032  16.696 -0.2940 -0.0642  0.0908
24167DPPC   C2B30424   6.087   4.013  17.056 -0.0798  0.1438 -0.4134
24167DPPC   C3B30425   6.118   3.988  17.539 -0.0088 -0.1370  0.0892
24167DPPC   C4B30426   6.175   4.043  18.015  0.2162  0.1918 -0.2581
24168DPPC   NC330427   3.131   2.669  15.276  0.0938  0.2519 -0.1493
24168DPPC   PO430428   3.100   2.533  15.626  0.1880  0.0620 -0.1565
24168DPPC   GL130429   3.015   2.541  16.067 -0.0232 -0.2969 -0.1353
24168DPPC   GL230430   3.248   2.749  16.101  0.1965  0.2247  0.0121
24168DPPC   C1A30431   2.921   2.582  16.363  0.0604  0.2779 -0.1576
24168DPPC   C2A30432   2.775   2.893  16.621 -0.0800  0.0403  0.3746
24168DPPC   C3A30433   2.722   2.842  17.080  0.0040 -0.2803  0.0043
24168DPPC   C4A30434   2.621   2.849  17.544  0.2851  0.2971  0.2311
24168DPPC   C1B30435   3.313   2.705  16.510  0.0267 -0.3342 -0.0195
24168DPPC   C2B30436   3.177   2.737  16.922  0.0326 -0.1709  0.2622
24168DPPC   C3B30437   3.121   2.703  17.336  0.0941  0.0437 -0.0986
24168DPPC   C4B30438   3.097   2.707  17.851  0.1956  0.0576 -0.2179
24169DPPC   NC330439   4.116   3.090  15.360  0.0682  0.0228 -0.0023
24169DPPC   PO430440   3.958   2.857  15.650 -0.0893  0.0072 -0.2000
24169DPPC   GL130441   3.775   3.003  16.083  0.1274  0.2150  0.1756
24169DPPC   GL230442   3.984   3.200  16.123  0.0330 -0.1910  0.2437
24169DPPC   C1A30443   3.680   3.083  16.425  0.1648 -0.2604  0.5499
24169DPPC   C2A30444   3.583   3.049  16.836  0.0850  0.1260 -0.1193
24169DPPC   C3A30445   3.541   2.954  17.346  0.0196  0.0962 -0.1657
24169DPPC   C4A30446   3.530   3.084  17.833  0.1371 -0.1244  0.2623
24169DPPC   C1B30447   4.026   3.299  16.470  0.3571 -0.4009  0.0884
24169DPPC   C2B30448   4.040   3.351  16.867 -0.0761 -0.0284 -0.1557
24169DPPC   C3B30449   3.944   3.372  17.338  0.1729  0.1769 -0.1339
24169DPPC   C4B30450   3.971   3.377  17.817 -0.3155  0.3127  0.1713
24170DPPC   NC330451   4.247   0.699  16.058 -0.0360  0.0747  0.0145
24170DPPC   PO430452   4.645   0.662  16.046  0.1656  0.1031  0.2035
24170DPPC   GL130453   4.662   0.773  16.389  0.0184  0.1007  0.1187
24170DPPC   GL230454   4.419   0.820  16.515  0.2846  0.0932  0.0798
24170DPPC   C1A30455   4.850   0.767  16.726  0.4551  0.1323  0.0411
24170DPPC   C2A30456   4.797   0.789  17.108  0.2107 -0.0632 -0.2382
24170DPPC   C3A30457   4.799   0.822  17.593  0.2367  0.0081  0.0615
24170DPPC   C4A30458   4.671   0.793  18.054  0.2907  0.0359  0.2121
24170DPPC   C1B30459   4.252   0.828  16.838 -0.0781 -0.1993  0.0923
24170DPPC   C2B30460   4.300   0.889  17.284  0.1546 -0.1219  0.0619
24170DPPC   C3B30461   4.276   0.895  17.745 -0.1993  0.0420 -0.2273
24170DPPC   C4B30462   4.169   0.833  18.200  0.1694 -0.1997 -0.0282
24171DPPC   NC330463   8.359   6.292  15.815 -0.2512  0.2557 -0.0139
24171DPPC   PO430464   8.707   6.177  15.968 -0.1425  0.0573  0.2654
24171DPPC   GL130465   8.671   5.960  16.314  0.2127  0.2174 -0.1765
24171DPPC   GL230466   8.470   6.115  16.449 -0.2552  0.2842  0.2070
24171DPPC   C1A30467   8.884   5.884  16.630  0.3731  0.1652  0.0871
24171DPPC   C2A30468   8.932   5.921  17.023  0.0705  0.2277  0.1056
24171DPPC   C3A30469   8.798   5.840  17.421  0.1975 -0.0714  0.0061
24171DPPC   C4A30470   8.872   5.870  17.897  0.0104 -0.2701  0.1757
24171DPPC   C1B30471   8.512   6.045  16.781  0.2905  0.0552  0.1816
24171DPPC   C2B30472   8.453   6.104  17.159 -0.0360  0.2183  0.0839
24171DPPC   C3B30473   8.409   5.972  17.657 -0.0256 -0.0743  0.0347
24171DPPC   C4B30474   8.395   5.912  18.105 -0.1438  0.1766 -0.0672
24172DPPC   NC330475   7.707   1.116  15.840  0.1627 -0.1041  0.1729
24172DPPC   PO430476   7.990   1.083  16.082 -0.0270 -0.0244 -0.4038
24172DPPC   GL130477   7.911   1.124  16.473 -0.0704 -0.2242 -0.2284
24172DPPC   GL230478   8.152   1.341  16.510  0.3348 -0.4324 -0.1283
24172DPPC   C1A30479   7.753   1.143  16.778 -0.0040 -0.1320 -0.1161
24172DPPC   C2A30480   7.802   1.061  17.173  0.0341 -0.2874 -0.1994
24172DPPC   C3A30481   7.711   1.102  17.636 -0.0015  0.3161  0.0345
24172DPPC   C4A30482   7.565   0.987  18.043  0.1453 -0.1080 -0.4249
24172DPPC   C1B30483   8.193   1.419  16.863 -0.2253 -0.1379 -0.2141
24172DPPC   C2B30484   8.244   1.430  17.244 -0.0942 -0.1082  0.1076
24172DPPC   C3B30485   8.161   1.421  17.718  0.1701 -0.2932  0.1790
24172DPPC   C4B30486   8.200   1.545  18.246 -0.1722  0.0669 -0.0377
24173DPPC   NC330487   7.511   5.922  15.806  0.1878  0.0925  0.1974
24173DPPC   PO430488   7.121   5.982  15.898  0.1544  0.1219 -0.0600
24173DPPC   GL130489   7.081   5.799  16.311 -0.2814 -0.1006  0.1262
24173DPPC   GL230490   7.310   5.995  16.310 -0.2823  0.1143 -0.2082
24173DPPC   C1A30491   7.015   5.924  16.644  0.0994 -0.0617 -0.0803
24173DPPC   C2A30492   7.051   6.078  17.021 -0.1528  0.0500  0.1702
24173DPPC   C3A30493   7.166   6.109  17.440  0.0276 -0.2392  0.0325
24173DPPC   C4A30494   7.110   6.090  17.989  0.1358  0.0738  0.2078
24173DPPC   C1B30495   7.479   5.936  16.634  0.4373 -0.1767  0.0699
24173DPPC   C2B30496   7.563   5.876  17.016 -0.0918  0.3135  0.1305
24173DPPC   C3B30497   7.662   5.880  17.471 -0.2373  0.0955 -0.3205
24173DPPC   C4B30498   7.630   5.912  17.991 -0.0446 -0.1274  0.0476
24174DPPS   CNO30499   6.977   1.787  15.568 -0.2283  0.1270 -0.0947
24174DPPS   PO430500   7.276   1.797  15.797 -0.0975 -0.1380  0.2615
24174DPPS   GL130501   7.215   1.880  16.202  0.2171  0.0450  0.0413
24174DPPS   GL230502   7.231   1.649  16.343 -0.2542  0.3950 -0.3611
24174DPPS   C1A30503   7.206   2.113  16.528 -0.0357  0.0561 -0.1853
24174DPPS   C2A30504   7.231   2.171  16.961 -0.0221 -0.1743 -0.1239
24174DPPS   C3A30505   7.215   2.149  17.431  0.0183  0.0941  0.2733
24174DPPS   C4A30506   7.134   2.156  17.923 -0.0314 -0.0596 -0.0569
24174DPPS   C1B30507   7.336   1.718  16.744  0.3309 -0.0678  0.0846
24174DPPS   C2B30508   7.319   1.727  17.137  0.1383  0.1922 -0.1227
24174DPPS   C3B30509   7.288   1.658  17.629 -0.1694 -0.2698 -0.0786
24174DPPS   C4B30510   7.265   1.638  18.115  0.0876 -0.1336 -0.0486
24175DPPS   CNO30511   7.844   0.021  15.557 -0.0306  0.1562 -0.0034
24175DPPS   PO430512   7.550  -0.125  15.742 -0.3716 -0.2474  0.1089
24175DPPS   GL130513   7.281   0.047  16.063  0.4709  0.0721 -0.2097
24175DPPS   GL230514   7.157  -0.178  16.043  0.4730 -0.0394  0.0048
24175DPPS   C1A30515   7.088   0.267  16.309  0.2282  0.0581 -0.0824
24175DPPS   C2A30516   7.062   0.441  16.673 -0.0897 -0.2209 -0.0619
24175DPPS   C3A30517   7.000   0.455  17.148  0.4243 -0.3187  0.1137
24175DPPS   C4A30518   6.936   0.420  17.654  0.0606  0.0942  0.2694
24175DPPS   C1B30519   7.136  -0.166  16.418 -0.1788 -0.0801  0.2044
24175DPPS   C2B30520   7.030  -0.067  16.835  0.1420  0.1871 -0.0664
24175DPPS   C3B30521   7.027  -0.023  17.288 -0.0276  0.1343  0.0424
24175DPPS   C4B30522   7.067  -0.059  17.711  0.1879 -0.3595 -0.2957
24176DPPS   CNO30523   5.913   0.176  15.350  0.1127  0.1207  0.0379
24176DPPS   PO430524   5.888   0.341  15.693 -0.1607  0.0219 -0.0318
24176DPPS   GL130525   6.047   0.222  16.017 -0.2815  0.0525 -0.0274
24176DPPS   GL230526   5.765   0.229  16.114 -0.2012 -0.2488  0.1190
24176DPPS   C1A30527   6.218   0.191  16.350 -0.2555  0.5053  0.1121
24176DPPS   C2A30528   6.173   0.213  16.770 -0.2755 -0.0866 -0.1319
24176DPPS   C3A30529   6.173   0.237  17.215  0.0665  0.3215 -0.1266
24176DPPS   C4A30530   6.095   0.238  17.732 -0.2003  0.2455 -0.1712
24176DPPS   C1B30531   5.740   0.316  16.473 -0.0031  0.0881  0.4401
24176DPPS   C2B30532   5.694   0.392  16.875  0.0055  0.0164  0.1277
24176DPPS   C3B30533   5.670   0.347  17.348  0.0370 -0.1042 -0.0884
24176DPPS   C4B30534   5.583   0.455  17.813  0.2182  0.1852 -0.0676
24177DPPS   CNO30535   6.416   5.228  15.375 -0.0036 -0.1097  0.3036
24177DPPS   PO430536   6.367   5.010  15.665  0.0740 -0.3629 -0.2202
24177DPPS   GL130537   6.384   5.036  16.119  0.2679  0.0230 -0.1386
24177DPPS   GL230538   6.382   4.717  16.075 -0.2626  0.1208 -0.0882
24177DPPS   C1A30539   6.588   5.209  16.382  0.1142 -0.2186 -0.0292
24177DPPS   C2A30540   6.656   5.639  16.484 -0.0862  0.2094  0.1368
24177DPPS   C3A30541   6.757   5.651  16.993 -0.1935 -0.0497  0.2007
24177DPPS   C4A30542   6.759   5.798  17.443 -0.0733  0.0817 -0.1393
24177DPPS   C1B30543   6.363   4.637  16.404 -0.3906  0.1756 -0.2738
24177DPPS   C2B30544   6.508   4.765  16.756  0.1673  0.1693 -0.2154
24177DPPS   C3B30545   6.395   4.853  17.176  0.2049  0.0076 -0.4721
24177DPPS   C4B30546   6.440   4.919  17.667 -0.2760 -0.1550  0.1704
24178DPPS   CNO30547   4.241   1.585  15.621  0.1343 -0.0804  0.0157
24178DPPS   PO430548   4.253   1.871  15.860 -0.1785 -0.0989  0.1017
24178DPPS   GL130549   4.227   1.644  16.098  0.1782 -0.3108 -0.2176
24178DPPS   GL230550   4.539   1.499  16.156  0.0012 -0.1843 -0.1744
24178DPPS   C1A30551   4.089   1.762  16.392  0.1876  0.3569  0.4587
24178DPPS   C2A30552   4.198   1.854  16.738  0.2912 -0.3052 -0.2442
24178DPPS   C3A30553   4.070   1.885  17.219  0.2626  0.0093 -0.1303
24178DPPS   C4A30554   4.067   1.866  17.688  0.0668  0.0720  0.1294
24178DPPS   C1B30555   4.582   1.626  16.537  0.2553 -0.2198  0.1214
24178DPPS   C2B30556   4.611   1.695  16.924 -0.1883  0.2006  0.2409
24178DPPS   C3B30557   4.573   1.700  17.411  0.2271 -0.3890 -0.0189
24178DPPS   C4B30558   4.518   1.765  17.914  0.0132  0.0959 -0.1161
24179DPPS   CNO30559   4.809   1.098  15.985  0.0222 -0.1384  0.3518
24179DPPS   PO430560   5.045   1.374  16.082 -0.0103  0.0661 -0.2509
24179DPPS   GL130561   4.951   1.320  16.507 -0.0588  0.1694 -0.1273
24179DPPS   GL230562   4.637   1.218  16.492 -0.0614  0.0068 -0.1795
24179DPPS   C1A30563   5.043   1.548  16.768  0.1340 -0.2388 -0.2079
24179DPPS   C2A30564   5.022   1.580  17.192 -0.0080  0.1935 -0.1096
24179DPPS   C3A30565   4.990   1.587  17.662 -0.0593 -0.0861  0.2850
24179DPPS   C4A30566   4.961   1.549  18.155 -0.1062 -0.1363 -0.0968
24179DPPS   C1B30567   4.724   1.235  16.859  0.0178  0.0199  0.1073
24179DPPS   C2B30568   4.695   1.219  17.267  0.1411 -0.0045  0.0976
24179DPPS   C3B30569   4.609   1.246  17.735 -0.0587  0.0786 -0.0189
24179DPPS   C4B30570   4.516   1.256  18.223  0.1959  0.0045  0.1923
24180DPPS   CNO30571   6.253   6.097  15.533 -0.0429  0.0555  0.2089
24180DPPS   PO430572   5.915   5.970  15.629  0.3031 -0.0027  0.0606
24180DPPS   GL130573   5.938   6.076  15.998 -0.0358 -0.0636  0.2991
24180DPPS   GL230574   6.097   5.867  15.996 -0.1031  0.0372 -0.0579
24180DPPS   C1A30575   5.771   5.980  16.310  0.0114  0.0610 -0.0800
24180DPPS   C2A30576   5.818   6.046  16.736  0.1112 -0.1068 -0.5064
24180DPPS   C3A30577   5.788   6.086  17.222  0.1343 -0.0016  0.4689
24180DPPS   C4A30578   5.713   6.021  17.678 -0.0913  0.1619  0.1139
24180DPPS   C1B30579   6.223   5.884  16.353 -0.1474  0.1619  0.1331
24180DPPS   C2B30580   6.267   5.872  16.773  0.3510 -0.1247  0.1787
24180DPPS   C3B30581   6.311   5.795  17.213 -0.0859 -0.4478  0.0312
24180DPPS   C4B30582   6.242   5.807  17.748  0.0014 -0.0758  0.1140
24181DPPS   CNO30583   7.564   5.150  15.608 -0.0122  0.0794  0.3491
24181DPPS   PO430584   7.717   5.439  15.777  0.2694  0.3065 -0.1007
24181DPPS   GL130585   7.619   5.608  16.156  0.4263 -0.0642 -0.2373
24181DPPS   GL230586   7.782   5.861  16.142  0.0885  0.0403 -0.2793
24181DPPS   C1A30587   7.446   5.483  16.468  0.0056 -0.1342 -0.0375
24181DPPS   C2A30588   7.255   5.524  16.832  0.3232  0.2515  0.1911
24181DPPS   C3A30589   7.210   5.596  17.313  0.1390  0.0646 -0.2225
24181DPPS   C4A30590   7.226   5.654  17.774 -0.0240  0.0139 -0.3765
24181DPPS   C1B30591   8.007   5.803  16.453  0.1168  0.0797  0.0985
24181DPPS   C2B30592   8.117   5.824  16.822 -0.0603 -0.0386 -0.3191
24181DPPS   C3B30593   8.135   5.787  17.259 -0.0963 -0.1352 -0.3945
24181DPPS   C4B30594   8.003   5.627  17.784 -0.1677  0.1469 -0.0487
24182DPPS   CNO30595   8.036   0.768  15.272  0.0114 -0.0503  0.1219
24182DPPS   PO430596   7.866   0.712  15.623  0.1665 -0.1621 -0.1432
24182DPPS   GL130597   7.826   0.648  16.001  0.2663  0.3281 -0.2639
24182DPPS   GL230598   8.009   0.635  16.212 -0.2133 -0.1316  0.4805
24182DPPS   C1A30599   7.564   0.688  16.250 -0.0188 -0.2378  0.2298
24182DPPS   C2A30600   7.407   0.808  16.610 -0.0200 -0.1287 -0.1787
24182DPPS   C3A30601   7.407   0.791  17.091  0.0506  0.1686 -0.0684
24182DPPS   C4A30602   7.376   0.749  17.565  0.1734  0.1229  0.3635
24182DPPS   C1B30603   7.860   0.595  16.576 -0.1724 -0.0571 -0.3916
24182DPPS   C2B30604   7.932   0.658  16.953 -0.2307 -0.1643  0.1079
24182DPPS   C3B30605   7.877   0.661  17.438  0.0020 -0.0018  0.1381
24182DPPS   C4B30606   7.859   0.671  17.904 -0.1320 -0.0662 -0.0237
24183DPPS   CNO30607   4.551   6.101  15.415  0.1632 -0.2125 -0.2616
24183DPPS   PO430608   4.221   6.296  15.561 -0.1218 -0.1463 -0.0630
24183DPPS   GL130609   4.194   6.394  16.025  0.0121 -0.1586 -0.0792
24183DPPS   GL230610   3.928   6.531  16.011 -0.1673  0.4491  0.2169
24183DPPS   C1A30611   4.364   6.501  16.358  0.0110 -0.0165 -0.3488
24183DPPS   C2A30612   4.470   6.513  16.766  0.1533  0.0441  0.0361
24183DPPS   C3A30613   4.437   6.560  17.266 -0.1431 -0.3946 -0.0520
24183DPPS   C4A30614   4.353   6.492  17.735 -0.0785  0.1291 -0.2537
24183DPPS   C1B30615   3.934   6.450  16.406  0.1716  0.2763  0.1419
24183DPPS   C2B30616   3.986   6.251  16.738 -0.1280 -0.0416  0.0988
24183DPPS   C3B30617   3.960   6.164  17.200 -0.1998 -0.2938 -0.0960
24183DPPS   C4B30618   3.843   6.160  17.721  0.0445 -0.0885  0.1494
24184DPPS   CNO30619   4.355   0.901  15.622 -0.1096 -0.0460  0.3123
24184DPPS   PO430620   4.319   1.173  15.845  0.0530 -0.1656 -0.0115
24184DPPS   GL130621   4.250   1.206  16.225  0.1567 -0.1019  0.0283
24184DPPS   GL230622   4.028   0.994  16.332  0.1205 -0.1393  0.0557
24184DPPS   C1A30623   4.206   1.390  16.542  0.0487 -0.0275  0.3190
24184DPPS   C2A30624   4.230   1.406  16.984 -0.0342  0.1616 -0.0463
24184DPPS   C3A30625   4.157   1.350  17.515  0.2894 -0.2035 -0.0100
24184DPPS   C4A30626   4.102   1.372  17.976 -0.0031  0.1539  0.0174
24184DPPS   C1B30627   3.755   0.964  16.632 -0.1262 -0.3006  0.0146
24184DPPS   C2B30628   3.792   1.039  17.039 -0.3762 -0.6420  0.0351
24184DPPS   C3B30629   3.782   1.077  17.475  0.0184 -0.2509 -0.0875
24184DPPS   C4B30630   3.757   0.973  17.970  0.3569  0.1736  0.3387
24185DPPS   CNO30631   6.228   2.569  15.652  0.2069 -0.1144  0.2240
24185DPPS   PO430632   6.113   2.443  15.984  0.2483 -0.3645  0.1602
24185DPPS   GL130633   5.955   2.442  16.407 -0.3293  0.0029 -0.1719
24185DPPS   GL230634   6.042   2.156  16.330 -0.2236  0.1418  0.1379
24185DPPS   C1A30635   5.766   2.549  16.698  0.1910 -0.1136  0.4151
24185DPPS   C2A30636   5.812   2.688  17.098 -0.2549  0.0253 -0.3099
24185DPPS   C3A30637   5.761   2.731  17.548 -0.1444 -0.0665 -0.0532
24185DPPS   C4A30638   5.762   2.742  18.013 -0.1091  0.2012  0.0976
24185DPPS   C1B30639   6.321   2.025  16.627 -0.1565 -0.0536  0.1323
24185DPPS   C2B30640   6.328   2.046  17.035 -0.4369 -0.0544  0.0447
24185DPPS   C3B30641   6.270   1.946  17.438  0.0669  0.0510  0.0959
24185DPPS   C4B30642   6.234   1.955  17.992 -0.1795 -0.1289  0.3461
24186DPPS   CNO30643   9.128   0.243  15.915 -0.2063 -0.0848 -0.1473
24186DPPS   PO430644   9.113  -0.164  16.004 -0.1714  0.0934  0.0385
24186DPPS   GL130645   8.940  -0.221  16.396 -0.3637 -0.1521  0.1973
24186DPPS   GL230646   9.182  -0.380  16.486 -0.3156  0.2536  0.1250
24186DPPS   C1A30647   8.817  -0.167  16.749 -0.0114 -0.1597  0.0234
24186DPPS   C2A30648   8.892  -0.228  17.164 -0.1456 -0.0136  0.1324
24186DPPS   C3A30649   8.823  -0.269  17.599  0.2155 -0.2694  0.1212
24186DPPS   C4A30650   8.833  -0.295  18.071  0.0739 -0.0080 -0.0471
24186DPPS   C1B30651   9.208  -0.381  16.848  0.2653 -0.1766  0.1582
24186DPPS   C2B30652   9.322  -0.380  17.238  0.0675  0.1565  0.0306
24186DPPS   C3B30653   9.336  -0.394  17.749  0.1393 -0.0839  0.2359
24186DPPS   C4B30654   9.266  -0.483  18.211 -0.1127  0.0804  0.0412
24187DPPS   CNO30655   3.320   3.886  15.319  0.0127  0.1378  0.2662
24187DPPS   PO430656   3.395   3.682  15.653  0.3189 -0.2629 -0.2178
24187DPPS   GL130657   3.341   3.730  16.056  0.2486 -0.1452 -0.0518
24187DPPS   GL230658   3.389   3.968  16.140 -0.1925 -0.0045 -0.1632
24187DPPS   C1A30659   3.306   3.564  16.363  0.0813  0.5230 -0.0942
24187DPPS   C2A30660   3.066   3.663  16.675  0.0913  0.0160 -0.1688
24187DPPS   C3A30661   3.091   3.724  17.171 -0.0110 -0.1164 -0.1454
24187DPPS   C4A30662   3.032   3.660  17.655  0.1546  0.2331  0.1134
24187DPPS   C1B30663   3.440   4.012  16.488 -0.2801 -0.0208 -0.1160
24187DPPS   C2B30664   3.445   3.996  16.910 -0.3814  0.1872  0.2467
24187DPPS   C3B30665   3.440   3.998  17.380  0.0082  0.0879 -0.0222
24187DPPS   C4B30666   3.447   4.066  17.869 -0.3039 -0.1666 -0.0632
24188DPPS   CNO30667   7.144   0.045  15.527 -0.0328  0.0871  0.2476
24188DPPS   PO430668   6.849   0.116  15.757  0.4398 -0.1637 -0.2331
24188DPPS   GL130669   6.769  -0.067  16.184 -0.2598 -0.1056  0.0629
24188DPPS   GL230670   6.613   0.189  16.239  0.1313  0.3744 -0.3880
24188DPPS   C1A30671   6.655  -0.295  16.430 -0.0691  0.4728  0.2361
24188DPPS   C2A30672   6.609  -0.411  16.785  0.3340 -0.1449  0.2611
24188DPPS   C3A30673   6.591  -0.379  17.239  0.0888  0.0789 -0.0191
24188DPPS   C4A30674   6.674  -0.392  17.774  0.3511  0.1793 -0.0001
24188DPPS   C1B30675   6.566   0.140  16.599 -0.1173 -0.0020  0.4316
24188DPPS   C2B30676   6.590   0.074  17.022  0.2513  0.0441  0.1401
24188DPPS   C3B30677   6.594   0.113  17.482 -0.0003  0.3090 -0.1788
24188DPPS   C4B30678   6.599   0.030  17.972  0.0367 -0.0353 -0.0971
24189DPPS   CNO30679   6.636   1.037  15.890  0.0843 -0.1008 -0.1545
24189DPPS   PO430680   6.412   1.287  16.073  0.3144 -0.2941  0.4319
24189DPPS   GL130681   6.764   1.312  16.361 -0.0775  0.0792  0.0105
24189DPPS   GL230682   6.606   1.114  16.437 -0.0470 -0.0247  0.1172
24189DPPS   C1A30683   6.933   1.491  16.629  0.3839 -0.2160 -0.0941
24189DPPS   C2A30684   6.940   1.409  17.035  0.1389  0.0216 -0.2708
24189DPPS   C3A30685   6.828   1.402  17.516  0.1782  0.0249  0.0628
24189DPPS   C4A30686   6.745   1.289  18.020 -0.0201 -0.0934 -0.0423
24189DPPS   C1B30687   6.567   1.187  16.777 -0.0996  0.1031  0.2026
24189DPPS   C2B30688   6.544   1.066  17.178 -0.0976  0.1182 -0.1162
24189DPPS   C3B30689   6.439   1.037  17.640  0.1467  0.0723  0.0871
24189DPPS   C4B30690   6.358   1.014  18.093 -0.1797  0.2017  0.0464
24190DPPS   CNO30691   3.608   6.420  15.449  0.0825  0.2145  0.3403
24190DPPS   PO430692   3.530   6.462  15.778  0.3356 -0.0748 -0.2795
24190DPPS   GL130693   3.523   6.289  16.165 -0.2213  0.1543  0.2403
24190DPPS   GL230694   3.548   6.634  16.228 -0.1091  0.1896  0.4077
24190DPPS   C1A30695   3.402   6.325  16.511  0.1930 -0.0701  0.0059
24190DPPS   C2A30696   3.533   6.307  16.912  0.0652 -0.1884  0.0814
24190DPPS   C3A30697   3.455   6.280  17.400  0.3236 -0.0111  0.0073
24190DPPS   C4A30698   3.419   6.356  17.897 -0.4657 -0.1575  0.1285
24190DPPS   C1B30699   3.617   6.769  16.530 -0.2649 -0.0043 -0.1663
24190DPPS   C2B30700   3.518   6.790  16.889 -0.1333  0.1228 -0.1307
24190DPPS   C3B30701   3.402   6.793  17.329  0.0213 -0.0708 -0.2193
24190DPPS   C4B30702   3.503   6.837  17.808 -0.0586 -0.2627 -0.1902
24191DPPS   CNO30703   4.781   3.980  15.871 -0.1918  0.0834  0.4271
24191DPPS   PO430704   4.823   3.610  15.834 -0.3100  0.0767  0.0556
24191DPPS   GL130705   4.656   3.604  16.292 -0.1610 -0.0396  0.2436
24191DPPS   GL230706   4.804   3.463  16.438  0.1972 -0.1765 -0.1692
24191DPPS   C1A30707   4.477   3.731  16.591 -0.0704  0.0113  0.3338
24191DPPS   C2A30708   4.362   3.720  16.964 -0.1228 -0.1301  0.2408
24191DPPS   C3A30709   4.398   3.651  17.441 -0.4114 -0.0798 -0.1058
24191DPPS   C4A30710   4.387   3.681  17.913 -0.1273  0.1694 -0.1505
24191DPPS   C1B30711   4.846   3.496  16.762  0.0512 -0.0153 -0.0083
24191DPPS   C2B30712   4.797   3.488  17.181  0.2948  0.0293 -0.0829
24191DPPS   C3B30713   4.783   3.489  17.703  0.1105 -0.3168  0.1467
24191DPPS   C4B30714   4.790   3.575  18.225 -0.0946 -0.0817 -0.2591
24192DPPS   CNO30715   8.178   4.951  15.481 -0.1946  0.0219 -0.4142
24192DPPS   PO430716   8.338   4.741  15.745  0.1704 -0.2431  0.0306
24192DPPS   GL130717   8.319   4.712  16.046  0.0390 -0.3219 -0.1416
24192DPPS   GL230718   8.099   4.541  16.135  0.3701  0.0568  0.0025
24192DPPS   C1A30719   8.221   4.870  16.402 -0.0430 -0.5824 -0.0985
24192DPPS   C2A30720   8.229   4.793  16.841  0.3198  0.0123 -0.2645
24192DPPS   C3A30721   8.160   4.670  17.316 -0.0202  0.0281  0.0622
24192DPPS   C4A30722   8.283   4.622  17.779 -0.2387  0.0565  0.0756
24192DPPS   C1B30723   8.010   4.484  16.487  0.2532  0.1452  0.0830
24192DPPS   C2B30724   7.863   4.402  16.895 -0.0312  0.0936  0.1018
24192DPPS   C3B30725   7.781   4.293  17.349 -0.1115  0.0425  0.1954
24192DPPS   C4B30726   7.774   4.289  17.771  0.0929 -0.1591  0.0344
24193DPPS   CNO30727   3.547   4.175  15.655 -0.0252  0.0100 -0.0055
24193DPPS   PO430728   3.319   4.354  15.902  0.2016  0.0973 -0.0237
24193DPPS   GL130729   3.592   4.437  16.235 -0.1304 -0.1170  0.2092
24193DPPS   GL230730   3.299   4.463  16.368  0.0638  0.0811 -0.0502
24193DPPS   C1A30731   3.714   4.296  16.563 -0.2898 -0.0017  0.4171
24193DPPS   C2A30732   3.764   4.370  16.986  0.1537 -0.0184 -0.0520
24193DPPS   C3A30733   3.837   4.329  17.448 -0.3200  0.1637 -0.1080
24193DPPS   C4A30734   3.919   4.396  17.905  0.0498  0.1626 -0.1933
24193DPPS   C1B30735   3.317   4.474  16.742  0.1173 -0.1027  0.2099
24193DPPS   C2B30736   3.308   4.556  17.165 -0.3099  0.0563 -0.0008
24193DPPS   C3B30737   3.372   4.508  17.677 -0.0541 -0.0933 -0.0655
24193DPPS   C4B30738   3.469   4.496  18.139 -0.0603  0.0494  0.0057
24194DPPS   CNO30739   7.737   3.452  15.844  0.1059  0.2572  0.3127
24194DPPS   PO430740   8.088   3.441  15.837  0.0824 -0.1186  0.0852
24194DPPS   GL130741   8.228   3.684  16.140 -0.4676  0.0905 -0.2139
24194DPPS   GL230742   8.429   3.360  16.221 -0.2949 -0.3335  0.2082
24194DPPS   C1A30743   8.098   3.647  16.498  0.1014 -0.3798  0.0173
24194DPPS   C2A30744   7.920   3.357  16.722 -0.1074  0.2797  0.1790
24194DPPS   C3A30745   7.903   3.326  17.172  0.0834  0.1968 -0.4377
24194DPPS   C4A30746   7.928   3.372  17.676 -0.1355 -0.0015 -0.1350
24194DPPS   C1B30747   8.508   3.307  16.559  0.1865 -0.1929  0.0884
24194DPPS   C2B30748   8.375   3.343  16.912  0.2409 -0.3296 -0.1821
24194DPPS   C3B30749   8.383   3.234  17.408  0.3402  0.1506  0.2326
24194DPPS   C4B30750   8.345   3.162  17.884 -0.0383 -0.2317 -0.2506
24195DPPS   CNO30751   3.834   2.111  16.098  0.1240  0.2998 -0.0276
24195DPPS   PO430752   3.448   2.276  16.072 -0.1190  0.0907 -0.1376
24195DPPS   GL130753   3.275   2.252  16.388 -0.1458 -0.2708 -0.2936
24195DPPS   GL230754   3.166   2.008  16.363 -0.2053 -0.0167  0.3375
24195DPPS   C1A30755   3.237   2.241  16.722 -0.1296  0.0212  0.0297
24195DPPS   C2A30756   3.196   2.228  17.135  0.1692  0.4495  0.1198
24195DPPS   C3A30757   3.111   2.223  17.657  0.1002  0.3495  0.0501
24195DPPS   C4A30758   3.147   2.269  18.129 -0.1136  0.0659 -0.0896
24195DPPS   C1B30759   3.222   1.835  16.639 -0.1516  0.1962  0.1026
24195DPPS   C2B30760   3.307   1.765  17.004 -0.1482 -0.1751 -0.0630
24195DPPS   C3B30761   3.253   1.642  17.442  0.2805  0.1209  0.0064
24195DPPS   C4B30762   3.141   1.619  17.912  0.0868  0.2834  0.3192
24196DPPS   CNO30763   8.162   1.998  15.776 -0.0491  0.1145  0.0208
24196DPPS   PO430764   7.912   1.717  15.787 -0.2885 -0.0183 -0.1881
24196DPPS   GL130765   7.868   1.574  16.204  0.1713  0.1254 -0.0006
24196DPPS   GL230766   8.065   1.792  16.256 -0.0725 -0.0644  0.5221
24196DPPS   C1A30767   7.665   1.500  16.507 -0.0279  0.3363 -0.0718
24196DPPS   C2A30768   7.730   1.554  16.951  0.0372  0.0242  0.1034
24196DPPS   C3A30769   7.740   1.610  17.403  0.0522 -0.0167 -0.0135
24196DPPS   C4A30770   7.713   1.566  17.874 -0.4456  0.0496  0.2171
24196DPPS   C1B30771   7.981   1.832  16.589  0.0058 -0.2478  0.0554
24196DPPS   C2B30772   8.113   1.924  16.944  0.1374 -0.0566 -0.0899
24196DPPS   C3B30773   8.204   1.875  17.436 -0.2837 -0.2484 -0.0350
24196DPPS   C4B30774   8.088   1.890  17.908  0.2500  0.2740 -0.0228
24197DPPS   CNO30775   3.576   0.363  15.825  0.1699 -0.2895 -0.0453
24197DPPS   PO430776   3.852   0.403  16.078 -0.1015 -0.0105 -0.0565
24197DPPS   GL130777   3.651   0.595  16.335 -0.3224 -0.1864 -0.4735
24197DPPS   GL230778   3.907   0.538  16.490 -0.2204 -0.2395  0.1052
24197DPPS   C1A30779   3.480   0.655  16.669 -0.1520  0.0727 -0.0594
24197DPPS   C2A30780   3.446   0.682  17.037  0.1001 -0.2440  0.0539
24197DPPS   C3A30781   3.410   0.703  17.542  0.0722  0.0591 -0.0090
24197DPPS   C4A30782   3.326   0.633  18.058  0.0832 -0.2775 -0.0084
24197DPPS   C1B30783   3.892   0.521  16.880 -0.0738  0.1025 -0.0301
24197DPPS   C2B30784   3.882   0.566  17.275  0.3901 -0.0020 -0.1769
24197DPPS   C3B30785   3.873   0.496  17.751 -0.1998  0.1146 -0.0325
24197DPPS   C4B30786   3.779   0.533  18.239  0.0419  0.1163 -0.0467
24198DPPS   CNO30787   2.995   6.342  15.195  0.0534 -0.2501 -0.1850
24198DPPS   PO430788   3.183   6.182  15.487  0.0939  0.1705  0.0496
24198DPPS   GL130789   3.137   6.283  15.872  0.1376  0.3266 -0.3077
24198DPPS   GL230790   3.087   6.033  15.932  0.3460  0.2441  0.1125
24198DPPS   C1A30791   3.127   6.497  16.191  0.1954  0.0202  0.1640
24198DPPS   C2A30792   3.077   6.603  16.587  0.2370 -0.0068  0.1179
24198DPPS   C3A30793   3.065   6.496  17.058 -0.0615  0.1603 -0.1651
24198DPPS   C4A30794   3.015   6.493  17.536 -0.3243  0.1195 -0.1508
24198DPPS   C1B30795   3.142   5.981  16.314  0.0295 -0.0560  0.1096
24198DPPS   C2B30796   3.113   6.041  16.699 -0.0665  0.0163 -0.0721
24198DPPS   C3B30797   3.057   5.999  17.189 -0.2325 -0.0279  0.1341
24198DPPS   C4B30798   3.063   5.947  17.659  0.1621  0.0965 -0.1751
24199W        W30799  17.185   3.555  28.127 -0.0398 -0.3013  0.1303
24200W        W30800   9.218   3.298  27.131  0.1490 -0.0061 -0.5123
24201W        W30801  16.541   2.331  14.938  0.0097 -0.1223 -0.2368
24202W        W30802  12.635   4.373  27.362  0.0681  0.0600 -0.0774
24203W        W30803   0.973   4.837  23.833  0.0300  0.0437  0.0754
24204W        W30804  16.284   1.049   2.218  0.2135  0.1830  0.1154
24205W        W30805  16.691   2.260  27.236 -0.1580 -0.2069 -0.0168
24206W        W30806  19.851   1.247  15.680 -0.1061 -0.2376 -0.0087
24207W        W30807  24.416   1.392   2.770  0.1636 -0.0277 -0.1032
24208W        W30808  10.595   2.168  22.800 -0.1664 -0.0408 -0.0363
24209W        W30809  24.397   4.916  29.955  0.1941  0.3337  0.0992
24210W        W30810   3.405   6.534  26.757  0.0532  0.1220  0.0636
24211W        W30811   3.516   2.663  32.693 -0.2009  0.1098 -0.2146
24212W        W30812   2.693   4.165   4.188  0.3652 -0.0487  0.2086
24213W        W30813  15.572   1.801   3.986  0.1233  0.0019 -0.1043
24214W        W30814   5.002   2.138   7.539 -0.1742 -0.1528  0.1405
24215W        W30815  25.914   4.370  11.863  0.2643 -0.1693  0.0963
24216W        W30816  17.607   3.321   7.064 -0.1709 -0.2970 -0.0356
24217W        W30817   9.192   1.803   9.916 -0.0600 -0.1688  0.2297
24218W        W30818   6.326   5.230  10.675  0.0909 -0.0435 -0.0681
24219W        W30819  19.544   3.002   0.275 -0.1485 -0.1228 -0.2299
24220W        W30820  15.360   4.325  30.621 -0.1777 -0.1899 -0.1936
24221W        W30821  21.696   1.222  23.903  0.6539  0.0507  0.1858
24222W        W30822  23.699   1.893   9.562 -0.1518  0.0555 -0.1134
24223W        W30823   7.132   3.227   0.033 -0.3135 -0.4123 -0.0021
24224W        W30824  16.266   1.447  11.423 -0.0674 -0.2341 -0.0092
24225W        W30825   8.927   0.524  23.600 -0.0133  0.0076  0.0561
24226W        W30826  18.655   4.009   7.380  0.2062 -0.1747  0.0808
24227W        W30827   1.922   4.669   8.135  0.3375 -0.0126 -0.2464
24228W        W30828   2.038   0.331   4.125 -0.0230  0.2977 -0.0181
24229W        W30829   8.845   5.874  21.498  0.0829 -0.0410 -0.1832
24230W        W30830   5.876   0.370   4.273 -0.0153 -0.2548  0.0817
24231W        W30831   3.606   5.017  20.568 -0.0042  0.0410 -0.0206
24232W        W30832   4.537   6.204   7.432 -0.1873  0.1252 -0.0727
24233W        W30833   4.007   3.016  24.537  0.0177  0.1979 -0.2669
24234W        W30834  15.675   1.213  12.557  0.0423 -0.0164  0.0178
24235W        W30835   6.973   3.334   0.571  0.2627 -0.3722  0.1416
24236W        W30836   1.321   3.496   3.108  0.1400 -0.0233 -0.0750
24237W        W30837   0.084   1.261   7.803 -0.0172 -0.0399  0.0109
24238W        W30838  17.821   0.707  11.630 -0.1297  0.3611  0.0218
24239W        W30839  16.293   1.072   6.289  0.0267  0.1716  0.0768
24240W        W30840  14.624   1.951  27.462 -0.1726  0.0969 -0.2455
24241W        W30841   9.346   0.463   7.044 -0.0469 -0.0683 -0.0026
24242W        W30842  19.655   5.348  22.650 -0.1137 -0.0300  0.0395
24243W        W30843   7.349   1.958  14.295 -0.0180  0.1353  0.2358
24244W        W30844   8.980   1.574  30.613  0.1393 -0.1165 -0.2630
24245W        W30845  12.321   3.839   2.607  0.1269 -0.1346  0.1480
24246W        W30846  26.275   0.156   4.702  0.0704 -0.2778 -0.0141
24247W        W30847  17.395   4.513  24.552  0.0652  0.1067  0.1382
24248W        W30848   9.835   1.783   9.548  0.2029  0.1224 -0.0864
24249W        W30849  23.233   2.307   7.311 -0.0794  0.0521  0.2666
24250W        W30850  16.579   6.203  25.438 -0.2652  0.2547 -0.2057
24251W        W30851   2.373   4.058   3.189  0.0342  0.0733 -0.0262
24252W        W30852   8.672   4.177   8.749  0.0680  0.0248  0.0326
24253W        W30853   3.092   1.481   1.263  0.0392 -0.1597  0.1063
24254W        W30854   5.001   1.391   9.966 -0.1274  0.1769 -0.0187
24255W        W30855   2.642   3.895  23.484 -0.0712 -0.1949  0.1606
24256W        W30856   4.686   3.178  10.727 -0.3201  0.0457  0.3119
24257W        W30857  21.471   5.259  23.787  0.0488 -0.3727 -0.3318
24258W        W30858  14.687   5.477  23.629 -0.0610 -0.1156  0.2823
24259W        W30859  16.853   2.086  30.290 -0.0651 -0.0541 -0.0688
24260W        W30860   5.720   4.173  22.128  0.0462 -0.1893 -0.0596
24261W        W30861   3.158   2.360  29.667 -0.2857  0.0515 -0.1027
24262W        W30862  23.848   0.157  13.151  0.0286 -0.0423  0.1308
24263W        W30863   6.048   5.257  29.996 -0.4493  0.0584  0.1256
24264W        W30864   9.489   4.784  27.696 -0.1361  0.2202  0.2969
24265W        W30865  20.146   3.601  33.586  0.1335  0.0332  0.2555
24266W        W30866  14.006   2.497   8.303 -0.3157  0.1737 -0.2533
24267W        W30867  15.376   2.739  26.009  0.4667 -0.0530 -0.0831
24268W        W30868  23.926   3.366  33.500 -0.0175 -0.2042 -0.0507
24269W        W30869   4.544   0.904   4.005  0.2233  0.1215 -0.3020
24270W        W30870  13.364   1.565   2.693 -0.2061  0.0182 -0.1176
24271W        W30871  12.264   3.761  31.806  0.0691 -0.2284  0.1929
24272W        W30872  16.924   0.074   6.962  0.0173 -0.1784 -0.0902
24273W        W30873  16.108   5.603   3.501 -0.1667 -0.0662  0.2256
24274W        W30874  23.697   1.309   2.106  0.0403 -0.0648 -0.0169
24275W        W30875   9.197   5.186  29.142 -0.1180 -0.1752 -0.0711
24276W        W30876  16.485   2.379  14.266  0.1539 -0.1043  0.0313
24277W        W30877  19.845   4.419   5.896  0.2363 -0.1336 -0.1273
24278W        W30878   6.654   0.650   7.869  0.0292 -0.1742  0.0560
24279W        W30879  13.160   2.180  12.223  0.1599  0.0993  0.3910
24280W        W30880  20.418   1.219   6.520 -0.1455 -0.0045  0.1913
24281W        W30881  19.134   2.252  10.710  0.2332  0.0626  0.2302
24282W        W30882  18.910   6.497  11.318 -0.0138 -0.2739 -0.0920
24283W        W30883   2.549   6.562  11.195 -0.0238  0.2283 -0.0747
24284W        W30884  20.257   6.523   5.649  0.0140 -0.0225 -0.1033
24285W        W30885  16.596   5.611  32.907 -0.0953 -0.0435  0.3232
24286W        W30886  20.342   6.559  23.225  0.3256 -0.2971 -0.0445
24287W        W30887  20.604   4.733  21.671  0.0430 -0.1419 -0.0113
24288W        W30888  25.465   6.137  29.732  0.3312 -0.1190 -0.2543
24289W        W30889  17.753   6.298   6.191 -0.2466  0.1189 -0.2908
24290W        W30890   7.383   0.100   0.873 -0.3300  0.2337  0.1201
24291W        W30891  16.062   5.744  12.799  0.0101 -0.0503  0.0001
24292W        W30892  10.218   2.624  32.125  0.1025 -0.1682  0.0589
24293W        W30893  14.768   1.152  35.752 -0.0670  0.1173  0.2478
24294W        W30894   2.735   1.677  14.200 -0.1011  0.0372 -0.3133
24295W        W30895  19.663   5.845   0.243 -0.2289 -0.0468 -0.1807
24296W        W30896  18.869   2.400  35.154 -0.2883  0.3053  0.0123
24297W        W30897  20.297   1.328  20.922 -0.0153  0.1871 -0.1108
24298W        W30898  17.623   1.145   6.555  0.0968 -0.1404 -0.0788
24299W        W30899   0.115   4.684  27.099  0.0572 -0.0007  0.0366
24300W        W30900  17.053   1.573  10.548 -0.0159 -0.2502 -0.1384
24301W        W30901   7.627   3.914  14.742  0.0054  0.3343 -0.1606
24302W        W30902   6.137   4.265  11.343  0.2435  0.1162  0.0165
24303W        W30903  17.423   3.126  11.672  0.1638  0.1402  0.2361
24304W        W30904  26.330   3.183  22.981  0.0817  0.1951 -0.1731
24305W        W30905   7.297   3.675   0.795  0.0618 -0.0527  0.0708
24306W        W30906   8.515   5.576  22.475  0.0368  0.0886  0.1638
24307W        W30907  10.741   1.630  23.421  0.2642  0.2927  0.1267
24308W        W30908   8.233   0.398   7.884  0.1165  0.1929  0.0538
24309W        W30909  22.561   5.879  12.395 -0.1893 -0.0023  0.0986
24310W        W30910   3.222   2.907  32.244  0.1144 -0.3738 -0.1472
24311W        W30911   1.484   5.036  21.111  0.1453 -0.0245  0.0422
24312W        W30912  11.053   5.665  23.518  0.1095 -0.2153  0.0866
24313W        W30913  22.143   1.912  34.671 -0.3001 -0.2602  0.4185
24314W        W30914  21.030   5.909  10.953 -0.4698  0.0724  0.1348
24315W        W30915   4.085   0.801  22.553  0.1165 -0.0279 -0.2032
24316W        W30916  10.209   2.422   8.130  0.1178 -0.0642 -0.1118
24317W        W30917  22.746   2.613  34.902  0.0576  0.2807 -0.0239
24318W        W30918  15.478   3.993  33.097 -0.0326  0.0599  0.0936
24319W        W30919  16.127   6.413  14.141  0.0064 -0.4818  0.0877
24320W        W30920  22.035   2.275  22.410  0.2576 -0.0394  0.1627
24321W        W30921  15.257   1.138  32.429 -0.0101 -0.3145  0.1996
24322W        W30922  17.818   3.449  14.809 -0.0300 -0.3233 -0.0251
24323W        W30923  21.771   1.756  35.485  0.1121 -0.1216  0.1883
24324W        W30924   9.664   0.025   2.226 -0.0733 -0.0419 -0.1719
24325W        W30925   1.552   3.328  21.315 -0.1591  0.2096  0.1248
24326W        W30926  11.441   3.810   7.858 -0.2038 -0.0785 -0.2327
24327W        W30927   8.957   4.430   0.245  0.0399 -0.0455  0.3425
24328W        W30928  21.894   2.096  11.660  0.1195  0.1434 -0.1033
24329W        W30929  23.283   0.994  24.809 -0.1979  0.0774  0.3003
24330W        W30930  20.765   5.948  30.573  0.3197 -0.0207 -0.1374
24331W        W30931  11.477   5.030  33.798 -0.2754 -0.1453  0.0639
24332W        W30932   5.817   1.631  26.683  0.0524 -0.1522  0.0645
24333W        W30933  19.506   4.232   2.798  0.1514 -0.1172 -0.2132
24334W        W30934  25.713   4.038  33.605  0.2812 -0.0754 -0.0888
24335W        W30935  15.907   4.277  33.285  0.2799 -0.1992  0.0147
24336W        W30936   2.893   3.765   1.727 -0.4900  0.0996  0.0355
24337W        W30937  21.438   0.688  26.998 -0.1252  0.0864 -0.1178
24338W        W30938  14.705   0.928   0.208 -0.0198  0.1063 -0.2216
24339W        W30939   0.030   4.776   0.934  0.2316 -0.0764  0.1135
24340W        W30940  13.909   6.542  13.168  0.0826 -0.0860 -0.0501
24341W        W30941  26.181   6.358  10.391 -0.1371 -0.2201  0.0295
24342W        W30942  25.473   3.311  29.861 -0.2466  0.1312  0.1574
24343W        W30943   5.108   0.450  33.096 -0.0723  0.0985 -0.2563
24344W        W30944  11.416   2.979  23.307  0.0194 -0.0685  0.1173
24345W        W30945  22.943   3.099  34.329 -0.2673  0.1140  0.3641
24346W        W30946  12.772   0.996   3.308  0.1138  0.2106  0.2188
24347W        W30947  16.539   5.015  13.045  0.0320  0.0614  0.3108
24348W        W30948  23.916   0.682   1.459  0.2488 -0.1459 -0.1541
24349W        W30949  21.979   3.331  33.695  0.0342  0.0702  0.0933
24350W        W30950  19.542   6.041   8.492 -0.0488 -0.1416  0.0366
24351W        W30951  21.536   4.737  31.006 -0.1130  0.0529 -0.0515
24352W        W30952  22.891   6.143   9.858 -0.1988 -0.0923 -0.0014
24353W        W30953   3.515   0.432  20.848  0.3154  0.1153  0.2456
24354W        W30954  17.202   3.467  22.621  0.0646 -0.0986  0.0173
24355W        W30955  25.673   2.946  11.975 -0.0663  0.0266 -0.1878
24356W        W30956   9.205   5.490  10.001  0.1205 -0.2725  0.1970
24357W        W30957  11.441   0.458   6.341 -0.2928 -0.1043 -0.3101
24358W        W30958  19.925   2.217   0.199 -0.4097  0.1583  0.0627
24359W        W30959   8.856   3.504  33.446  0.0152 -0.0468  0.2625
24360W        W30960   9.021   5.222   3.211 -0.2088  0.1538  0.0035
24361W        W30961   5.244   5.500  13.788  0.1013 -0.3083  0.2780
24362W        W30962  19.385   6.074  22.966 -0.1694  0.1299  0.1196
24363W        W30963  18.959   0.600  25.076 -0.0034  0.0925 -0.1735
24364W        W30964  11.240   1.218  35.676  0.0466  0.1354  0.0027
24365W        W30965  20.240   1.558  31.101  0.1707 -0.0910  0.1115
24366W        W30966   8.763   0.589  15.965  0.1388  0.2185 -0.0382
24367W        W30967  25.544   0.754   4.555  0.1577  0.0801 -0.1594
24368W        W30968  13.861   4.446  25.866 -0.0204  0.1053 -0.3388
24369W        W30969   9.773   2.662  33.823  0.1969  0.1120 -0.1074
24370W        W30970  10.099   0.652  22.795 -0.1457  0.4611  0.0851
24371W        W30971  11.811   4.715   0.293  0.0841  0.2381  0.2121
24372W        W30972   8.112   2.011  13.263  0.1394 -0.2962  0.2232
24373W        W30973  20.851   4.525   7.866 -0.0391 -0.2476  0.0654
24374W        W30974   1.783   5.417  33.982  0.0659 -0.1367 -0.1323
24375W        W30975   5.191   2.944   6.745  0.0359  0.2939 -0.1128
24376W        W30976   3.293   1.449  25.737 -0.1318  0.0900 -0.0808
24377W        W30977  17.181   6.147   4.427 -0.0478  0.0799  0.0750
24378W        W30978  10.437   6.162  13.926  0.3611 -0.2981 -0.1812
24379W        W30979  12.615   1.295  20.995 -0.0178  0.1188 -0.1600
24380W        W30980  12.089   5.422  23.642  0.0098  0.2550 -0.3488
24381W        W30981   7.631   6.585   8.494 -0.3335 -0.2110 -0.1098
24382W        W30982   4.550   2.730  10.514  0.0992  0.0287  0.0661
24383W        W30983   3.314   4.973  23.896 -0.0225  0.2688 -0.0374
24384W        W30984  16.124   1.857  15.332 -0.0176 -0.1653  0.0166
24385W        W30985   7.291   5.661  13.400  0.0604 -0.2168  0.3970
24386W        W30986   1.081   5.243  12.739  0.0783  0.1709  0.1796
24387W        W30987  25.895   2.149   4.459 -0.0283 -0.1217 -0.2088
24388W        W30988  19.033   4.429  22.055  0.3329 -0.1429 -0.0304
24389W        W30989   7.063   2.423  34.413  0.1096 -0.1847 -0.2191
24390W        W30990  18.331   0.289  32.062  0.2190  0.1411  0.1307
24391W        W30991  13.194   1.064  31.110 -0.0686 -0.0160  0.0137
24392W        W30992   7.832   3.849  21.362  0.0628 -0.0293  0.0726
24393W        W30993  10.432   5.596  21.217 -0.0536 -0.0772  0.2642
24394W        W30994   1.888   6.317  21.346  0.2087  0.0850  0.3880
24395W        W30995  23.727   2.329   4.279  0.1493  0.0242  0.3031
24396W        W30996  17.809   1.948  10.969 -0.0123 -0.0428  0.0543
24397W        W30997   3.703   3.003  27.500  0.2798 -0.1833  0.2814
24398W        W30998   8.378   4.636  22.242  0.4026  0.0158 -0.2684
24399W        W30999  24.348   4.002  32.768  0.1164 -0.0979  0.2313
24400W        W31000  19.877   0.070  22.472  0.0450  0.1521 -0.2458
24401W        W31001  16.229   5.120  11.748  0.1792  0.1482 -0.3687
24402W        W31002  14.499   2.104  21.464 -0.2754 -0.2544  0.0513
24403W        W31003  17.233   0.828  21.339 -0.0605  0.0047  0.0433
24404W        W31004   2.305   2.578  33.659  0.2147  0.0630 -0.0239
24405W        W31005   8.934   6.254  30.126  0.0826  0.0709  0.0705
24406W        W31006   3.341   0.647   2.943  0.2802  0.1802  0.0608
24407W        W31007   2.287   4.439  34.645 -0.0628 -0.2592  0.1144
24408W        W31008   9.575   1.539  29.663  0.1727  0.1088 -0.0070
24409W        W31009  26.170   1.300  10.098  0.2187 -0.1223  0.0484
24410W        W31010  13.400   5.393  29.935  0.2658 -0.0887  0.0720
24411W        W31011  22.789   1.689  30.655 -0.1354  0.1393  0.1375
24412W        W31012  24.270   4.604  14.812  0.1121 -0.2344 -0.1484
24413W        W31013  10.348   4.258  34.228 -0.0787 -0.1677  0.0666
24414W        W31014   8.326   2.725  23.022 -0.0328  0.0263 -0.0829
24415W        W31015  24.553   2.534   9.922 -0.1837 -0.0790  0.1666
24416W        W31016  20.119   5.870   6.600 -0.2076  0.0885 -0.2501
24417W        W31017  12.978   0.403  28.911 -0.1103  0.0206 -0.0185
24418W        W31018  11.545   6.148   4.978  0.2957 -0.0018 -0.0233
24419W        W31019  11.451   6.440  30.966  0.1825  0.2288 -0.0091
24420W        W31020  25.933   0.360  28.074  0.1089 -0.1530  0.0397
24421W        W31021   9.320   2.464  21.038  0.0890 -0.0067 -0.2539
24422W        W31022   4.794   4.463  10.293  0.0908 -0.1387  0.0004
24423W        W31023  25.866   1.315  35.289 -0.1528  0.2050 -0.0351
24424W        W31024  15.343   4.195  35.099 -0.0372  0.2222  0.1033
24425W        W31025  15.384   5.832   3.232 -0.0952 -0.0198  0.2868
24426W        W31026  15.417   4.323  13.614  0.3612 -0.1188 -0.3444
24427W        W31027  23.472   1.885  31.407  0.3015 -0.1866 -0.3926
24428W        W31028  20.642   4.354  22.046 -0.0186 -0.1756  0.1493
24429W        W31029  25.691   3.867  34.511  0.1158 -0.1102 -0.1029
24430W        W31030   6.633   1.732   8.381  0.0531  0.0710  0.2305
24431W        W31031   7.389   6.296   6.155  0.0542  0.1312 -0.1328
24432W        W31032  13.118   4.958  12.868  0.0270  0.1790  0.1596
24433W        W31033   4.940   6.382  23.519 -0.2545  0.0113  0.0808
24434W        W31034   0.495   6.564  30.116 -0.0890  0.1285 -0.1754
24435W        W31035   0.058   2.597  33.915 -0.1901 -0.1119  0.2176
24436W        W31036  21.223   0.495  29.556 -0.0441 -0.2637 -0.1637
24437W        W31037   5.223   5.588   7.604  0.0821 -0.0505 -0.4129
24438W        W31038  21.054   4.003  27.310 -0.1606  0.0253  0.0363
24439W        W31039   7.105   3.490  22.377 -0.0910 -0.0080 -0.1472
24440W        W31040   5.490   4.324   4.476 -0.0009 -0.1392 -0.3074
24441W        W31041  19.696   3.074  15.179  0.2595 -0.0189 -0.1797
24442W        W31042   8.424   5.206   2.436  0.1899 -0.0924  0.0311
24443W        W31043  14.651   3.287  25.785 -0.0177  0.2434 -0.0907
24444W        W31044  25.679   3.709   3.133  0.0003 -0.2064  0.3195
24445W        W31045   8.365   5.429  27.074 -0.1272  0.0691  0.1386
24446W        W31046   3.183   2.029  20.936 -0.3937  0.1722 -0.3330
24447W        W31047  18.680   0.777  21.761 -0.3231 -0.0147  0.0186
24448W        W31048   4.833   4.458   2.786  0.1255  0.0309  0.0769
24449W        W31049  21.721   3.521  35.180 -0.0985 -0.2172 -0.1409
24450W        W31050  16.423   3.206   5.702  0.0187  0.0665 -0.0542
24451W        W31051  15.328   2.198  34.038 -0.0475  0.1012 -0.1237
24452W        W31052  11.533   2.742   3.421 -0.0990  0.2256 -0.1350
24453W        W31053  24.686   0.153  13.340 -0.0186 -0.0187 -0.0596
24454W        W31054  10.630   5.132  22.644 -0.1534 -0.2871  0.0646
24455W        W31055   1.232   1.191  13.284 -0.2099  0.0478 -0.0563
24456W        W31056   0.541   4.982   6.447  0.1158 -0.2534 -0.0567
24457W        W31057  14.476   0.396  10.725 -0.1480 -0.1918  0.1620
24458W        W31058   1.457   6.429  10.676 -0.0177  0.0066  0.2431
24459W        W31059  11.738   0.351  25.470  0.4465 -0.2701  0.1382
24460W        W31060  13.178   1.969   8.179 -0.0137  0.4739  0.0542
24461W        W31061  14.950   1.013   6.606  0.0585 -0.1209  0.0342
24462W        W31062  23.266   2.097   4.488 -0.0529  0.1568 -0.0803
24463W        W31063   8.529   4.892   8.587  0.2218 -0.0165  0.0504
24464W        W31064   2.818   5.312   8.500  0.2383 -0.0252  0.1687
24465W        W31065  10.606   0.073   3.531  0.0125  0.1835  0.0136
24466W        W31066  19.410   4.958   9.214 -0.1590  0.0938 -0.0762
24467W        W31067  10.046   1.982  21.607 -0.0614 -0.1234 -0.0922
24468W        W31068  20.842   4.167  29.216  0.0015 -0.2089  0.3096
24469W        W31069   7.791   4.963   0.346  0.0123  0.1928 -0.1004
24470W        W31070  16.510   5.563   0.458  0.1132  0.0074  0.2002
24471W        W31071   0.133   4.593  26.160  0.2587 -0.3420 -0.1076
24472W        W31072  15.115   0.216  28.334  0.1905  0.0317 -0.0328
24473W        W31073  13.547   2.941  22.850 -0.1003 -0.0128 -0.0444
24474W        W31074  15.727   5.912  33.269 -0.0303 -0.0226  0.1117
24475W        W31075  17.338   0.769  23.703  0.1113 -0.0173 -0.1382
24476W        W31076   8.034   0.418   1.096 -0.0600 -0.0668  0.0347
24477W        W31077   9.699   6.065  12.431  0.0591 -0.2954  0.0828
24478W        W31078  15.699   0.874  27.592  0.2198 -0.2043 -0.3928
24479W        W31079   6.639   4.442  29.299  0.1922  0.0107 -0.0158
24480W        W31080  13.350   0.100   9.094  0.0469  0.0304  0.0415
24481W        W31081  22.334   2.941   3.658 -0.0509  0.1135  0.0179
24482W        W31082  18.561   4.668   1.603  0.2570 -0.1109  0.0951
24483W        W31083  16.972   6.259  33.714  0.3281 -0.0369  0.3408
24484W        W31084  18.055   5.185   3.789  0.2423 -0.1692 -0.0890
24485W        W31085  15.164   2.609   7.810 -0.1700 -0.0580 -0.0100
24486W        W31086  10.580   1.248  24.617 -0.0522  0.2891 -0.0797
24487W        W31087   0.859   4.370  11.143  0.1150 -0.0494 -0.0754
24488W        W31088  16.309   4.393   0.584 -0.0230  0.0319  0.0504
24489W        W31089  14.699   3.573   1.083 -0.1565 -0.0744 -0.1142
24490W        W31090   6.203   0.579   7.619 -0.0179 -0.1273 -0.0126
24491W        W31091   1.953   4.054  14.001 -0.2028 -0.0286 -0.2850
24492W        W31092  24.396   5.950  13.956 -0.1976 -0.2047  0.1640
24493W        W31093  25.645   0.581  12.585 -0.0105  0.0045  0.0240
24494W        W31094  18.912   0.025  21.222  0.1062 -0.0352 -0.3329
24495W        W31095  18.513   5.587  29.825  0.0040 -0.0700  0.1172
24496W        W31096  19.504   0.799  26.053  0.0802 -0.3004  0.4399
24497W        W31097  14.736   4.416   1.352  0.0675  0.1556  0.0631
24498W        W31098  17.920   5.243  24.125 -0.2831  0.0916  0.0113
24499W        W31099  14.824   2.177  31.777  0.1506 -0.0088 -0.1164
24500W        W31100  22.453   6.209   1.116  0.0758 -0.0006  0.0001
24501W        W31101  25.822   3.327  15.222  0.1966 -0.2834 -0.1953
24502W        W31102   1.657   0.084  12.211 -0.0266 -0.3294 -0.0952
24503W        W31103  12.812   1.632   1.955 -0.1120  0.1363 -0.1543
24504W        W31104   6.741   4.771  27.474 -0.1976  0.2814 -0.0701
24505W        W31105  21.043   5.783  23.462  0.0240 -0.1391 -0.0712
24506W        W31106   8.898   3.828  24.974  0.1319  0.2219 -0.0127
24507W        W31107  13.449   0.979   7.576  0.1054 -0.1090  0.0959
24508W        W31108  22.591   2.179  13.198 -0.0871  0.0762  0.0075
24509W        W31109   4.665   4.125  30.280 -0.0523  0.1385  0.0528
24510W        W31110   1.206   5.580  10.484  0.0297  0.0627 -0.1512
24511W        W31111  10.851   0.301  28.404 -0.0503  0.0307  0.0084
24512W        W31112  20.537   0.317   1.610 -0.1655 -0.1220 -0.0205
24513W        W31113  26.404   1.791  33.381 -0.0474  0.3245 -0.3373
24514W        W31114   4.384   5.736  23.389 -0.2938  0.2322  0.0901
24515W        W31115  20.076   0.046   2.389 -0.4977  0.4701 -0.0850
24516W        W31116  23.824   5.900  10.862 -0.1062 -0.2939 -0.0237
24517W        W31117  11.692   6.298  11.426  0.3707 -0.0717  0.3205
24518W        W31118  15.587   4.546   7.861  0.0249 -0.0073 -0.0704
24519W        W31119  25.575   4.900   4.771  0.0497  0.3519  0.0087
24520W        W31120   4.673   3.941  28.601  0.0053  0.0307  0.0572
24521W        W31121  14.986   5.713  24.491 -0.2151  0.3190 -0.1794
24522W        W31122   6.248   3.094  14.321 -0.0316  0.0212 -0.1051
24523W        W31123  24.956   0.775  21.158  0.2922  0.3002  0.0123
24524W        W31124   8.998   2.144   1.751 -0.3868  0.1505  0.1310
24525W        W31125   2.421   0.262   2.998  0.0023  0.0496  0.0969
24526W        W31126  14.331   4.739  25.760  0.0281  0.0023  0.0478
24527W        W31127   5.872   2.606  15.071 -0.1161 -0.0623  0.3309
24528W        W31128  13.445   0.570  11.035 -0.2268  0.0655 -0.2353
24529W        W31129  17.525   1.623   2.257 -0.1642 -0.2074  0.1045
24530W        W31130   5.154   3.858  15.429 -0.0465 -0.0004 -0.1295
24531W        W31131  19.019   2.960   7.655 -0.1195  0.2097 -0.0912
24532W        W31132   5.629   5.148   2.631 -0.0488 -0.0937  0.0205
24533W        W31133  13.426   5.096  27.428  0.2037 -0.1266  0.0687
24534W        W31134  22.964   0.903  13.265 -0.2166 -0.0853  0.0954
24535W        W31135  21.811   1.535  24.292  0.3354  0.1755 -0.2515
24536W        W31136   2.676   5.937  13.958  0.0169  0.0612 -0.1351
24537W        W31137  24.763   4.795   1.560  0.0043  0.2979 -0.0707
24538W        W31138   2.368   2.256  31.847  0.0812 -0.0154  0.2141
24539W        W31139  15.809   0.005   2.969  0.1460 -0.3987 -0.0800
24540W        W31140  15.901   0.621   0.468  0.3123 -0.0913 -0.0209
24541W        W31141  15.702   6.458  10.946 -0.1176 -0.0171 -0.1227
24542W        W31142   8.311   5.696   2.528  0.1236 -0.3164  0.1337
24543W        W31143   7.721   0.966   0.331  0.2564  0.2426 -0.1199
24544W        W31144   8.160   4.376   7.890 -0.0939  0.2450 -0.2094
24545W        W31145  13.567   0.696   8.341  0.1445 -0.1215  0.0797
24546W        W31146   1.946   3.752  11.656  0.0962  0.3523 -0.0020
24547W        W31147   5.084   0.488  27.817  0.0509  0.1147  0.0726
24548W        W31148   1.154   4.465  30.813 -0.0508 -0.0152 -0.0486
24549W        W31149   5.099   4.129   3.660  0.1889 -0.0393  0.1026
24550W        W31150   1.879   3.027   9.779 -0.0264 -0.1706 -0.0310
24551W        W31151  14.000   4.537  23.674 -0.0836  0.2105  0.0194
24552W        W31152   8.541   1.836   5.987 -0.2413 -0.1541 -0.0809
24553W        W31153  22.404   2.019  11.930 -0.0124 -0.0548 -0.2214
24554W        W31154  11.971   1.085   3.559 -0.0654  0.1639 -0.2238
24555W        W31155  13.796   3.402  15.445 -0.2473 -0.0092 -0.0929
24556W        W31156   0.011   0.277   8.813  0.0452  0.0329  0.2053
24557W        W31157  24.754   1.078   5.384  0.0102  0.1875 -0.0482
24558W        W31158  25.907   5.117   0.772 -0.1354  0.1713 -0.0760
24559W        W31159  10.073   5.376   4.276  0.0378  0.1291 -0.1025
24560W        W31160  10.639   0.137  25.131 -0.1734  0.1857  0.0869
24561W        W31161  19.109   4.879  34.735  0.3068  0.2135 -0.1712
24562W        W31162  10.156   3.517   7.920 -0.1253 -0.1516 -0.0933
24563W        W31163  22.287   4.031  25.230 -0.0483  0.0087  0.1208
24564W        W31164   0.409   4.101  12.138  0.0312 -0.3674 -0.2530
24565W        W31165   4.700   1.389  10.360  0.1116 -0.0171 -0.1791
24566W        W31166  13.346   3.856   5.116 -0.0061  0.2052  0.0906
24567W        W31167  15.808   5.154  10.519  0.0200 -0.0277  0.1131
24568W        W31168   8.861   2.961   6.997 -0.0064 -0.2129 -0.1453
24569W        W31169  20.291   4.253  23.350 -0.2468 -0.1050  0.1496
24570W        W31170   7.577   3.151  34.409 -0.1377  0.0315  0.0795
24571W        W31171   8.782   1.769  10.251  0.0431  0.1806  0.1355
24572W        W31172  20.360   2.916   8.391  0.0147 -0.0704  0.1063
24573W        W31173   1.876   1.577  14.486  0.0822  0.0102 -0.2880
24574W        W31174   6.632   0.114  25.135 -0.0209  0.1446  0.0965
24575W        W31175  18.659   0.454  23.347 -0.1491 -0.1040  0.0529
24576W        W31176  19.500   1.961   0.071 -0.0480 -0.0349  0.2502
24577W        W31177  10.893   0.774  33.484  0.0025 -0.2683  0.1725
24578W        W31178  10.429   0.759   1.294 -0.0565 -0.2173  0.1351
24579W        W31179  12.811   4.213   0.775 -0.0566 -0.2061  0.0738
24580W        W31180  10.730   0.506  12.122  0.1408 -0.0632 -0.3145
24581W        W31181  21.441   1.045  22.301 -0.2012  0.0109  0.2576
24582W        W31182  21.905   3.227  13.375  0.2711 -0.1634 -0.0785
24583W        W31183  10.634   1.099  22.528 -0.0160 -0.1210  0.0323
24584W        W31184  21.080   6.476  25.774  0.0109  0.0399 -0.0764
24585W        W31185  23.682   0.648   3.151  0.4040 -0.1356  0.4621
24586W        W31186   3.304   0.940   5.747 -0.1441 -0.2130 -0.0981
24587W        W31187   4.340   6.266   1.261 -0.0843  0.0076 -0.0026
24588W        W31188  12.770   0.161  33.325  0.0807 -0.2868  0.4871
24589W        W31189  17.260   1.499  24.449 -0.0544  0.2234 -0.0112
24590W        W31190  13.424   5.522  28.857 -0.3542  0.0403 -0.1537
24591W        W31191  15.396   0.595  13.733  0.1962  0.1445 -0.5347
24592W        W31192  10.513   0.086   7.897 -0.2492  0.1884 -0.4797
24593W        W31193   8.360   2.255  22.007  0.1248  0.2369  0.1052
24594W        W31194  10.943   5.419   2.528  0.1277 -0.0931 -0.2163
24595W        W31195  10.252   0.907  30.658  0.2619  0.1132 -0.0995
24596W        W31196   0.252   5.295  33.272  0.1470 -0.0660 -0.1185
24597W        W31197  12.000   4.139  12.340  0.1649  0.0253 -0.1719
24598W        W31198   9.196   2.949  20.914 -0.1490 -0.0171  0.0518
24599W        W31199   5.881   4.568   2.738 -0.1287  0.0003 -0.0920
24600W        W31200   7.626   5.712  23.597 -0.2965 -0.0969  0.0154
24601W        W31201  23.686   5.616  13.223 -0.1875  0.1542  0.0652
24602W        W31202  23.100   1.904   3.539 -0.0444  0.1408 -0.0634
24603W        W31203  20.183   5.418  13.947  0.0606 -0.1840 -0.0752
24604W        W31204   1.370   3.324   0.358 -0.0869 -0.0458 -0.2568
24605W        W31205  15.098   2.711   5.871  0.1256  0.1166  0.3582
24606W        W31206   7.207   1.038   1.886  0.1237 -0.0862 -0.0219
24607W        W31207   9.800   5.968   3.051  0.1525  0.0419 -0.1464
24608W        W31208  19.494   0.781  30.479 -0.2563 -0.0886  0.4443
24609W        W31209  22.417   3.156  30.090 -0.1009 -0.0842  0.0533
24610W        W31210   0.977   0.707  12.397  0.0933  0.0352 -0.2468
24611W        W31211  10.245   0.803   8.131  0.0567 -0.0760  0.0800
24612W        W31212   2.074   1.528  36.023 -0.1688  0.2559  0.2321
24613W        W31213  16.695   1.497   5.605 -0.3202 -0.0417 -0.1679
24614W        W31214  19.528   1.760   4.566  0.2027 -0.4439  0.0571
24615W        W31215  22.958   5.392  34.025  0.2051 -0.1822 -0.2606
24616W        W31216   6.164   1.962  11.063  0.0972  0.2608 -0.0088
24617W        W31217  25.782   1.433  34.046  0.0511 -0.3073  0.1815
24618W        W31218  25.895   5.625   7.183 -0.1050  0.2074  0.0669
24619W        W31219   3.937   5.325  32.782  0.2231  0.1881  0.3715
24620W        W31220   6.252   4.792  27.563  0.1279 -0.0248 -0.1832
24621W        W31221  19.796   0.541  32.178  0.1613 -0.3023  0.1185
24622W        W31222   3.920   0.791   6.677 -0.3271  0.0688  0.1668
24623W        W31223  26.203   6.457   5.730  0.2146  0.4574  0.0377
24624W        W31224   4.689   1.818   7.325  0.1885 -0.1259  0.1295
24625W        W31225   0.426   4.575   7.277  0.0912  0.1440  0.1917
24626W        W31226  15.796   3.462  22.517  0.1520  0.2554 -0.2062
24627W        W31227   8.781   0.504   7.963 -0.1203 -0.2759  0.1246
24628W        W31228  11.486   2.257  26.299 -0.3981 -0.0162 -0.4283
24629W        W31229   6.010   4.741  33.694  0.2384  0.0971 -0.3361
24630W        W31230  14.707   4.186  15.041 -0.1502 -0.2067 -0.0892
24631W        W31231  10.826   3.829   0.700  0.2129 -0.1506  0.0545
24632W        W31232  16.496   1.970  26.562  0.0437  0.1817 -0.0248
24633W        W31233  15.771   1.425  28.723  0.0288 -0.0125  0.0066
24634W        W31234  11.116   1.897   7.797 -0.0602  0.2827  0.1098
24635W        W31235  19.775   0.170   3.702  0.1079 -0.0908 -0.1046
24636W        W31236  18.120   0.551  31.692 -0.3387 -0.0409 -0.1947
24637W        W31237   5.706   2.247  20.991 -0.0620  0.1643 -0.0841
24638W        W31238   3.632   2.107   9.900  0.0166  0.2938  0.1554
24639W        W31239  19.989   1.709  25.690 -0.1293  0.2142  0.1505
24640W        W31240   9.440   0.830   7.460  0.2089  0.0402  0.0221
24641W        W31241  16.543   5.257  25.097  0.0595 -0.1176  0.0872
24642W        W31242   2.239   1.433   4.722  0.1803 -0.1148  0.2132
24643W        W31243   8.390   4.338  32.962 -0.0482 -0.0952 -0.1721
24644W        W31244   1.482   4.735  12.626 -0.3276 -0.0959 -0.1693
24645W        W31245  12.664   1.556  34.284  0.2081  0.0334 -0.2416
24646W        W31246  26.061   1.834  33.856  0.0909  0.2180 -0.0537
24647W        W31247   8.176   2.980  31.034 -0.0396  0.1508 -0.2953
24648W        W31248  19.098   0.944  13.408 -0.1613 -0.0614 -0.0359
24649W        W31249  17.367   1.053  24.200 -0.0676 -0.0189 -0.0982
24650W        W31250  17.422   0.738   5.232 -0.0500 -0.1773 -0.2691
24651W        W31251  19.951   2.205  28.892  0.2720 -0.3428 -0.0034
24652W        W31252  11.649   2.806  24.731  0.1558  0.1049 -0.5526
24653W        W31253   1.608   1.156  14.451  0.2548  0.0554  0.1599
24654W        W31254   5.559   0.920  21.884  0.1600  0.1050  0.0740
24655W        W31255  11.389   5.920   9.390  0.0859  0.1308 -0.0780
24656W        W31256  12.942   1.613  25.418 -0.2767 -0.0968  0.1706
24657W        W31257  14.617   4.913  22.789  0.0472  0.0849  0.2416
24658W        W31258  17.452   1.684  26.759  0.0370 -0.1319 -0.2030
24659W        W31259   0.049   6.202  33.563 -0.1616 -0.2435 -0.0930
24660W        W31260  21.863   4.007  10.329  0.1608  0.2414 -0.0848
24661W        W31261   4.593   4.106  32.208  0.2645  0.1750  0.2951
24662W        W31262   3.947   5.787  22.709  0.0272  0.0198  0.2919
24663W        W31263  11.928   4.873  21.911 -0.0096  0.0778 -0.0583
24664W        W31264  19.423   6.413  27.598  0.5984  0.3330 -0.2524
24665W        W31265  20.616   0.084   2.540 -0.0972  0.0895 -0.1537
24666W        W31266   7.474   0.521  12.573 -0.1274 -0.0219  0.2099
24667W        W31267   0.476   1.513  11.238  0.1558 -0.1383  0.2129
24668W        W31268  20.250   1.787  20.560  0.0394  0.2015  0.2184
24669W        W31269  23.436   2.104  11.907 -0.0301  0.1364 -0.0515
24670W        W31270   4.873   3.403   9.716  0.1616  0.2380  0.0868
24671W        W31271   4.713   5.132  22.584 -0.1825 -0.1756  0.1962
24672W        W31272   1.803   2.132   3.163 -0.0973 -0.1658 -0.3115
24673W        W31273  13.303   3.330  33.200  0.0201 -0.3267 -0.2194
24674W        W31274  16.691   4.971  25.538  0.0725  0.2394  0.0711
24675W        W31275  16.286   5.849   2.581  0.0629  0.0438 -0.2178
24676W        W31276  25.202   6.327   2.983  0.1551  0.2808 -0.0022
24677W        W31277  17.777   3.045   2.676 -0.0137  0.0965 -0.1316
24678W        W31278  17.968   3.376  31.323  0.1297  0.0943 -0.4825
24679W        W31279  11.185   2.191  30.186 -0.1828 -0.2446  0.1085
24680W        W31280  20.387   5.008  15.463 -0.3473 -0.3558 -0.0097
24681W        W31281  21.269   5.720  22.998  0.0094 -0.0794  0.0257
24682W        W31282  26.379   2.114   3.700  0.1507  0.2596 -0.2263
24683W        W31283  26.198   4.121   8.785 -0.0135 -0.1606  0.2476
24684W        W31284  11.561   2.084  12.093 -0.1054 -0.0997  0.1378
24685W        W31285   2.768   3.416  12.191  0.2541  0.1813 -0.1446
24686W        W31286   5.193   0.715  11.645 -0.0934 -0.1808  0.0638
24687W        W31287   0.707   0.605  15.300  0.2067  0.0961  0.0476
24688W        W31288  23.294   5.890  32.623  0.0309 -0.1958  0.2128
24689W        W31289   0.451   0.556   4.068 -0.0526 -0.1188 -0.3007
24690W        W31290   4.061   0.545  10.157 -0.0976  0.0856  0.6868
24691W        W31291   9.412   6.428  35.078  0.0786  0.0678 -0.1439
24692W        W31292   4.849   5.337  13.577  0.3317 -0.1400  0.0593
24693W        W31293  15.843   1.225  22.562 -0.1817  0.1383 -0.1197
24694W        W31294   8.404   4.765  27.514  0.0364 -0.0831 -0.1144
24695W        W31295   2.228   5.125  25.550  0.2649  0.4763  0.1055
24696W        W31296  26.270   6.337  14.403  0.0677 -0.0111 -0.0110
24697W        W31297   9.009   5.479  30.580  0.1165 -0.1456 -0.1038
24698W        W31298  13.249   3.455  31.717  0.1348  0.1041  0.0780
24699W        W31299  22.159   4.307   8.737  0.2969  0.0429 -0.0077
24700W        W31300  23.292   5.782   0.812  0.3048 -0.0264  0.0667
24701W        W31301   9.545   6.028  27.637 -0.0507  0.0641 -0.1975
24702W        W31302   1.567   5.506  12.936  0.0417 -0.2521 -0.1846
24703W        W31303   9.429   0.679  11.210  0.2151 -0.1910 -0.1520
24704W        W31304  21.366   4.313  34.212 -0.2114 -0.1927  0.1351
24705W        W31305  26.350   4.920   3.563 -0.1147  0.5244  0.0022
24706W        W31306  13.446   5.729  13.162 -0.1425  0.1293 -0.1828
24707W        W31307  24.246   5.334   4.057 -0.2248  0.1144 -0.1551
24708W        W31308  21.626   4.034  21.920  0.3711 -0.3678  0.4623
24709W        W31309   6.382   0.215   5.338  0.1667  0.1522 -0.1122
24710W        W31310  19.231   1.045  22.570  0.0275  0.1814 -0.2587
24711W        W31311   3.047   0.183   6.201  0.0092 -0.2855  0.0541
24712W        W31312  25.545   1.893  11.538 -0.1073 -0.1518 -0.0720
24713W        W31313  24.844   0.132   6.104 -0.3179 -0.2105  0.0574
24714W        W31314  11.403   5.556   4.390  0.1452 -0.0359 -0.1358
24715W        W31315   5.881   0.285  13.146  0.0792 -0.2801 -0.2188
24716W        W31316   7.645   5.672  24.081  0.0158 -0.0623 -0.1149
24717W        W31317  14.111   1.725   5.600  0.0458  0.0081 -0.0150
24718W        W31318   6.414   2.697  33.740 -0.0383 -0.0052 -0.0176
24719W        W31319   9.899   5.123  29.967 -0.3279 -0.1864 -0.1018
24720W        W31320   4.888   4.333   9.744  0.2281  0.4069 -0.1533
24721W        W31321  19.254   3.877   4.520  0.0183  0.1821  0.0837
24722W        W31322  25.919   4.276  34.185 -0.1446  0.2106 -0.0076
24723W        W31323  14.172   5.831  30.257 -0.1144 -0.0531  0.0399
24724W        W31324  10.864   0.979  29.613  0.1033  0.0727  0.0094
24725W        W31325   8.418   5.944   2.104  0.0807 -0.2686 -0.0835
24726W        W31326  11.265   4.319   6.466  0.3302 -0.2404  0.1245
24727W        W31327  11.153   1.518   3.982  0.1253  0.2752  0.2521
24728W        W31328   0.078   3.352  25.565  0.0586 -0.1216  0.0425
24729W        W31329  13.774   1.392  31.812 -0.0944 -0.0019  0.0019
24730W        W31330  25.295   2.001  10.761 -0.0263  0.1613  0.1134
24731W        W31331  16.106   1.352  29.035 -0.2066 -0.2442  0.0255
24732W        W31332  24.775   4.376   4.914 -0.0847  0.0282 -0.1320
24733W        W31333  13.180   3.219   9.769  0.2947  0.1900  0.1155
24734W        W31334  17.691   2.753  21.828 -0.3079  0.0347  0.1064
24735W        W31335  23.396   3.228   9.932  0.3383 -0.1259 -0.0390
24736W        W31336  15.701   1.217  26.240 -0.1643  0.3061 -0.0757
24737W        W31337  25.569   4.547  26.675  0.0658 -0.1510 -0.3521
24738W        W31338   7.447   4.080  32.573 -0.4753  0.1837 -0.1256
24739W        W31339   4.367   4.896  32.615 -0.3708 -0.3326  0.1923
24740W        W31340   0.132   2.335  22.016  0.1972  0.0107 -0.0763
24741W        W31341  26.200   5.499  28.612  0.4121 -0.0337 -0.5480
24742W        W31342   6.824   1.626  12.994 -0.0787  0.1868  0.0705
24743W        W31343   1.084   4.081   1.902  0.0902  0.1216 -0.0700
24744W        W31344   7.700   5.614  29.388 -0.0645  0.1017 -0.1341
24745W        W31345  24.433   0.492  27.592  0.1062  0.2384  0.2226
24746W        W31346  10.965   3.660  33.029 -0.0543 -0.0043  0.0535
24747W        W31347  16.345   3.116  15.104 -0.2261 -0.2326  0.2166
24748W        W31348  13.184   2.353  24.323 -0.0898 -0.0111 -0.2280
24749W        W31349   1.201   4.399   5.797 -0.0380 -0.3933  0.3174
24750W        W31350  19.911   1.960   8.722 -0.0762 -0.1361  0.0044
24751W        W31351  23.974   3.445  21.207  0.0689  0.1744 -0.2033
24752W        W31352  19.965   5.648  32.374  0.0481 -0.1888  0.1776
24753W        W31353  21.790   0.844   7.863 -0.1857 -0.1352 -0.0163
24754W        W31354  25.161   5.536   8.538 -0.3469  0.2497 -0.2571
24755W        W31355  13.076   3.321  35.006 -0.0114 -0.0412 -0.0268
24756W        W31356  13.342   5.475  20.829  0.1945 -0.0852 -0.1963
24757W        W31357  24.918   0.266  22.772  0.3809  0.3004  0.1280
24758W        W31358   9.152   3.965   2.204 -0.0495 -0.1117 -0.2756
24759W        W31359   7.608   1.977  24.905 -0.0652 -0.0831 -0.2322
24760W        W31360   6.143   4.389  23.218  0.0985 -0.1711  0.0979
24761W        W31361   4.562   6.272   3.226  0.1908 -0.0445  0.0852
24762W        W31362  11.697   5.737  32.081 -0.0949  0.0387  0.0653
24763W        W31363  10.250   4.691   9.938 -0.0188  0.1356 -0.1968
24764W        W31364  18.798   4.358  34.902  0.1432  0.0792  0.0362
24765W        W31365   0.196   6.569  22.535  0.0953 -0.1826  0.1591
24766W        W31366   2.499   2.139   5.724  0.0066 -0.1370  0.0191
24767W        W31367  26.096   1.554   7.948 -0.0497  0.3734 -0.1500
24768W        W31368  15.041   4.833   0.576 -0.0259  0.1174 -0.1287
24769W        W31369  15.250   5.722  21.859  0.0395 -0.0505 -0.3127
24770W        W31370   5.005   4.578  11.605  0.1041  0.3339 -0.0679
24771W        W31371   4.275   0.748  29.405  0.2093  0.0703 -0.0276
24772W        W31372  11.669   1.582   1.992 -0.1833 -0.3241 -0.0381
24773W        W31373  18.496   2.169   0.030 -0.2606  0.1849  0.0599
24774W        W31374   2.869   4.805  10.802  0.1737 -0.0894 -0.1628
24775W        W31375   2.107   1.371  28.422 -0.3505  0.4697 -0.0652
24776W        W31376  20.709   3.420  15.234  0.0894  0.2033  0.1765
24777W        W31377   4.980   5.547  10.338 -0.1127 -0.0207  0.1554
24778W        W31378  12.247   5.052   6.841 -0.3675  0.0376 -0.0989
24779W        W31379  11.107   1.802  22.960  0.3347 -0.0675 -0.1684
24780W        W31380  24.238   3.860  11.605 -0.0240 -0.0620  0.2817
24781W        W31381  24.283   1.522  13.529 -0.0399  0.2303 -0.3790
24782W        W31382   0.147   3.537   3.457  0.1589  0.0963  0.3235
24783W        W31383  20.457   5.169  21.476  0.3655 -0.0522 -0.2644
24784W        W31384   7.882   2.223  11.497 -0.2039  0.3069 -0.4979
24785W        W31385  25.700   0.218   7.870  0.1974  0.1204  0.0180
24786W        W31386  17.645   5.323  35.764 -0.2048  0.2541 -0.3203
24787W        W31387   2.408   5.422  12.007 -0.1880 -0.2179 -0.1507
24788W        W31388  24.617   1.815  22.575  0.1397  0.0041  0.0147
24789W        W31389  24.158   2.603  36.004  0.0488 -0.1122  0.2457
24790W        W31390  11.500   5.478  27.315 -0.0472  0.3165  0.2971
24791W        W31391  22.207   2.785  27.526 -0.2249  0.2468 -0.0611
24792W        W31392  22.318   0.882   1.460  0.2191 -0.0858  0.1816
24793W        W31393  19.960   1.881   0.933 -0.2255 -0.2296 -0.1612
24794W        W31394   0.300   2.959  23.316 -0.0123  0.2440  0.1046
24795W        W31395  14.205   4.466  11.308 -0.0758  0.0111  0.0217
24796W        W31396  21.701   6.385  29.131 -0.0026  0.0761  0.1702
24797W        W31397  21.198   4.929   0.279  0.1020  0.0308  0.0918
24798W        W31398   0.998   5.706  31.643 -0.0448  0.1380  0.0522
24799W        W31399   1.082   0.216   1.931  0.3558  0.1382 -0.0673
24800W        W31400   2.606   0.525  11.866  0.1272 -0.2160 -0.1903
24801W        W31401  23.603   5.093  13.455  0.1162 -0.2630 -0.0671
24802W        W31402  14.538   0.357  23.582 -0.1397  0.0704 -0.2992
24803W        W31403   9.386   5.103   8.734  0.1135  0.3208  0.1750
24804W        W31404  11.787   1.852  34.800  0.0736 -0.0967 -0.1611
24805W        W31405  19.355   2.054  11.187  0.3202  0.1368 -0.4400
24806W        W31406  18.199   0.162  12.402 -0.0031  0.1204  0.1400
24807W        W31407   5.407   4.759   6.265  0.0622 -0.1803  0.4376
24808W        W31408  26.055   0.638  33.676 -0.2184 -0.1381 -0.0376
24809W        W31409  13.817   6.242   7.939 -0.0460  0.2477 -0.2863
24810W        W31410  13.028   5.453   7.927 -0.0486  0.0533 -0.1660
24811W        W31411  21.712   3.285  10.324 -0.0801  0.1552  0.1376
24812W        W31412   5.318   2.877  34.070 -0.2493 -0.1936  0.1154
24813W        W31413   2.188   3.301  11.577  0.0504  0.1786 -0.2413
24814W        W31414  13.726   3.141  10.636  0.0128 -0.0008 -0.1596
24815W        W31415  19.031   0.377   2.668 -0.3572  0.0452  0.2779
24816W        W31416   8.195   0.119  33.361 -0.1064  0.4005  0.2921
24817W        W31417   6.592   3.627  35.433 -0.0695  0.2664 -0.0077
24818W        W31418   2.795   3.814   2.276  0.0838  0.1804  0.0250
24819W        W31419  23.575   4.473  26.859  0.4675 -0.0454  0.0011
24820W        W31420   4.542   3.078  27.630  0.2129  0.2756  0.1890
24821W        W31421   9.476   2.672  27.437 -0.1494 -0.1227  0.1041
24822W        W31422  20.592   3.552  14.743 -0.0370 -0.0965 -0.0685
24823W        W31423  17.948   4.801   9.938  0.0157  0.0174  0.1186
24824W        W31424   1.528   0.187  25.964 -0.0839 -0.0108 -0.1806
24825W        W31425   6.603   1.655  32.095  0.2161  0.0990 -0.0544
24826W        W31426  19.701   5.016  23.833 -0.1200 -0.0232 -0.3138
24827W        W31427   1.799   2.714  13.743  0.3023 -0.0648  0.3766
24828W        W31428  13.510   6.025  34.535  0.0923 -0.1361  0.2143
24829W        W31429   2.510   2.796  14.784  0.3201 -0.2608  0.1077
24830W        W31430  13.336   2.855  22.379 -0.0885 -0.3687  0.0662
24831W        W31431   8.095   0.858  35.791 -0.0232  0.1323  0.2747
24832W        W31432  14.901   5.125  33.888  0.1217  0.1674 -0.2983
24833W        W31433   1.221   2.263  32.967  0.0278 -0.1941  0.3516
24834W        W31434   0.742   0.637  34.945 -0.0670 -0.0658 -0.1344
24835W        W31435  19.455   5.869  11.490 -0.2886  0.0088  0.1293
24836W        W31436  21.973   3.525  26.362 -0.1294 -0.0664 -0.2901
24837W        W31437   0.408   1.080  13.122 -0.0336 -0.1534  0.1861
24838W        W31438   3.003   3.267   9.838  0.0841 -0.2062 -0.0818
24839W        W31439   1.462   2.383   5.537 -0.2448  0.1488  0.1411
24840W        W31440  21.070   1.253  23.680 -0.0848 -0.3218  0.0889
24841W        W31441  24.506   6.375   9.819  0.2724 -0.0889  0.1955
24842W        W31442   8.855   0.639  27.467 -0.0465 -0.2263  0.0137
24843W        W31443   0.828   3.953  14.918 -0.1673 -0.4194 -0.1093
24844W        W31444  19.120   2.849  24.358 -0.0831  0.0830  0.0996
24845W        W31445   0.330   3.646   3.980  0.1033  0.0198 -0.0216
24846W        W31446  11.873   1.469  25.806  0.0593 -0.2849 -0.1508
24847W        W31447  23.529   4.697   1.787  0.0767  0.0435 -0.1780
24848W        W31448  12.199   5.583  30.584 -0.1301  0.2233  0.0084
24849W        W31449  26.390   0.807  21.019 -0.3633 -0.0051 -0.2087
24850W        W31450  10.820   4.013   2.232  0.0541  0.2517 -0.3014
24851W        W31451  13.906   0.534  13.188  0.3211 -0.0305  0.0819
24852W        W31452  19.146   5.601   2.487 -0.1798  0.0722 -0.0653
24853W        W31453   0.089   4.082   1.582 -0.0468 -0.0052  0.1479
24854W        W31454  16.556   3.722   1.460 -0.0710 -0.1180  0.0600
24855W        W31455  14.094   0.732   5.134 -0.0949 -0.2364 -0.0103
24856W        W31456  10.339   2.791  34.063 -0.0562  0.3070  0.0117
24857W        W31457  15.844   1.699  25.383 -0.1152  0.0318  0.0587
24858W        W31458  19.488   6.193   5.276  0.0332 -0.1364  0.2531
24859W        W31459  14.138   3.233   8.586 -0.1538 -0.0712  0.0005
24860W        W31460  18.305   5.763  10.261 -0.0843 -0.1458  0.1649
24861W        W31461  20.794   0.051   3.385  0.1128  0.0056  0.1302
24862W        W31462  22.517   4.337  31.874 -0.0045 -0.0528  0.1519
24863W        W31463  20.738   2.431  30.937  0.0117  0.0499 -0.0874
24864W        W31464   5.073   6.471  27.712  0.0081  0.0574 -0.0320
24865W        W31465  23.795   6.307  25.587 -0.0972 -0.1579 -0.2117
24866W        W31466  13.748   3.679  30.039  0.0264 -0.0927  0.0832
24867W        W31467   5.628   3.840  33.998 -0.1664 -0.1186  0.0653
24868W        W31468  21.362   2.228   3.167 -0.0640  0.1369  0.0800
24869W        W31469  13.408   1.761  12.338 -0.0455 -0.2468  0.1860
24870W        W31470   3.747   3.083  33.594  0.0725 -0.2705  0.2020
24871W        W31471  12.866   0.760  27.408 -0.2333  0.0682  0.0714
24872W        W31472  12.896   5.371  25.285 -0.1048  0.0686  0.1716
24873W        W31473   7.478   2.184  29.427  0.1741  0.0017 -0.2445
24874W        W31474   1.855   0.556  12.300 -0.2422  0.3024  0.0700
24875W        W31475  21.562   4.398   6.573 -0.2407  0.0999  0.0310
24876W        W31476   5.720   1.644   5.151  0.1839 -0.0995  0.0483
24877W        W31477  18.053   0.496  28.381  0.0511  0.3828 -0.2210
24878W        W31478  16.572   4.774   6.476  0.1978 -0.3797 -0.0784
24879W        W31479   8.097   0.118  10.715  0.0915 -0.1239 -0.0242
24880W        W31480  15.677   6.548  23.081 -0.1403  0.0692  0.2565
24881W        W31481  22.621   5.633  26.254  0.0890  0.0275 -0.1205
24882W        W31482  21.234   0.374  25.006 -0.2324  0.2475  0.0967
24883W        W31483   6.770   3.121  28.485 -0.1706  0.0359 -0.0485
24884W        W31484  23.411   0.763  29.329  0.1110  0.2698 -0.0084
24885W        W31485   7.804   1.841   0.069  0.0559  0.1908 -0.1176
24886W        W31486   7.454   4.807  10.610 -0.0919  0.0929 -0.3330
24887W        W31487  23.637   1.635  25.528 -0.0926  0.0508  0.2296
24888W        W31488   2.766   3.070   7.824 -0.0032 -0.0453 -0.2525
24889W        W31489   7.453   0.855  28.009 -0.0305 -0.0477  0.1031
24890W        W31490  12.255   3.151   6.991 -0.3337 -0.1564 -0.0809
24891W        W31491  21.191   1.847   0.091  0.2857  0.0118  0.0187
24892W        W31492   2.248   4.561   2.563  0.1004  0.3521  0.2279
24893W        W31493  23.739   5.632  26.464 -0.1302 -0.1194 -0.0905
24894W        W31494  11.107   0.995   8.577  0.1034  0.1222 -0.1240
24895W        W31495   1.209   1.828  29.845 -0.1498 -0.1118 -0.1046
24896W        W31496  25.101   3.509  30.621  0.0678 -0.3037 -0.0905
24897W        W31497  19.338   4.341   2.352  0.2122  0.1464  0.5333
24898W        W31498   1.685   4.945   4.129 -0.1957 -0.2371  0.0834
24899W        W31499   1.570   3.712  23.551 -0.0389  0.0029 -0.1752
24900W        W31500  13.068   4.374   1.163 -0.1460 -0.2138 -0.0889
24901W        W31501   6.267   5.235   5.198 -0.0715  0.1025  0.0389
24902W        W31502  13.562   5.267   3.275  0.0816 -0.3646 -0.0568
24903W        W31503  25.786   1.772  32.058  0.2292 -0.0683 -0.0889
24904W        W31504  17.532   3.935  23.214  0.0601  0.3040 -0.0190
24905W        W31505  19.917   5.915  21.026  0.2511  0.0809 -0.0642
24906W        W31506  12.895   5.490  32.614  0.1644 -0.0544 -0.0721
24907W        W31507   3.300   4.301  25.842  0.2474  0.0638 -0.1051
24908W        W31508  11.462   4.706  14.362  0.1437  0.1421 -0.0520
24909W        W31509  12.167   4.581  23.772 -0.1125  0.2460  0.3720
24910W        W31510  15.719   0.372  31.004 -0.3207  0.0661  0.0034
24911W        W31511  20.125   3.123  22.349  0.0632  0.0712 -0.0990
24912W        W31512  20.489   5.692   0.390 -0.0538  0.0763 -0.0326
24913W        W31513  12.611   0.575   7.219 -0.2598 -0.2512 -0.1907
24914W        W31514   5.221   1.710  29.919 -0.2417 -0.1130  0.0354
24915W        W31515  25.156   3.494  12.654  0.1578  0.2262  0.0320
24916W        W31516   3.198   2.343  27.906  0.2496 -0.2297  0.0236
24917W        W31517   3.440   0.419  10.901 -0.2531 -0.1195  0.1098
24918W        W31518  13.983   3.236  14.013 -0.0128  0.3025 -0.0052
24919W        W31519  17.804   2.280  28.875 -0.0680 -0.0122 -0.1355
24920W        W31520  19.457   2.946   8.561  0.2206 -0.0398 -0.1756
24921W        W31521  16.096   1.484   7.854 -0.0536 -0.1464  0.0152
24922W        W31522  20.820   6.432  29.343 -0.0260 -0.0716 -0.2777
24923W        W31523  15.030   4.667  30.801  0.1130  0.2163  0.0192
24924W        W31524   6.627   3.127  15.548  0.2962 -0.0302 -0.0160
24925W        W31525  24.043   1.464  29.089 -0.2469 -0.3525 -0.1305
24926W        W31526  18.986   6.360  27.910  0.0595 -0.1138  0.2582
24927W        W31527   8.430   3.439   1.986 -0.3499 -0.0922  0.0091
24928W        W31528  12.098   5.094   6.238 -0.0841 -0.2886 -0.0004
24929W        W31529  25.772   5.095  22.386  0.0850  0.1794  0.1341
24930W        W31530  18.718   3.342   8.536 -0.2977  0.0585  0.1543
24931W        W31531  21.525   3.572   9.216 -0.0400  0.0402 -0.1181
24932W        W31532  15.315   2.756   8.272 -0.0662 -0.1116  0.1868
24933W        W31533  14.386   2.196   0.987 -0.3135 -0.1390 -0.1315
24934W        W31534  25.537   2.665   1.116 -0.2511 -0.1671  0.5318
24935W        W31535   6.184   0.752  21.340  0.0279 -0.1997 -0.0588
24936W        W31536   3.275   5.150  13.314 -0.2965 -0.0622  0.0707
24937W        W31537  11.079   3.528  34.910  0.0077 -0.3255  0.0782
24938W        W31538  24.020   1.356   2.497  0.0724  0.2591 -0.0944
24939W        W31539   1.201   1.765   9.109  0.1095  0.0617  0.1145
24940W        W31540  14.403   0.457  27.613 -0.2075  0.0834 -0.1346
24941W        W31541  22.100   1.843   1.659  0.0982 -0.0307 -0.4584
24942W        W31542  12.551   1.737  32.480 -0.0251 -0.0489 -0.1650
24943W        W31543   5.527   4.993  21.482 -0.0897 -0.1284 -0.0148
24944W        W31544  22.187   3.215  28.690  0.0063  0.1377  0.1123
24945W        W31545  15.377   0.940  23.964 -0.2341  0.2349 -0.1333
24946W        W31546   7.460   1.751  10.035 -0.1297 -0.0943  0.1365
24947W        W31547   2.315   4.987   3.436  0.1824 -0.0358 -0.0293
24948W        W31548  19.471   2.760  33.414 -0.2767 -0.2063 -0.0074
24949W        W31549  26.296   4.717   0.355  0.2066 -0.1066  0.1485
24950W        W31550   8.760   3.743  28.204 -0.2539 -0.0929 -0.0837
24951W        W31551  22.605   5.164  12.901 -0.0090 -0.1342  0.2260
24952W        W31552   3.122   2.558  11.094 -0.0870  0.1067  0.1673
24953W        W31553  21.318   6.144  14.118  0.1016 -0.0103 -0.1708
24954W        W31554  11.048   0.357   2.698  0.0058 -0.2375 -0.2377
24955W        W31555  21.234   1.190  31.910  0.0739 -0.3386  0.2828
24956W        W31556  10.281   3.617  30.333  0.2228 -0.3939 -0.0460
24957W        W31557   9.424   5.713   0.647  0.2366  0.0527 -0.3244
24958W        W31558  10.013   1.784  33.334  0.0279  0.2193 -0.1379
24959W        W31559   8.554   0.354  24.999  0.1128 -0.0342  0.0741
24960W        W31560  16.154   6.496  32.172  0.1541 -0.2152  0.0768
24961W        W31561   6.082   1.985  15.775  0.2447  0.0387  0.1385
24962W        W31562   4.819   6.017  10.589 -0.0125 -0.1360 -0.0214
24963W        W31563  11.103   4.039  36.053  0.0583  0.1802 -0.0926
24964W        W31564  21.978   5.949  23.421 -0.0675 -0.1000 -0.0464
24965W        W31565   0.344   3.811  12.533  0.0253 -0.3435  0.1074
24966W        W31566  18.135   1.220  14.306 -0.1231  0.4283  0.1693
24967W        W31567  11.158   4.218  26.024 -0.1608 -0.1082  0.1309
24968W        W31568   5.163   6.199   1.075 -0.0127  0.0408  0.1731
24969W        W31569  14.897   2.036   2.852  0.0063  0.1606 -0.0731
24970W        W31570  11.050   2.738  13.579 -0.3413 -0.1353  0.0888
24971W        W31571  25.446   5.425   5.470  0.1353 -0.0858 -0.1424
24972W        W31572   7.347   6.054   7.228 -0.2498  0.3169  0.1678
24973W        W31573  17.484   3.508  30.521 -0.0632 -0.0700  0.0255
24974W        W31574  17.055   3.441  26.475 -0.0818 -0.1686  0.2787
24975W        W31575   0.592   1.237  32.267 -0.2213  0.0932 -0.0049
24976W        W31576  11.142   3.172  23.708 -0.3129  0.1422  0.2752
24977W        W31577  22.405   0.098   5.696 -0.1216  0.0671 -0.1722
24978W        W31578   5.008   6.199  12.368 -0.0974 -0.4848 -0.1774
24979W        W31579   5.617   2.546  11.852  0.2187 -0.3269 -0.0158
24980W        W31580   3.331   6.434  10.310  0.1958  0.0652  0.1778
24981W        W31581  22.124   0.578  13.614  0.0057 -0.0353 -0.0144
24982W        W31582  13.741   3.704  34.771 -0.0443 -0.1618  0.0768
24983W        W31583   4.337   5.890  29.265 -0.0678  0.3063 -0.0745
24984W        W31584  20.014   3.199  30.174  0.3056  0.0053  0.1212
24985W        W31585  17.284   2.490  23.635  0.0710  0.1473 -0.0285
24986W        W31586  25.526   2.319   4.011  0.0646 -0.0760  0.0351
24987W        W31587   7.318   3.548  34.196 -0.0813 -0.2757 -0.2886
24988W        W31588  24.518   6.001   1.367 -0.0795  0.1326 -0.0153
24989W        W31589   7.543   3.718   9.722 -0.3994 -0.2234 -0.0753
24990W        W31590   3.531   2.364  33.148 -0.1875  0.0791 -0.0100
24991W        W31591   2.100   0.912   4.792 -0.2463  0.1189  0.0460
24992W        W31592   6.717   5.074  14.026  0.0842 -0.0846  0.1286
24993W        W31593  18.963   3.288  12.891  0.0858 -0.0752 -0.2606
24994W        W31594  10.758   4.698   7.228  0.1800  0.0608  0.1552
24995W        W31595  25.093   1.929  26.430 -0.0696  0.0794  0.2635
24996W        W31596   7.402   6.012  12.016 -0.0086 -0.0160 -0.2552
24997W        W31597   7.361   1.988   9.599 -0.1491 -0.2515  0.0978
24998W        W31598  19.057   5.801   7.680  0.0430 -0.0311  0.0919
24999W        W31599   8.222   0.740   4.099 -0.1731 -0.1928 -0.0010
25000W        W31600  17.404   3.058  23.381  0.0227  0.1496 -0.1072
25001W        W31601  24.984   5.474   0.446 -0.0938 -0.1458  0.2226
25002W        W31602  13.875   2.080  23.401 -0.0358 -0.0884 -0.1866
25003W        W31603  21.967   1.696   5.324  0.0661  0.0454 -0.1514
25004W        W31604   5.858   2.480  32.350 -0.0823 -0.1191 -0.1684
25005W        W31605   7.827   6.565  30.161  0.0071 -0.1526  0.0121
25006W        W31606   6.007   3.047  32.335  0.2129 -0.0661  0.0151
25007W        W31607  15.271   1.650  11.538  0.1119  0.0772 -0.1920
25008W        W31608   9.283   2.682  30.731  0.0657  0.2050 -0.0372
25009W        W31609  11.420   4.084  24.202  0.0336  0.4010  0.2195
25010W        W31610  20.062   1.065  33.868  0.0284 -0.1715  0.0476
25011W        W31611  14.554   6.157  22.442 -0.1926  0.0279  0.0909
25012W        W31612   5.511   0.870  22.381 -0.1147 -0.0748  0.3218
25013W        W31613   7.817   2.940   4.098 -0.1526 -0.3122 -0.0955
25014W        W31614  12.761   2.519  33.826 -0.0579  0.1288 -0.0330
25015W        W31615   7.614   6.368  34.939  0.3202  0.0397  0.0303
25016W        W31616  10.000   6.540   9.438 -0.2934  0.0832  0.0705
25017W        W31617   8.063   3.358   7.522  0.0509 -0.1667  0.1666
25018W        W31618  17.861   5.999  32.689  0.1533  0.1945 -0.3260
25019W        W31619  14.011   1.436  26.613 -0.1239  0.1564  0.4112
25020W        W31620  11.940   2.450  32.282 -0.0796  0.0537  0.0450
25021W        W31621  14.251   5.520  26.766 -0.2090  0.0416  0.1889
25022W        W31622   6.615   3.490  22.166 -0.0724 -0.4745  0.0423
25023W        W31623  23.598   0.113  27.783 -0.3968 -0.1452  0.0857
25024W        W31624   2.510   5.291  24.653  0.1641  0.0988 -0.1317
25025W        W31625   1.743   3.022  31.221 -0.1465  0.0861  0.2500
25026W        W31626  23.619   3.402  14.008  0.0687  0.0831  0.1756
25027W        W31627  15.738   3.906  26.281 -0.3661 -0.1269  0.3205
25028W        W31628  14.140   5.583  27.314 -0.3464  0.1135  0.1011
25029W        W31629  15.108   2.471  30.855 -0.2673  0.2730 -0.0850
25030W        W31630  15.898   2.857  31.561  0.4094  0.0106 -0.0654
25031W        W31631  22.317   3.343  26.755  0.3961  0.0027  0.1407
25032W        W31632  26.382   4.403  30.368 -0.1063 -0.2063 -0.1776
25033W        W31633  18.484   3.326  21.602  0.0560  0.1566  0.3155
25034W        W31634  21.655   0.730  25.134  0.1024  0.0862  0.2002
25035W        W31635  15.019   0.097  31.738  0.0593  0.1320  0.0362
25036W        W31636  24.796   0.625  29.310  0.1747  0.1278 -0.0888
25037W        W31637   8.414   4.120   3.378 -0.2748  0.2501  0.2645
25038W        W31638   3.623   6.413   9.303 -0.2982 -0.3649  0.2005
25039W        W31639  12.057   5.370  21.358 -0.0894 -0.1402 -0.0689
25040W        W31640   8.369   0.697  28.986 -0.1857 -0.2530 -0.3058
25041W        W31641   6.028   4.841  20.715  0.0012  0.2742  0.0048
25042W        W31642   0.381   1.714   2.119 -0.1279  0.1394 -0.1032
25043W        W31643   7.642   1.626   3.204 -0.2028  0.0799  0.1321
25044W        W31644  23.786   4.472   4.087 -0.0444  0.2019 -0.4109
25045W        W31645  11.521   5.333  22.192 -0.0236  0.1074 -0.0487
25046W        W31646   6.098   3.213  10.502 -0.0714  0.1124  0.2160
25047W        W31647   4.240   1.192  29.103 -0.1403 -0.1368 -0.3634
25048W        W31648  26.072   0.699   9.963 -0.0813  0.1251 -0.0443
25049W        W31649  15.789   2.569  28.765 -0.3004  0.0545  0.3949
25050W        W31650  13.625   0.664  35.355 -0.2543  0.0652  0.1841
25051W        W31651  12.048   3.687  34.919  0.1893 -0.0185 -0.1053
25052W        W31652   7.705   1.401  34.183  0.2112 -0.3383  0.0990
25053W        W31653  25.101   4.093   0.577  0.1681  0.0086  0.0554
25054W        W31654   6.444   1.797  23.961  0.2568  0.2406 -0.2952
25055W        W31655  23.015   1.518  13.520  0.0092  0.2888  0.2685
25056W        W31656   4.187   5.043   6.516 -0.1916 -0.2419  0.1075
25057W        W31657   8.489   4.822   2.110 -0.1433  0.1659  0.1774
25058W        W31658  24.262   5.948  11.904  0.2555 -0.0017  0.1863
25059W        W31659   9.174   5.521  33.339  0.2250  0.1856 -0.1944
25060W        W31660  23.920   5.436  10.745  0.2116  0.1233  0.0705
25061W        W31661   2.855   6.189  30.817 -0.2859  0.2385  0.0948
25062W        W31662   8.113   4.440   2.009 -0.0956 -0.1159 -0.0977
25063W        W31663   5.476   1.537  25.562  0.0490  0.0888 -0.1337
25064W        W31664   1.905   2.683  26.236 -0.3597 -0.2393 -0.0199
25065W        W31665  11.819   4.437  24.132  0.2234 -0.1550  0.2568
25066W        W31666  24.075   4.720  33.180  0.1734  0.0098 -0.0291
25067W        W31667   7.245   5.362  24.207  0.0199  0.0361  0.0542
25068W        W31668  11.171   4.936  25.161 -0.1941 -0.3300 -0.1419
25069W        W31669  11.801   0.976   2.507 -0.1079 -0.1076 -0.0454
25070W        W31670  26.395   2.411  11.914 -0.0233 -0.4774  0.2463
25071W        W31671  12.027   0.142  35.001 -0.0372 -0.1678  0.2051
25072W        W31672   4.151   4.185   8.113  0.1324  0.2165 -0.1391
25073W        W31673   4.167   4.178   5.847 -0.2224  0.2123  0.0744
25074W        W31674   2.951   0.429   7.096 -0.0553 -0.3013 -0.3573
25075W        W31675  11.254   1.860  26.392  0.1049  0.0776  0.0277
25076W        W31676  17.551   0.298   2.417 -0.0460 -0.0020 -0.2100
25077W        W31677  12.077   4.478  25.138 -0.0261  0.1149  0.1732
25078W        W31678   7.908   5.136   9.408 -0.1400 -0.0485  0.1050
25079W        W31679  19.515   0.773  11.808 -0.1389 -0.0233  0.1100
25080W        W31680   7.195   3.405  14.052  0.2246 -0.0436 -0.1091
25081W        W31681  26.189   5.931  12.954 -0.0315 -0.0938  0.1719
25082W        W31682   2.091   3.441   9.563  0.0808 -0.1612 -0.1700
25083W        W31683   4.411   0.439  30.363 -0.0930  0.3537 -0.1876
25084W        W31684   7.293   3.547  14.506  0.1241 -0.0791  0.1227
25085W        W31685  12.671   5.821  10.668 -0.0610 -0.0611 -0.0177
25086W        W31686  21.442   2.169  21.222 -0.1632 -0.0836  0.0170
25087W        W31687   8.261   3.212  26.058 -0.0747 -0.0703 -0.0912
25088W        W31688  16.596   6.352  32.326 -0.0845 -0.0135 -0.0784
25089W        W31689  25.328   1.271  31.242  0.2092 -0.2126 -0.1064
25090W        W31690   1.755   2.526  10.925  0.0122  0.2113 -0.1065
25091W        W31691  25.229   2.259  11.755  0.0359  0.0401  0.0159
25092W        W31692   3.089   0.254  32.173 -0.1733 -0.0729  0.0847
25093W        W31693  16.403   1.923   6.718  0.4405  0.2188 -0.0062
25094W        W31694   6.207   4.875  14.147  0.2291 -0.0384  0.0441
25095W        W31695   4.898   1.298  13.623  0.1280  0.0433 -0.1618
25096W        W31696   1.553   3.572   4.562  0.2016  0.0028  0.0471
25097W        W31697  24.950   4.153  14.384 -0.0363  0.1342 -0.1155
25098W        W31698   4.442   3.017  14.967  0.0315  0.1180 -0.0823
25099W        W31699   8.009   1.937  28.486  0.0462  0.0118  0.1175
25100W        W31700  11.320   0.450  25.691  0.2669  0.3646  0.2176
25101W        W31701  19.412   1.288   2.463  0.0555  0.1113  0.3707
25102W        W31702  16.417   3.274   6.773  0.0341  0.0498 -0.3239
25103W        W31703   6.680   5.838  27.589 -0.0696 -0.2256 -0.0941
25104W        W31704   8.442   0.561  34.850  0.0426 -0.2179  0.0686
25105W        W31705  20.746   2.568  35.804 -0.1180  0.2318 -0.0635
25106W        W31706  19.658   4.007  23.781 -0.3909  0.2594 -0.0572
25107W        W31707  20.785   0.903   0.270  0.1468  0.0661  0.0933
25108W        W31708  22.431   3.444   9.577  0.0718  0.0344  0.3995
25109W        W31709  11.268   3.822   7.397 -0.0580 -0.0429 -0.1428
25110W        W31710  23.553   1.497  29.279 -0.1018  0.1010  0.1660
25111W        W31711  16.329   4.949   2.786  0.0663  0.1203 -0.1927
25112W        W31712   7.238   2.617  30.777 -0.1741 -0.4919  0.1012
25113W        W31713  24.777   3.318  20.795 -0.1436 -0.1092  0.1481
25114W        W31714  16.617   3.705   8.583  0.1481  0.0234 -0.1105
25115W        W31715  24.422   2.252  26.912  0.2050  0.1197 -0.0754
25116W        W31716   6.732   0.567  33.394  0.0649 -0.2248 -0.2905
25117W        W31717  11.745   4.438   6.296 -0.1513  0.1093 -0.2757
25118W        W31718   9.910   5.984  14.725  0.2734  0.1308  0.0897
25119W        W31719  23.647   6.480   2.587  0.1237  0.3436 -0.1503
25120W        W31720   5.282   5.347   6.097  0.0761  0.0213  0.1597
25121W        W31721  21.913   5.246  28.522 -0.2406 -0.1070  0.1428
25122W        W31722   3.497   0.482  28.151  0.1861 -0.0720 -0.0949
25123W        W31723   4.198   2.837  30.477 -0.1242  0.0788  0.2571
25124W        W31724  15.831   2.139  24.766 -0.1471 -0.0003 -0.0830
25125W        W31725  25.664   4.486  25.111  0.0633  0.0626 -0.1258
25126W        W31726  20.350   1.902   2.597  0.2145 -0.3455  0.1840
25127W        W31727   6.053   4.502   9.871 -0.1041 -0.1193 -0.1060
25128W        W31728   4.806   2.870  34.105 -0.1339 -0.4191  0.0880
25129W        W31729  17.393   0.543   9.734 -0.0675 -0.1967  0.2533
25130W        W31730  20.741   2.501   2.290  0.0303 -0.1986  0.0743
25131W        W31731  21.597   5.799  23.749 -0.0419  0.1493 -0.2702
25132W        W31732  17.333   2.120  28.849  0.0161 -0.1241 -0.0750
25133W        W31733   4.982   0.120  25.361 -0.3757  0.1783 -0.3091
25134W        W31734   2.588   3.719   2.883 -0.0567 -0.1015 -0.0668
25135W        W31735   8.177   4.212   5.957 -0.1699  0.0602 -0.0121
25136W        W31736  19.850   2.188   4.525  0.0681 -0.0224  0.1308
25137W        W31737   9.377   1.017   0.919 -0.0528  0.0728  0.2258
25138W        W31738  18.466   6.403  13.951 -0.0652  0.0152 -0.1282
25139W        W31739  13.258   6.301  21.098 -0.0935 -0.2133 -0.0043
25140W        W31740   6.293   0.128  30.079  0.1095  0.2000  0.1311
25141W        W31741  11.358   5.342   8.560 -0.2287 -0.3462 -0.0000
25142W        W31742  10.824   2.794  27.552 -0.4226  0.1359  0.0934
25143W        W31743  15.209   0.325  13.277  0.0192  0.2510  0.0601
25144W        W31744  16.145   5.214  25.479  0.2025  0.0909 -0.1095
25145W        W31745  13.863   0.365  25.503  0.1505  0.0174 -0.1431
25146W        W31746  15.861   1.266  30.556 -0.1151 -0.0827  0.0280
25147W        W31747  20.761   1.294   0.563  0.0257 -0.0627 -0.1315
25148W        W31748   2.543   0.625  25.333 -0.2175 -0.1329 -0.2354
25149W        W31749   2.709   6.546   2.761  0.2870  0.2964  0.2129
25150W        W31750  25.595   6.476  24.102 -0.3644  0.3010  0.0441
25151W        W31751   2.263   2.628   9.046 -0.2736  0.0885 -0.3043
25152W        W31752  19.113   1.175   3.305 -0.0706  0.0253  0.1211
25153W        W31753  15.667   4.976  32.896 -0.0897  0.2720 -0.0562
25154W        W31754   0.156   1.974  13.732  0.0196  0.2380  0.2349
25155W        W31755  23.777   4.523  14.707  0.0218  0.1534 -0.0396
25156W        W31756  18.015   3.971  10.003  0.0420  0.0471 -0.2094
25157W        W31757  12.028   3.472   7.247 -0.1296  0.0500 -0.1299
25158W        W31758  12.343   5.374  13.055 -0.1108  0.0202 -0.0764
25159W        W31759  15.587   5.002   2.920 -0.0366 -0.0945 -0.0962
25160W        W31760  25.133   6.354  30.548 -0.0726  0.1993 -0.1515
25161W        W31761  15.469   0.314  25.449  0.1195  0.0493  0.2458
25162W        W31762   8.299   6.495  26.259  0.1177  0.1566 -0.0132
25163W        W31763   9.359   6.104  23.433 -0.1978  0.1234 -0.0774
25164W        W31764   2.441   4.488   3.466  0.0549  0.1310 -0.2764
25165W        W31765   8.916   0.899   7.624 -0.0165 -0.1184 -0.4540
25166W        W31766  11.028   1.509   0.812  0.1331  0.2588  0.0296
25167W        W31767   0.082   3.053  25.045 -0.0792 -0.0859 -0.1071
25168W        W31768  20.939   2.198  11.512 -0.0936 -0.1567  0.0065
25169W        W31769   2.721   4.832  24.784  0.0033 -0.0387  0.1102
25170W        W31770  10.571   1.133   7.991 -0.1629 -0.0744 -0.2237
25171W        W31771  19.370   1.380  21.083 -0.0547 -0.1025  0.1179
25172W        W31772  12.992   0.067  11.077 -0.1491 -0.1402  0.0727
25173W        W31773  20.525   2.393  14.475  0.1494 -0.2182  0.0821
25174W        W31774  11.050   3.462  21.089  0.3259  0.2583  0.1599
25175W        W31775  14.966   5.646  25.222 -0.0810  0.1769  0.2568
25176W        W31776   7.312   4.203  34.744  0.0464  0.1360 -0.1661
25177W        W31777   0.346   1.586  10.725  0.0365 -0.0469 -0.0083
25178W        W31778   1.023   2.358  14.829  0.1090  0.1752 -0.0336
25179W        W31779   0.474   1.589  28.594  0.1373  0.1158 -0.0627
25180W        W31780   8.219   4.215  31.573 -0.0415 -0.0021  0.0765
25181W        W31781   1.348   2.214   2.348  0.1449 -0.2708  0.1048
25182W        W31782  24.664   3.991  15.878 -0.1136 -0.1103 -0.1895
25183W        W31783  10.705   3.398  29.686 -0.0564  0.1169 -0.1664
25184W        W31784  19.283   5.360   7.958  0.0537 -0.1098  0.0396
25185W        W31785   2.953   3.512  30.171 -0.0417  0.0043  0.0892
25186W        W31786  18.639   3.343   2.748 -0.0784 -0.2919 -0.1146
25187W        W31787   7.806   4.899   2.782 -0.0380  0.0392  0.3505
25188W        W31788  21.957   5.951  29.211 -0.1201  0.0854  0.0731
25189W        W31789  13.916   5.529  33.875  0.0229 -0.1005 -0.2412
25190W        W31790  18.468   5.384  30.496  0.2445 -0.1475  0.0718
25191W        W31791   2.606   2.185  30.605  0.0653  0.3553  0.1422
25192W        W31792  23.277   0.251  33.000  0.0211 -0.0062 -0.0208
25193W        W31793   7.762   3.423  32.114  0.2172 -0.0807  0.1844
25194W        W31794   8.550   6.582  10.516  0.0508  0.2937  0.2194
25195W        W31795  23.039   6.470  13.405 -0.0964  0.1821  0.2243
25196W        W31796  21.806   4.001  13.616 -0.2012 -0.2093 -0.0544
25197W        W31797   2.233   3.094  31.050 -0.1389  0.0769  0.1691
25198W        W31798  10.458   2.144   6.193 -0.0051 -0.0247 -0.0430
25199W        W31799  19.482   5.950  28.766  0.0811 -0.2530 -0.0322
25200W        W31800  21.621   3.489  31.138  0.6500 -0.2579 -0.1240
25201W        W31801  17.332   2.053   3.936  0.0184 -0.1456 -0.0817
25202W        W31802  21.364   2.642   5.524 -0.1729  0.3304 -0.1374
25203W        W31803   5.831   0.349  29.772  0.0595 -0.1380  0.2359
25204W        W31804  23.102   0.455  25.454 -0.1435 -0.1658  0.2314
25205W        W31805   5.872   1.110  32.379  0.1888  0.0132  0.2864
25206W        W31806  20.040   0.041  27.535 -0.0890  0.0275 -0.0270
25207W        W31807  24.159   2.187  22.066 -0.0391  0.0997  0.1940
25208W        W31808   8.884   5.570   3.556 -0.0306  0.2490  0.0700
25209W        W31809  21.608   3.211  34.015 -0.0199  0.0810  0.1454
25210W        W31810   3.673   0.203  23.335 -0.1798 -0.0057  0.0160
25211W        W31811   5.158   4.527  26.704  0.1161  0.0461  0.0184
25212W        W31812  25.044   6.447  20.657  0.1249 -0.2986 -0.1885
25213W        W31813  10.362   2.644   5.983 -0.1475 -0.0301  0.1818
25214W        W31814  22.228   2.823  20.974 -0.3172  0.1432  0.2468
25215W        W31815  20.929   5.280  10.609  0.5942 -0.5633  0.0305
25216W        W31816  13.163   5.025  28.869  0.0491 -0.1340 -0.0043
25217W        W31817  24.371   2.712   4.516 -0.0211 -0.4882  0.1372
25218W        W31818   0.903   3.942  27.902 -0.3022  0.1280  0.3037
25219W        W31819  20.745   4.353   9.563 -0.0780 -0.3184 -0.3109
25220W        W31820  18.505   0.995   7.728 -0.2124  0.1058  0.0189
25221W        W31821   9.345   1.724   5.562  0.0727  0.1890  0.4237
25222W        W31822   1.524   0.732   3.159 -0.0809  0.2183 -0.0398
25223W        W31823  22.569   0.094  35.491  0.2215  0.0954 -0.1213
25224W        W31824   7.858   1.422  21.104 -0.4801 -0.2451  0.1485
25225W        W31825  24.478   5.809  27.501 -0.3152  0.1283 -0.0600
25226W        W31826   8.636   2.105  14.788  0.1411  0.0096 -0.0691
25227W        W31827  24.430   3.462  11.774 -0.0255 -0.1001 -0.0717
25228W        W31828  14.279   0.772  27.158  0.0111  0.5574  0.1314
25229W        W31829  11.531   3.510   8.680 -0.1388  0.0718  0.0584
25230W        W31830  20.245   3.480   0.964 -0.2200  0.1563 -0.1979
25231W        W31831  17.444   0.250   5.012 -0.1741 -0.2693  0.0328
25232W        W31832  14.832   3.502  28.160  0.0334 -0.0758 -0.2050
25233W        W31833   5.774   5.866  10.152  0.3467  0.0808  0.1631
25234W        W31834  17.117   2.314  28.351 -0.0064  0.0319 -0.0524
25235W        W31835   2.417   5.013  35.324 -0.0613 -0.0730 -0.1034
25236W        W31836  19.759   5.654  23.021 -0.1026  0.2121  0.3016
25237W        W31837  14.133   6.371  32.321 -0.0768 -0.1312 -0.2626
25238W        W31838  14.109   5.646  12.281  0.2094 -0.3482 -0.3212
25239W        W31839  21.521   4.831   2.850  0.0415 -0.2727  0.1699
25240W        W31840  15.819   0.478  32.475 -0.0859 -0.0089 -0.2455
25241W        W31841  21.127   4.194  10.293 -0.1369  0.1869  0.0125
25242W        W31842  25.553   3.801   7.720  0.0081  0.0365 -0.3058
25243W        W31843   4.989   3.306   8.885  0.0738 -0.0554 -0.1614
25244W        W31844  18.022   4.104  25.838  0.0295 -0.0133  0.1013
25245W        W31845  10.787   0.148   2.230  0.1317  0.1407 -0.3321
25246W        W31846  24.704   6.589  33.864  0.0445 -0.2434 -0.1094
25247W        W31847   5.684   1.026   7.012 -0.1931  0.0116  0.0168
25248W        W31848   4.389   6.164  14.469  0.3250 -0.0711 -0.0847
25249W        W31849  11.867   1.981   9.235  0.1511 -0.0203 -0.2614
25250W        W31850   9.853   4.971  24.439 -0.1120 -0.3390 -0.3263
25251W        W31851  21.549   0.883  11.449  0.0059  0.1589  0.1352
25252W        W31852   9.793   5.558  22.374  0.1466  0.2133  0.2795
25253W        W31853  15.237   6.566  13.616 -0.0193  0.2319 -0.0200
25254W        W31854  20.395   3.038   0.633  0.0871 -0.1431  0.0789
25255W        W31855  16.497   1.627   3.502  0.1714 -0.2409 -0.0350
25256W        W31856  23.355   4.181  14.520 -0.0353  0.4945 -0.0368
25257W        W31857   2.032   5.428  21.789  0.2214 -0.0690 -0.0183
25258W        W31858   1.594   4.712  15.014 -0.0664  0.0992  0.2836
25259W        W31859  10.160   6.595   6.826  0.0269 -0.1273  0.0225
25260W        W31860   2.926   5.545  27.513 -0.3367  0.1042 -0.1052
25261W        W31861  20.662   6.565   4.513  0.1809  0.0930 -0.1919
25262W        W31862  22.472   0.242   8.761  0.0585 -0.2274 -0.1068
25263W        W31863  12.040   5.521  28.721 -0.0353 -0.3104 -0.2763
25264W        W31864   2.289   2.878  27.998 -0.0534 -0.3450 -0.2527
25265W        W31865  15.409   3.052  11.118 -0.1197 -0.0748  0.1437
25266W        W31866  10.952   1.549  26.121 -0.1745 -0.0042  0.0846
25267W        W31867   8.777   2.164  14.267 -0.1542 -0.1988  0.1816
25268W        W31868   5.649   0.639  24.797  0.1722 -0.0313  0.2860
25269W        W31869  25.727   6.486   5.619 -0.1461 -0.0084 -0.2508
25270W        W31870   5.005   5.856  14.151  0.1305  0.0065 -0.2116
25271W        W31871  26.090   3.979  27.269  0.1774  0.1157 -0.0337
25272W        W31872  22.123   5.820  34.096  0.1845 -0.1431  0.0924
25273W        W31873   9.264   6.401  12.475  0.0206 -0.1724  0.1864
25274W        W31874  10.394   5.324  33.887 -0.0398 -0.0909 -0.1244
25275W        W31875  10.353   5.917  22.402  0.1772 -0.0496  0.1290
25276W        W31876  18.141   1.724  30.630 -0.0534  0.0395  0.3672
25277W        W31877   1.488   3.099  29.928 -0.2959  0.1497  0.2339
25278W        W31878   3.528   3.267   9.124  0.1015 -0.0385 -0.2006
25279W        W31879  17.318   5.294   9.146  0.0175  0.2374 -0.0525
25280W        W31880   1.019   6.122  11.617 -0.0593 -0.0339 -0.0156
25281W        W31881   2.096   1.150  14.678  0.2016 -0.1351  0.0192
25282W        W31882   5.466   3.878  35.468  0.0821 -0.1513  0.3576
25283W        W31883  25.711   6.130  28.297 -0.1399 -0.3397  0.0669
25284W        W31884   3.611   6.545  28.171  0.0122  0.1603  0.1393
25285W        W31885  21.596   1.934   0.288  0.2790 -0.2611 -0.0223
25286W        W31886  17.780   5.254  14.389 -0.0289 -0.1000  0.0359
25287W        W31887  18.754   3.017  33.313 -0.1473 -0.1007 -0.3044
25288W        W31888  22.158   0.588  24.363  0.1922  0.1261 -0.0776
25289W        W31889  21.131   0.603   3.344  0.0196 -0.0816  0.0363
25290W        W31890  13.531   6.530  25.551  0.0387  0.0095  0.0212
25291W        W31891   6.243   3.112  11.762 -0.0294  0.2788  0.0540
25292W        W31892  12.758   4.684  23.019  0.0600  0.4125 -0.2276
25293W        W31893  10.304   5.053  26.792  0.0013 -0.0119 -0.2690
25294W        W31894   9.915   1.219  35.758 -0.1533 -0.0407 -0.0311
25295W        W31895  12.325   0.119   6.553  0.0766  0.2329  0.0564
25296W        W31896  26.357   1.050  34.494 -0.0187 -0.1521  0.1314
25297W        W31897  10.425   3.147  35.794 -0.1263 -0.1681 -0.1763
25298W        W31898   3.187   3.066   2.494  0.1031 -0.1968 -0.2455
25299W        W31899  23.071   1.149  28.223 -0.0067  0.1519  0.1106
25300W        W31900  20.015   0.903  22.178  0.0907 -0.1551  0.3141
25301W        W31901   8.187   0.854  23.567  0.2550 -0.0563 -0.2828
25302W        W31902  20.443   5.551   9.796  0.0356  0.3748  0.1142
25303W        W31903   9.747   2.261   2.644  0.3375 -0.1464  0.1591
25304W        W31904  25.322   5.262  14.866 -0.0098 -0.1978  0.0142
25305W        W31905   1.397   3.208  26.737  0.0759 -0.2237 -0.1043
25306W        W31906   7.003   4.047  15.551 -0.1416  0.0853 -0.0353
25307W        W31907  20.306   6.263   8.092 -0.0720  0.2874 -0.1535
25308W        W31908  24.217   1.350  34.941 -0.0533  0.0098  0.3802
25309W        W31909   6.007   0.388  33.987  0.0219  0.1319 -0.1475
25310W        W31910  11.551   4.234   4.103 -0.2467 -0.1517  0.0644
25311W        W31911  10.100   3.017   5.605 -0.1183  0.1132 -0.2294
25312W        W31912  13.006   0.148  30.081  0.0312 -0.1955  0.1357
25313W        W31913  19.419   4.746   1.821  0.0399 -0.2095 -0.1332
25314W        W31914  14.106   0.745  33.735  0.1319  0.0800 -0.3123
25315W        W31915  24.859   1.579  29.908 -0.1963  0.3426  0.2845
25316W        W31916   5.695   1.883   3.023 -0.0467 -0.1097 -0.1241
25317W        W31917   2.013   0.477  32.970 -0.0386  0.3547 -0.2090
25318W        W31918  10.533   4.585  22.893 -0.3105  0.0513 -0.1566
25319W        W31919   1.508   5.867  10.297  0.1712  0.1736  0.2698
25320W        W31920  12.771   0.563  24.294  0.1935 -0.0939  0.0362
25321W        W31921  24.593   4.589   9.848 -0.0888 -0.0827  0.0057
25322W        W31922  15.695   5.624   8.595  0.0934  0.1730 -0.0096
25323W        W31923  18.906   3.143  30.582  0.0377 -0.2182  0.0663
25324W        W31924  18.565   2.669  25.976  0.0581  0.3468 -0.2004
25325W        W31925  26.357   6.599  11.116 -0.2143  0.4026  0.3237
25326W        W31926   9.617   5.428  27.718  0.0505 -0.2502 -0.0706
25327W        W31927  16.835   1.481  25.670 -0.2612 -0.0148 -0.0015
25328W        W31928  24.372   0.731  21.919 -0.0884  0.3376  0.0698
25329W        W31929  12.048   0.390  28.117  0.0868 -0.1007  0.1034
25330W        W31930  21.172   4.750  32.532 -0.0083 -0.0644  0.2150
25331W        W31931  20.857   1.340   6.368  0.1322 -0.1208 -0.0220
25332W        W31932  18.799   4.999  30.973 -0.0796  0.1095 -0.1608
25333W        W31933  23.861   5.620   5.190 -0.0293  0.0101  0.0970
25334W        W31934  21.152   2.302   6.444  0.0268 -0.3642 -0.3509
25335W        W31935  22.277   1.255   5.434 -0.2499 -0.1403  0.2058
25336W        W31936  14.055   1.378  12.142 -0.3228  0.2164  0.1266
25337W        W31937  19.827   0.852  23.820 -0.1230  0.0532 -0.3670
25338W        W31938   7.795   4.752  12.933  0.2654 -0.0362  0.1008
25339W        W31939   3.861   3.099  30.021  0.1185 -0.0530  0.0321
25340W        W31940  15.227   5.684   0.010 -0.1859 -0.1438  0.1568
25341W        W31941  22.718   2.039  26.840  0.0508 -0.0575 -0.1403
25342W        W31942  12.543   0.850   0.138 -0.3828  0.1255 -0.1338
25343W        W31943  15.188   3.827   2.483  0.0374  0.1141 -0.0283
25344W        W31944  22.537   0.183  24.558 -0.1947  0.2116 -0.1621
25345W        W31945   2.280   6.146  24.317  0.2890 -0.1761 -0.3280
25346W        W31946  10.041   5.496   6.619 -0.0183 -0.1270  0.1115
25347W        W31947   5.544   4.122   2.013 -0.1455 -0.0575  0.3609
25348W        W31948   1.159   0.578  25.953  0.0595 -0.1400 -0.3081
25349W        W31949   0.813   5.326  33.671  0.2244 -0.2296  0.1600
25350W        W31950   3.956   3.476  21.998  0.1026 -0.5263 -0.0087
25351W        W31951   9.030   5.252   2.562 -0.1822 -0.1910 -0.1846
25352W        W31952  20.745   3.422   7.483 -0.2041 -0.0962 -0.3186
25353W        W31953  21.629   2.169   6.211 -0.4376  0.0479  0.3511
25354W        W31954   7.257   0.105  21.502  0.0837  0.1920 -0.1200
25355W        W31955   9.072   5.554   1.571 -0.0704  0.0152  0.2075
25356W        W31956   8.323   3.055  34.023  0.3561 -0.0611 -0.2577
25357W        W31957  13.880   1.497   6.870  0.1368 -0.1296  0.1149
25358W        W31958  25.776   0.074  15.232 -0.0485 -0.0133  0.3950
25359W        W31959  11.409   3.507  26.690  0.1232  0.2204 -0.2320
25360W        W31960  24.661   2.204  10.772 -0.1404  0.4440  0.2611
25361W        W31961  12.512   4.117  28.759  0.0171 -0.2543  0.0668
25362W        W31962  21.044   5.065   3.980  0.2806  0.1404  0.1978
25363W        W31963   8.170   3.406  10.206 -0.1706  0.3733  0.0689
25364W        W31964   7.982   2.548  27.791 -0.0869 -0.1628  0.0718
25365W        W31965  19.773   3.267  14.013  0.0728  0.0083 -0.2374
25366W        W31966  13.130   6.476  32.545  0.1761 -0.2722 -0.0815
25367W        W31967   0.177   4.146  10.835  0.0896  0.0299  0.1428
25368W        W31968   6.178   4.387  12.580 -0.0556  0.0100 -0.0663
25369W        W31969  10.928   3.154  36.044 -0.4436 -0.0259 -0.3858
25370W        W31970   3.824   3.494  12.186  0.2293 -0.0076 -0.2512
25371W        W31971  25.185   5.600  10.828 -0.2308 -0.3282  0.1014
25372W        W31972  18.917   4.953  23.337  0.3632 -0.1935 -0.0367
25373W        W31973  18.890   5.220   1.038  0.5808 -0.1373 -0.2333
25374W        W31974  10.091   3.541  36.004  0.1280 -0.1582 -0.1912
25375W        W31975  11.189   3.856  10.114 -0.0680 -0.2945 -0.1760
25376W        W31976   1.076   3.980  30.870  0.0304  0.0285 -0.1001
25377W        W31977  18.243   5.415  33.472 -0.2328  0.3636  0.1503
25378W        W31978  24.025   4.029   1.421  0.0451 -0.1691  0.1144
25379W        W31979   5.736   2.385   3.868 -0.1741 -0.3551  0.2169
25380W        W31980  18.148   3.260   7.854 -0.0296  0.2367 -0.0407
25381W        W31981  19.889   0.544   7.738 -0.2373  0.0245  0.2452
25382W        W31982  13.656   3.614   4.783 -0.0731 -0.0811 -0.0060
25383W        W31983  23.840   0.958  30.110 -0.0709  0.2043 -0.2078
25384W        W31984  11.430   5.771  25.367  0.0579 -0.1902 -0.0341
25385W        W31985   2.064   3.544   2.815 -0.1079 -0.0741  0.2548
25386W        W31986  19.280   6.478  26.238 -0.2239  0.1939  0.0195
25387W        W31987   4.449   2.217  24.571 -0.1088 -0.1097  0.0546
25388W        W31988  20.366   0.305   3.363  0.2424 -0.0085  0.2202
25389W        W31989  23.426   2.183  12.797 -0.2368 -0.3355 -0.0505
25390W        W31990  15.373   4.373   2.010  0.0455 -0.0107 -0.3869
25391W        W31991  23.680   5.302  13.965  0.1082 -0.2666 -0.1244
25392W        W31992  14.874   3.689  22.564 -0.1656  0.1186 -0.3178
25393W        W31993  10.027   0.185  33.250  0.2915  0.1436 -0.0692
25394W        W31994  14.037   1.158  13.938 -0.0658  0.0080  0.1210
25395W        W31995   6.823   6.591   6.683 -0.0815 -0.3047  0.0800
25396W        W31996   8.806   4.768  15.294 -0.0121  0.2739  0.1148
25397W        W31997   5.833   4.831   4.333  0.0163 -0.0859  0.0324
25398W        W31998  24.513   3.995  13.322  0.0266  0.2045 -0.1035
25399W        W31999  20.672   3.250  31.836 -0.0014  0.0686 -0.0499
25400W        W32000  21.070   4.431   3.516 -0.0578 -0.2559 -0.2023
25401W        W32001  10.312   2.509  12.690 -0.1310 -0.1041 -0.1929
25402W        W32002   5.961   4.629  12.980  0.1237  0.0751 -0.1086
25403W        W32003   3.805   0.511  33.312  0.1072 -0.2722  0.2085
25404W        W32004   2.580   5.740   8.518  0.0495  0.2660 -0.2144
25405W        W32005  22.448   2.855  25.097 -0.1632 -0.0715 -0.0156
25406W        W32006  24.703   2.409   9.450  0.0069  0.0881  0.0273
25407W        W32007  16.701   1.848  25.210  0.0388 -0.0058  0.2133
25408W        W32008   0.312   6.441   8.988  0.1892 -0.2438 -0.0725
25409W        W32009  19.769   4.495  35.755 -0.0460  0.1856 -0.1381
25410W        W32010  17.463   1.421   8.954 -0.2823  0.0995 -0.0708
25411W        W32011  14.947   5.891  10.948  0.2745 -0.1159 -0.0573
25412W        W32012  21.732   5.475  35.925  0.0711  0.3077  0.1845
25413W        W32013  11.829   4.669   7.620 -0.1345  0.3758  0.1877
25414W        W32014  20.624   5.299   5.288 -0.0993 -0.0014 -0.2085
25415W        W32015   3.118   0.775  26.552  0.1782 -0.0818  0.3288
25416W        W32016   3.929   1.391  20.524  0.0475  0.1470 -0.0527
25417W        W32017  14.186   3.259  22.566  0.0789 -0.1548 -0.2593
25418W        W32018  11.335   1.648  21.628 -0.4580 -0.1021  0.0889
25419W        W32019  21.158   2.368  28.143  0.1832 -0.2296 -0.4669
25420W        W32020  13.027   0.769  25.222  0.2390 -0.1260  0.0318
25421W        W32021  26.116   4.320  26.054  0.0648  0.0482  0.0441
25422W        W32022  23.795   3.974  21.823  0.1852  0.1370  0.0018
25423W        W32023  25.688   4.459   6.354 -0.1974  0.0284  0.0475
25424W        W32024  22.128   0.514   1.196  0.0422 -0.0813 -0.1166
25425W        W32025  10.327   1.515   8.225  0.2774 -0.2991  0.0103
25426W        W32026  12.116   3.056  22.634 -0.1114 -0.2510 -0.1181
25427W        W32027   0.183   5.130  13.127  0.0475  0.0959 -0.0727
25428W        W32028  23.459   5.026  24.880 -0.1111 -0.1819 -0.1865
25429W        W32029  20.946   5.557  11.453  0.1133  0.1434 -0.0298
25430W        W32030  15.538   6.064   2.222 -0.0200 -0.0467 -0.0926
25431W        W32031   4.998   6.230  35.302 -0.1344 -0.1808  0.2141
25432W        W32032  13.786   3.134  21.994  0.0915  0.0564 -0.1716
25433W        W32033   5.114   1.797  13.622  0.3432 -0.2052  0.0503
25434W        W32034  11.730   5.450  11.584  0.0375  0.0435 -0.2180
25435W        W32035  25.820   5.668  11.600  0.2287  0.1651  0.0793
25436W        W32036  19.640   6.573  24.465 -0.3068  0.0544  0.0730
25437W        W32037  20.709   3.382  33.507 -0.0026 -0.3985 -0.2902
25438W        W32038  26.177   3.824   6.754  0.2301  0.1216 -0.2493
25439W        W32039   2.328   5.462  31.051  0.0885 -0.0309 -0.2085
25440W        W32040  21.911   5.065  30.754  0.2691 -0.0418  0.2162
25441W        W32041   1.425   3.566  30.057 -0.0946  0.2117 -0.0842
25442W        W32042  12.749   2.178  31.590  0.1358  0.0725 -0.0029
25443W        W32043  12.453   3.950  30.113 -0.0606  0.1430 -0.0704
25444W        W32044   8.962   0.247  23.195 -0.1822  0.1008 -0.0119
25445W        W32045   3.263   0.606  11.456  0.2905  0.0051 -0.0233
25446W        W32046  19.577   4.705   7.802 -0.2071  0.2592 -0.1565
25447W        W32047  11.926   0.335   6.317 -0.1631 -0.0327 -0.2283
25448W        W32048  10.718   6.584   8.313 -0.1677 -0.1966 -0.0686
25449W        W32049   9.926   5.507  28.096 -0.1782 -0.0059 -0.0921
25450W        W32050   0.178   6.573  29.348  0.1858  0.1003  0.2546
25451W        W32051  17.841   1.974  28.390 -0.0133 -0.0158  0.2172
25452W        W32052   8.020   5.845  29.675  0.2805 -0.0046 -0.0431
25453W        W32053   3.563   0.010  12.077  0.1152  0.2311 -0.1535
25454W        W32054  16.590   3.148  25.604  0.2372  0.1802  0.2630
25455W        W32055   8.133   5.750  22.680  0.1008  0.1279  0.0265
25456W        W32056   1.085   5.091  25.124 -0.0263  0.2543  0.2921
25457W        W32057   9.003   4.647  27.917 -0.0026 -0.1275  0.3539
25458W        W32058  16.694   1.646  12.891 -0.2209  0.1112 -0.2575
25459W        W32059  13.936   2.873   7.190 -0.1130 -0.1514  0.3117
25460W        W32060  11.356   2.468  22.446  0.2408  0.1207 -0.0577
25461W        W32061   5.001   3.029   3.605  0.0018 -0.1808 -0.0883
25462W        W32062   2.082   5.861  11.190  0.1798  0.0613 -0.0755
25463W        W32063  17.533   5.068  29.099 -0.2543  0.1420  0.0632
25464W        W32064  12.999   6.372   1.015  0.0712 -0.2296 -0.0022
25465W        W32065  16.821   5.379  33.881  0.1416  0.2630  0.1444
25466W        W32066   0.626   3.696  13.598 -0.2766 -0.1870  0.0183
25467W        W32067   4.731   5.613   9.622 -0.2204  0.1842  0.1414
25468W        W32068  20.813   4.390  26.185 -0.1935  0.1698  0.0797
25469W        W32069   6.806   3.239   3.710  0.0128 -0.0677 -0.1520
25470W        W32070   9.402   0.820  27.466  0.0824 -0.2845  0.0236
25471W        W32071  21.623   3.848   3.858 -0.1456 -0.0279 -0.1670
25472W        W32072  17.595   0.888  26.111 -0.1067 -0.2347 -0.0685
25473W        W32073   1.029   2.245  29.640  0.0655  0.0834  0.1129
25474W        W32074  16.454   0.854  34.520 -0.1300  0.1010  0.1257
25475W        W32075  22.811   3.169  22.755 -0.0976 -0.0183 -0.3556
25476W        W32076  15.565   1.579  24.912  0.0033  0.1496  0.4645
25477W        W32077   8.675   0.555   1.570 -0.2699  0.0688  0.2125
25478W        W32078  16.226   2.017  12.960  0.2266 -0.2298  0.1995
25479W        W32079  12.201   4.763  27.628  0.0255  0.0716 -0.0167
25480W        W32080   3.945   4.451  22.385  0.1346 -0.0151 -0.1912
25481W        W32081  21.811   4.057   6.946 -0.1033  0.3649  0.0185
25482W        W32082  24.448   4.630  23.884 -0.3882  0.1723 -0.1190
25483W        W32083  11.618   2.982  23.851  0.0681  0.1146 -0.0130
25484W        W32084   5.918   4.231  31.463 -0.1174 -0.1801 -0.2051
25485W        W32085  22.109   3.143  24.081  0.2053 -0.4795  0.1604
25486W        W32086   2.747   6.320   2.288 -0.2574 -0.0609  0.2635
25487W        W32087  14.170   0.560   1.994 -0.1401  0.0227 -0.2332
25488W        W32088   1.685   4.711  24.426 -0.3408  0.0342 -0.1045
25489W        W32089   1.842   6.187  33.635 -0.1697  0.1618  0.1562
25490W        W32090   4.384   4.578  24.564 -0.3451 -0.0435  0.0395
25491W        W32091   0.465   3.264   1.204  0.2397  0.1346 -0.1953
25492W        W32092   8.768   3.762   8.202 -0.0562  0.3026 -0.0769
25493W        W32093  21.267   2.560  35.731  0.0365 -0.2044  0.0542
25494W        W32094   5.379   6.156  14.232 -0.0341 -0.0217 -0.3242
25495W        W32095  10.455   3.515   0.768 -0.0510  0.0045 -0.1079
25496W        W32096   0.224   1.818  29.590  0.0823 -0.0550 -0.4367
25497W        W32097  16.465   4.083   5.267  0.2269 -0.0611  0.2818
25498W        W32098  11.195   6.240  34.999  0.1076  0.0963  0.1362
25499W        W32099   4.776   6.233  11.036 -0.0380 -0.0468  0.1088
25500W        W32100  10.506   1.857  14.512  0.2406  0.0235 -0.0229
25501W        W32101  12.080   3.801  28.820  0.2334 -0.0682 -0.0495
25502W        W32102   6.595   0.894  14.494  0.1322  0.0086 -0.2010
25503W        W32103  15.358   1.346  30.382 -0.1257 -0.1046 -0.0170
25504W        W32104  16.628   1.903  10.631  0.1208  0.2195  0.1073
25505W        W32105  23.451   4.418   5.144 -0.0365 -0.0706 -0.2839
25506W        W32106   3.235   5.672  15.721 -0.1423 -0.1774 -0.0968
25507W        W32107  17.292   0.002  25.301  0.0421  0.1213  0.2251
25508W        W32108  12.938   0.319  23.334  0.3909  0.1962 -0.2372
25509W        W32109  15.509   2.194   5.811 -0.0491 -0.1724  0.1868
25510W        W32110  25.938   0.340   4.373 -0.0715  0.4379  0.0844
25511W        W32111   0.901   1.835   8.257 -0.0026 -0.1745  0.1164
25512W        W32112  25.638   6.204  23.171 -0.4259  0.2104 -0.0042
25513W        W32113   1.482   4.107   6.840 -0.0072  0.0662  0.0942
25514W        W32114  10.120   4.023  29.251  0.0882 -0.1302  0.1869
25515W        W32115  16.891   1.468  11.929 -0.0759  0.0095 -0.1244
25516W        W32116  15.348   0.528   7.608  0.1073 -0.0913  0.1815
25517W        W32117  13.754   1.093  33.065  0.0458 -0.1906  0.1356
25518W        W32118  16.398   3.403  23.518  0.1344  0.3071  0.1399
25519W        W32119   2.250   6.410  26.303 -0.0699  0.0438  0.3524
25520W        W32120  16.225   0.744  22.063 -0.0800 -0.2135 -0.0257
25521W        W32121   0.456   0.671  30.743  0.1552  0.0522  0.0685
25522W        W32122  20.034   4.042   3.459 -0.1688  0.1108 -0.0268
25523W        W32123   4.767   5.528  13.062  0.1270  0.0312 -0.0292
25524W        W32124   6.396   6.597   2.393  0.0237 -0.0801  0.0694
25525W        W32125  17.267   2.065   2.194 -0.2227 -0.1172  0.0255
25526W        W32126  14.559   4.647  12.813 -0.0870  0.4142  0.0633
25527W        W32127  12.144   0.558   9.506  0.3555 -0.0497  0.1678
25528W        W32128  21.054   5.424  26.220  0.1721 -0.1157 -0.2293
25529W        W32129  19.393   0.357  33.650  0.1407  0.1301 -0.0025
25530W        W32130  18.535   5.166  28.146 -0.0610 -0.1732  0.1331
25531W        W32131  11.125   5.935  28.423  0.0901  0.0692  0.1985
25532W        W32132   3.345   1.541   3.097 -0.1205  0.2283 -0.1134
25533W        W32133   7.726   6.146  24.182 -0.3730 -0.3806 -0.0918
25534W        W32134   3.036   5.532  10.269 -0.1978  0.1497 -0.0790
25535W        W32135   8.029   2.902  32.086 -0.0845 -0.0838 -0.1205
25536W        W32136   5.786   2.801  21.201  0.0311 -0.0503  0.1610
25537W        W32137   3.418   2.343  31.143 -0.1865  0.1040  0.4477
25538W        W32138  25.860   3.584  29.077  0.0663 -0.0287 -0.2323
25539W        W32139  18.165   3.662  32.784  0.0253  0.0798 -0.2193
25540W        W32140  19.022   2.499  31.831  0.1226  0.0271 -0.0127
25541W        W32141  19.514   1.174  13.580 -0.0519 -0.0524  0.2991
25542W        W32142  23.842   3.502  27.711 -0.0717  0.0815 -0.1222
25543W        W32143  11.237   1.625   4.833 -0.0250  0.0377 -0.1751
25544W        W32144  25.457   2.424  32.614 -0.2955  0.0473 -0.2284
25545W        W32145  14.110   0.800  29.345  0.0280  0.0563  0.0940
25546W        W32146  14.038   1.250   4.917  0.1130  0.3054  0.4544
25547W        W32147  20.603   6.203   8.853 -0.0123 -0.3326  0.1701
25548W        W32148   9.731   1.607  21.626 -0.2715 -0.1217 -0.1397
25549W        W32149   4.038   2.072  21.579  0.0864  0.0569  0.0677
25550W        W32150  21.558   3.079   5.654 -0.0786  0.2680 -0.0399
25551W        W32151  17.167   0.689  21.883 -0.0517 -0.0026 -0.0394
25552W        W32152   1.934   1.280   1.236  0.1159  0.0990 -0.2216
25553W        W32153  23.484   6.027  33.069 -0.1202  0.1380  0.0532
25554W        W32154  12.954   2.376  25.881 -0.1692 -0.1389  0.0273
25555W        W32155  25.115   4.273  35.770 -0.4183 -0.0909  0.3873
25556W        W32156  22.932   4.282  28.164 -0.1053  0.0622  0.1870
25557W        W32157  23.711   4.947  26.077  0.1664 -0.0842  0.0614
25558W        W32158  18.145   4.927  27.589  0.1065  0.1210 -0.1871
25559W        W32159  20.313   1.913   8.453 -0.0125 -0.0867 -0.2542
25560W        W32160  21.063   0.861   8.517 -0.4473  0.0667 -0.4269
25561W        W32161  16.370   2.836  21.377 -0.0063 -0.1346 -0.1006
25562W        W32162  19.818   2.104   1.869 -0.1888  0.3704 -0.1022
25563W        W32163   1.754   6.559   2.596 -0.0187 -0.0558 -0.1059
25564W        W32164  24.801   4.170  32.788  0.1887  0.2973 -0.1536
25565W        W32165   7.677   2.197  12.985  0.1384  0.2686  0.0496
25566W        W32166  11.857   4.868  35.031  0.1308 -0.0595  0.0474
25567W        W32167   8.897   4.170   4.893 -0.0486  0.1104  0.4410
25568W        W32168   1.801   5.900   7.658  0.0286 -0.0002 -0.1563
25569W        W32169   5.669   1.551  32.071 -0.1188  0.0705 -0.3613
25570W        W32170   9.065   1.679   6.331  0.3127 -0.2997  0.0077
25571W        W32171   0.775   1.443  25.367 -0.1708 -0.1369 -0.4587
25572W        W32172  19.870   4.447  24.721  0.0457 -0.2986 -0.4277
25573W        W32173  23.654   3.539  21.658 -0.0407  0.1805  0.0500
25574W        W32174  18.730   3.084  28.346 -0.1663 -0.0810  0.0279
25575W        W32175  22.435   3.211  27.289 -0.2778  0.0618 -0.1985
25576W        W32176  16.794   1.597  34.485  0.0041  0.2320  0.0774
25577W        W32177   0.205   5.047  20.609  0.2567  0.0912 -0.1168
25578W        W32178  25.059   5.912  11.207 -0.1153  0.0936  0.1321
25579W        W32179  21.512   1.470   4.495  0.0503  0.1837  0.2121
25580W        W32180   7.904   1.384   1.374  0.3807  0.0801 -0.0335
25581W        W32181   0.997   2.595  12.074  0.1703  0.1236  0.1920
25582W        W32182   1.551   5.677  34.526  0.1990  0.0647 -0.0255
25583W        W32183   2.313   0.681  15.508  0.0811 -0.0950  0.0904
25584W        W32184  12.656   2.527  14.325  0.4067  0.0021 -0.3809
25585W        W32185   0.273   1.208  24.839 -0.0483  0.1402 -0.2170
25586W        W32186  22.459   2.985  12.235 -0.0409 -0.2747 -0.0011
25587W        W32187   6.933   3.726  25.639 -0.1345  0.2428 -0.0445
25588W        W32188  23.326   4.200   4.510 -0.1685 -0.1821 -0.1658
25589W        W32189  14.366   2.542  32.434 -0.2600 -0.1004 -0.0408
25590W        W32190  21.536   1.096  24.746  0.1305  0.0524 -0.0123
25591W        W32191  10.578   1.977   4.501  0.3398  0.0760 -0.1164
25592W        W32192   2.971   2.420   3.475 -0.0851 -0.3057 -0.0363
25593W        W32193   6.176   3.195  35.538 -0.0890  0.2672  0.3496
25594W        W32194  25.640   4.547  26.041 -0.3156 -0.1981 -0.3297
25595W        W32195  18.867   1.022  15.448  0.1471  0.0482  0.0117
25596W        W32196  23.498   4.953  30.137 -0.3548  0.2602 -0.0162
25597W        W32197  17.860   0.460  22.438 -0.1215  0.1067 -0.0218
25598W        W32198   4.510   6.392  30.981  0.1020  0.3582 -0.0970
25599W        W32199  16.228   4.354   7.872 -0.1108  0.0680  0.3752
25600W        W32200  18.174   4.393  27.742  0.0437 -0.2776  0.0042
25601W        W32201  11.644   4.572   3.663  0.1760  0.0161 -0.0493
25602W        W32202   8.743   3.746   0.934  0.0739  0.0499  0.0231
25603W        W32203   0.495   3.837  32.450 -0.1113  0.0925 -0.0191
25604W        W32204  14.519   2.705  22.455  0.3936  0.0704  0.3079
25605W        W32205  17.848   0.024   2.711  0.3737 -0.3924  0.1052
25606W        W32206   6.315   1.773  16.214 -0.3339  0.1019  0.4437
25607W        W32207   5.504   4.905  22.792 -0.1398  0.1028 -0.0798
25608W        W32208  10.487   0.440   5.218  0.0819 -0.2922 -0.1943
25609W        W32209   8.778   5.269  33.262  0.2380  0.2138  0.0704
25610W        W32210  16.098   5.279  10.020  0.3668  0.2194  0.1422
25611W        W32211  20.236   6.511   0.331 -0.2131  0.0369  0.1873
25612W        W32212  20.626   4.180  24.248 -0.1371  0.2041  0.1727
25613W        W32213   9.049   4.340   3.954 -0.2527  0.1696  0.0159
25614W        W32214  16.701   3.752  23.278  0.1425  0.0907  0.2042
25615W        W32215  17.757   3.896   3.056 -0.0427 -0.0559  0.2828
25616W        W32216  10.813   4.133  21.854  0.0414  0.1180 -0.2112
25617W        W32217   1.954   4.073  20.783  0.0816  0.1769 -0.3251
25618W        W32218   5.388   3.560  26.843 -0.0645  0.0007 -0.1239
25619W        W32219  15.729   0.999  10.497  0.2692  0.0684 -0.1944
25620W        W32220   2.012   5.344   6.710  0.1228 -0.0267  0.3190
25621W        W32221   9.633   3.294   5.152  0.2586  0.2373  0.0757
25622W        W32222   8.046   3.161   8.026  0.1648  0.2030 -0.3167
25623W        W32223   0.402   2.400  24.023  0.1799  0.1914  0.2467
25624W        W32224  17.791   5.141  23.007  0.2099 -0.0203 -0.1556
25625W        W32225   1.029   5.033  27.788  0.0933  0.2833  0.1214
25626W        W32226  15.187   5.331   0.698 -0.0424 -0.1261  0.1794
25627W        W32227  22.283   3.971  34.195 -0.0655  0.0984  0.0767
25628W        W32228   9.223   3.004   5.227 -0.2709 -0.0278 -0.0746
25629W        W32229  17.412   0.800   4.149 -0.3150  0.0543 -0.0237
25630W        W32230  23.473   3.026  12.161 -0.0796 -0.3067 -0.2131
25631W        W32231  15.761   2.064   2.939  0.0751 -0.1772 -0.0730
25632W        W32232  24.688   1.287   6.795 -0.0881 -0.3192 -0.0084
25633W        W32233  12.011   2.465   9.086 -0.0895  0.0816 -0.0555
25634W        W32234  18.305   0.516   9.740 -0.0577  0.1555 -0.0134
25635W        W32235   2.631   1.822   8.428  0.2764  0.1353  0.0654
25636W        W32236  22.350   2.223   0.079 -0.0906  0.5286  0.0011
25637W        W32237  23.535   6.146  13.783 -0.2863 -0.1220 -0.4441
25638W        W32238   8.776   1.184  26.216 -0.1863  0.3045 -0.0913
25639W        W32239  24.242   2.660   0.954  0.2196 -0.1484 -0.1234
25640W        W32240  16.696   3.757  11.370 -0.0774  0.0089 -0.0755
25641W        W32241  10.352   3.382   6.407 -0.2879  0.0107  0.1254
25642W        W32242  10.018   1.670  29.353  0.4525 -0.1321  0.1551
25643W        W32243  23.926   6.511   4.259  0.0985  0.2658  0.1047
25644W        W32244   9.296   0.120  11.959 -0.1698  0.0156 -0.1510
25645W        W32245   3.870   3.459   7.308 -0.1496  0.1505  0.2857
25646W        W32246  22.432   0.768  25.397 -0.0856 -0.0687 -0.2701
25647W        W32247   9.658   0.175  12.307  0.0063 -0.0462 -0.0010
25648W        W32248  14.688   1.567  21.578  0.1170  0.0458 -0.1422
25649W        W32249  20.025   3.723  12.183  0.1269  0.2373  0.1739
25650W        W32250  10.744   5.577   5.079 -0.1100  0.0397  0.4000
25651W        W32251   6.492   2.259   2.702 -0.2760  0.1880 -0.1228
25652W        W32252   2.772   2.843  33.971 -0.1303  0.0932 -0.2333
25653W        W32253  13.171   4.728  23.466 -0.0916 -0.1843 -0.0365
25654W        W32254  13.434   6.476  11.169 -0.1738  0.1260 -0.1102
25655W        W32255   6.518   1.915   1.132  0.1026  0.0221  0.0073
25656W        W32256   0.853   5.964   4.120 -0.0306 -0.2252 -0.2465
25657W        W32257  25.594   0.546  13.124  0.2222 -0.0575 -0.1143
25658W        W32258  26.105   0.619  10.554 -0.0625 -0.1738  0.1050
25659W        W32259   5.516   1.492   8.104 -0.4497  0.0673 -0.1491
25660W        W32260  24.364   1.356  32.131 -0.4480  0.2956  0.0680
25661W        W32261  21.818   1.368  12.219  0.0802 -0.2197  0.2789
25662W        W32262  15.070   1.362  28.996 -0.1000 -0.0367 -0.1062
25663W        W32263  24.999   3.311  11.167 -0.0249 -0.1298  0.0996
25664W        W32264  21.487   3.862   8.728  0.2076  0.0266 -0.1705
25665W        W32265  20.943   0.302  34.645 -0.0861  0.0052 -0.1639
25666W        W32266  11.522   1.323  28.240 -0.0979  0.5640 -0.0034
25667W        W32267  22.186   2.763   5.011  0.0710  0.1331 -0.1867
25668W        W32268  21.996   3.638   9.430 -0.1718 -0.0590  0.0802
25669W        W32269  14.040   1.400   0.418 -0.1334  0.1854 -0.2605
25670W        W32270   7.846   5.942   3.469 -0.4206  0.1104  0.2082
25671W        W32271  14.483   4.771   0.549  0.4778  0.1158  0.1517
25672W        W32272  19.516   2.565  21.228  0.0553 -0.3873  0.0161
25673W        W32273  14.430   2.491  31.929  0.0833  0.2435 -0.2728
25674W        W32274   2.439   5.770  13.018  0.0101 -0.0880 -0.1336
25675W        W32275   7.133   2.018   8.385  0.0149 -0.1116  0.1137
25676W        W32276   0.379   0.182  34.962  0.2537 -0.1556  0.1141
25677W        W32277  16.270   4.729  23.729 -0.0475  0.0496 -0.0069
25678W        W32278   3.155   1.736  32.277  0.2934  0.0184  0.0403
25679W        W32279  25.913   4.182  28.472  0.0311  0.1243  0.0450
25680W        W32280  23.514   5.586  10.507 -0.1792 -0.1497  0.0153
25681W        W32281  20.368   0.277  33.530  0.0227  0.0894 -0.0378
25682W        W32282  25.757   5.014  33.062  0.1266 -0.3466  0.2462
25683W        W32283  20.326   2.304  32.637 -0.3814  0.1335 -0.2248
25684W        W32284   6.617   0.443   0.808 -0.0040  0.0252  0.0980
25685W        W32285  22.735   3.796  32.438  0.1358  0.0388  0.2513
25686W        W32286  22.919   1.335  23.392 -0.0302 -0.0590 -0.0807
25687W        W32287  19.253   1.261  24.834  0.3044 -0.0235 -0.0022
25688W        W32288  24.410   3.019  34.250  0.1050  0.1080 -0.0942
25689W        W32289   0.759   0.017   0.710  0.1298 -0.0462  0.3235
25690W        W32290  26.109   3.653  21.230 -0.0341  0.0848  0.1478
25691W        W32291   4.782   4.692   7.560  0.1325  0.0887 -0.2189
25692W        W32292  17.220   5.377  34.981  0.1174 -0.1159 -0.0522
25693W        W32293  15.166   5.494  23.718 -0.5255  0.0193  0.3103
25694W        W32294   9.416   3.928  30.638 -0.1661 -0.2006  0.0404
25695W        W32295   6.136   3.777   7.414  0.1219  0.0715  0.0670
25696W        W32296   2.442   2.745  11.561  0.0931  0.2092 -0.1069
25697W        W32297   3.576   2.286  30.636 -0.0029  0.1398  0.1223
25698W        W32298  12.830   0.275  14.177 -0.2658  0.1483  0.2766
25699W        W32299  20.934   3.202  21.698  0.1963 -0.0642  0.0029
25700W        W32300   8.448   4.821   4.840  0.1194 -0.1900  0.0860
25701W        W32301  21.048   4.088   2.075 -0.3364 -0.2052  0.2899
25702W        W32302  16.945   4.809  30.038 -0.1154  0.2342  0.0248
25703W        W32303   1.283   2.530   0.785  0.1501 -0.4029 -0.1974
25704W        W32304   7.665   4.781   7.466 -0.3441  0.1578 -0.1161
25705W        W32305   9.547   3.563   6.425  0.1142 -0.0464 -0.1943
25706W        W32306   0.973   1.983  30.860 -0.0338  0.3125 -0.0284
25707W        W32307  24.153   6.556  24.630 -0.0474  0.1254  0.2602
25708W        W32308  16.573   3.764   3.746  0.3608  0.2495 -0.2301
25709W        W32309  20.448   0.475  14.288  0.1692  0.0266 -0.0154
25710W        W32310  12.124   5.478   8.448  0.1941 -0.2115 -0.2963
25711W        W32311  18.630   6.038  29.191  0.0339  0.3073  0.0094
25712W        W32312  24.842   0.524  21.785 -0.2475  0.1788  0.2167
25713W        W32313  16.871   5.998  22.566  0.1064  0.0396 -0.2538
25714W        W32314  20.363   6.108   4.697 -0.0861  0.2428  0.1985
25715W        W32315  16.245   5.120  31.681  0.1208  0.2884 -0.2590
25716W        W32316  18.601   2.804  21.649 -0.2333 -0.0227 -0.1354
25717W        W32317  20.482   3.699   5.113 -0.0161 -0.1427 -0.1824
25718W        W32318  17.023   5.250  22.655  0.0876  0.3076 -0.2584
25719W        W32319  20.035   6.011   3.880 -0.2354  0.3449  0.0616
25720W        W32320   1.269   3.053   9.769  0.3253  0.0090 -0.2306
25721W        W32321  12.294   5.957  14.117 -0.1948 -0.1636 -0.1103
25722W        W32322  21.734   0.033   6.204 -0.0721  0.2078 -0.1484
25723W        W32323  22.728   0.659  31.349 -0.2479 -0.0423  0.1382
25724W        W32324  24.592   1.344  30.714  0.2846 -0.0683  0.1080
25725W        W32325  13.278   6.046  32.788 -0.5284  0.1073  0.0573
25726W        W32326  10.156   3.405  15.204 -0.5621 -0.1675 -0.0257
25727W        W32327  15.799   0.250  26.486 -0.0152  0.2165 -0.0870
25728W        W32328   6.348   4.245   6.534 -0.0336  0.0064 -0.0605
25729W        W32329  24.872   5.926  22.675 -0.0263 -0.1134 -0.2210
25730W        W32330  10.016   0.825  29.859  0.0935 -0.2763  0.2465
25731W        W32331  12.138   4.556  27.166  0.0077  0.0341  0.1231
25732W        W32332   3.563   3.733  12.632 -0.0657  0.1817 -0.2083
25733W        W32333  13.604   2.149  10.509 -0.0920  0.2430  0.0327
25734W        W32334   4.264   0.716  12.928 -0.3669 -0.0288  0.1863
25735W        W32335   6.649   2.296  31.448 -0.0700 -0.1890 -0.1301
25736W        W32336  14.685   6.192  30.295 -0.1643 -0.0759  0.0393
25737W        W32337  24.522   5.959  34.339  0.0238 -0.3543 -0.1086
25738W        W32338  20.235   0.968  34.281 -0.0073  0.2999  0.2100
25739W        W32339   8.323   1.865  34.979 -0.1949  0.0006  0.1585
25740W        W32340  19.751   5.948  21.968  0.1054  0.1805 -0.0332
25741W        W32341  24.600   3.364   8.008  0.2498 -0.1471 -0.1569
25742W        W32342   4.031   1.653  34.599  0.1751 -0.1556  0.1316
25743W        W32343  16.177   2.477  24.891 -0.0806  0.2148 -0.2942
25744W        W32344  12.221   6.116  25.793 -0.0209 -0.0090 -0.4352
25745W        W32345  13.501   0.757  29.223  0.2976 -0.1156 -0.1291
25746W        W32346  24.324   2.697  11.640  0.2029 -0.0677 -0.0646
25747W        W32347   2.364   6.219   9.887 -0.0052  0.0078 -0.1486
25748W        W32348   2.522   2.172   1.897  0.3676 -0.2092 -0.1504
25749W        W32349  14.454   3.086  13.872 -0.0736  0.0412 -0.0941
25750W        W32350  22.513   0.474  14.641 -0.2816  0.0110 -0.0742
25751W        W32351   9.299   1.626   5.027 -0.0306  0.4032  0.0581
25752W        W32352  11.696   5.587   6.960  0.1578 -0.2235  0.0490
25753W        W32353  15.272   3.851   6.173  0.1950  0.1408 -0.0770
25754W        W32354   4.896   5.276  15.405  0.1576 -0.2724 -0.3421
25755W        W32355  22.138   1.288  32.428  0.1851  0.0523  0.2860
25756W        W32356  15.031   3.238  33.079  0.0094  0.2357 -0.0547
25757W        W32357   8.081   5.759   8.301  0.3196  0.2987 -0.6650
25758W        W32358  22.616   2.899   7.117  0.0685  0.3002  0.1860
25759W        W32359  26.173   6.138  28.677 -0.3037 -0.2191 -0.0555
25760W        W32360   1.130   0.898  11.860  0.0782 -0.2108 -0.0518
25761W        W32361   0.722   0.894   3.772  0.0566  0.0568 -0.1347
25762W        W32362   7.799   3.963  12.528 -0.1510 -0.1212 -0.1072
25763W        W32363  23.013   4.901  32.924  0.0563 -0.2191  0.0599
25764W        W32364  11.593   4.019  13.261 -0.1275  0.1426 -0.0069
25765W        W32365  17.597   6.281   2.340  0.1791 -0.2053  0.0089
25766W        W32366  23.495   0.896  33.508  0.0384 -0.1317  0.0535
25767W        W32367  22.498   5.501   3.119 -0.0328 -0.1503 -0.1740
25768W        W32368  18.582   4.604   0.547  0.0012 -0.2310  0.1730
25769W        W32369  10.934   5.701   6.285 -0.3938  0.1877 -0.0597
25770W        W32370  11.994   5.806  34.062  0.0708 -0.1074 -0.0478
25771W        W32371  11.287   5.729  14.479 -0.0918 -0.1170 -0.2478
25772W        W32372   4.013   1.183   8.540  0.1662  0.2765  0.1027
25773W        W32373   8.739   5.790  26.018 -0.1211 -0.1452 -0.0679
25774W        W32374   5.731   4.910  34.886  0.0128  0.1020  0.1912
25775W        W32375  23.575   5.335   9.383 -0.1861 -0.1702 -0.0326
25776W        W32376  11.055   1.924  31.517 -0.0572 -0.2084  0.1729
25777W        W32377  22.484   4.765  22.313  0.3009 -0.0138 -0.0823
25778W        W32378  22.360   2.825  26.910 -0.1592 -0.1162 -0.2427
25779W        W32379  13.386   6.317  14.177 -0.2345  0.0596  0.0994
25780W        W32380  19.578   4.083  32.886  0.1026 -0.3365 -0.0926
25781W        W32381   0.974   3.393  36.044 -0.2578  0.1013  0.0485
25782W        W32382   5.691   1.666  27.225 -0.1997 -0.0951  0.0574
25783W        W32383   9.674   1.351   9.128  0.0970  0.0401 -0.1515
25784W        W32384   8.033   3.528  21.702  0.1693  0.0744 -0.0870
25785W        W32385  14.547   5.509   3.628 -0.2098 -0.0057 -0.0233
25786W        W32386  10.854   3.419   1.007  0.3163  0.0344 -0.0515
25787W        W32387  16.759   1.047  21.846  0.2603 -0.0768  0.1694
25788W        W32388   8.326   3.213  21.314  0.0408  0.1048 -0.0351
25789W        W32389   2.579   2.840  31.262 -0.0746 -0.1838  0.0450
25790W        W32390  12.124   6.134  15.247  0.2173  0.0587 -0.0465
25791W        W32391  11.647   5.245  34.792 -0.4142 -0.0635  0.2752
25792W        W32392  18.953   2.939   2.826 -0.3026 -0.3206  0.0711
25793W        W32393   0.837   3.991   9.559  0.2754 -0.1203  0.0683
25794W        W32394   2.624   6.188  27.079  0.1432  0.0710 -0.0339
25795W        W32395   5.540   1.196  14.313 -0.3395 -0.3728  0.4182
25796W        W32396   1.699   5.093  31.950 -0.0079 -0.0492 -0.0715
25797W        W32397   2.609   2.683  24.997 -0.3926  0.0112 -0.1501
25798W        W32398  24.706   3.229  25.698  0.2094  0.2757 -0.0936
25799W        W32399  26.255   0.298  23.787 -0.0800 -0.2848  0.1616
25800W        W32400  12.901   5.052  22.204  0.0752 -0.1555  0.1558
25801W        W32401  12.597   5.391  21.982 -0.0690 -0.0004  0.1691
25802W        W32402   0.267   0.339  13.882  0.1096 -0.2914 -0.1453
25803W        W32403  25.222   4.572  11.026 -0.1058 -0.5725 -0.1252
25804W        W32404   4.640   4.646   9.399 -0.0853 -0.0692  0.0132
25805W        W32405  10.979   0.911  24.466  0.1105  0.1252  0.0828
25806W        W32406   6.294   0.502  27.273  0.0685  0.0760 -0.0511
25807W        W32407   0.196   6.344  23.217  0.0316 -0.1094 -0.2658
25808W        W32408  11.252   2.342   2.839  0.0839 -0.0744 -0.0317
25809W        W32409  21.389   2.228   5.215 -0.1366  0.0179  0.1651
25810W        W32410  22.586   3.509  35.449 -0.0401 -0.0762 -0.0540
25811W        W32411  20.999   5.217   9.783 -0.5239  0.3700 -0.0666
25812W        W32412   9.933   2.253   9.938  0.2878 -0.0950 -0.1293
25813W        W32413  10.246   4.147  11.815  0.2048 -0.1960 -0.0721
25814W        W32414   3.394   4.725  30.101  0.2441 -0.1283 -0.2494
25815W        W32415  16.483   3.461  34.035 -0.1774 -0.3735  0.0222
25816W        W32416  25.171   6.453  30.098  0.2837  0.0757  0.4452
25817W        W32417   2.691   1.650   3.668 -0.3106 -0.0190  0.0853
25818W        W32418   2.643   0.510  26.536  0.3110 -0.1052 -0.0881
25819W        W32419  24.864   2.361  29.284 -0.0171  0.0161 -0.1071
25820W        W32420  13.544   1.408  11.996 -0.1672  0.2555  0.0582
25821W        W32421   2.710   0.743  30.393 -0.3576  0.1523  0.0049
25822W        W32422   9.259   2.920  24.886 -0.0714 -0.0389  0.0319
25823W        W32423  19.655   2.381  29.738 -0.0053  0.0307 -0.2038
25824W        W32424  13.614   6.587   5.139 -0.0096 -0.1008 -0.0804
25825W        W32425  24.122   0.255  11.827 -0.1041 -0.2599 -0.0353
25826W        W32426   5.605   1.892  28.681  0.4093 -0.0574 -0.1524
25827W        W32427  13.685   1.828  15.156 -0.3718  0.0822  0.1143
25828W        W32428   9.383   1.284   6.385 -0.0962  0.0929 -0.1078
25829W        W32429  20.691   4.183  23.760 -0.3719  0.0547  0.0228
25830W        W32430  16.164   5.563  33.543 -0.1033  0.0677  0.1015
25831W        W32431  20.315   6.459   9.787  0.1785  0.1121  0.0675
25832W        W32432   4.932   3.676   9.325 -0.0188  0.2019 -0.2887
25833W        W32433   6.304   3.057  13.841  0.1698 -0.0977 -0.0809
25834W        W32434  10.402   1.740  29.692 -0.1292  0.1466 -0.2996
25835W        W32435   7.260   4.329  24.112  0.1224 -0.0260  0.0221
25836W        W32436  20.730   0.995  30.366 -0.3912  0.0995 -0.1478
25837W        W32437  14.200   3.160  33.099 -0.0878  0.0581  0.2456
25838W        W32438  17.540   0.288  29.153  0.1615 -0.0566  0.0529
25839W        W32439  22.301   0.178  35.921  0.1857  0.0863  0.0780
25840W        W32440  19.997   3.705  29.068  0.0859 -0.0349 -0.3158
25841W        W32441  25.860   6.296  32.032 -0.2257 -0.0029 -0.1066
25842W        W32442  20.188   3.585  34.313 -0.1971 -0.1492 -0.1153
25843W        W32443   6.131   1.466  34.722  0.0289  0.0936  0.0936
25844W        W32444  22.617   1.734   1.744 -0.1704  0.2086  0.1570
25845W        W32445  10.516   4.454  30.451 -0.2093 -0.1568  0.0736
25846W        W32446   6.653   6.230  35.413 -0.0885  0.1995  0.1362
25847W        W32447  14.825   3.660  33.316 -0.2185 -0.1642 -0.0182
25848W        W32448   0.847   0.071  34.764  0.1249 -0.0315  0.2678
25849W        W32449  15.922   4.699  24.904  0.2538 -0.2985 -0.0184
25850W        W32450  23.746   6.535   7.803 -0.1431  0.1645  0.2974
25851W        W32451  16.693   0.225   7.959  0.1495  0.0929  0.0321
25852W        W32452  24.690   5.051  34.115 -0.1787 -0.1150 -0.0994
25853W        W32453  19.752   4.119  28.350  0.1729 -0.3506 -0.0648
25854W        W32454   3.461   5.553  34.772 -0.0867  0.0199  0.0991
25855W        W32455   1.469   2.705  32.816 -0.1666  0.2028  0.2121
25856W        W32456   6.604   4.894   5.493  0.0961  0.2438 -0.0505
25857W        W32457  21.378   1.542   2.863  0.0274 -0.3375 -0.2246
25858W        W32458  22.145   5.936   5.808  0.0532  0.0401  0.0352
25859W        W32459   4.731   4.939  34.781 -0.3395 -0.0776  0.1400
25860W        W32460   5.864   0.064  20.985  0.2057 -0.1248 -0.0819
25861W        W32461   8.576   6.408   7.499  0.1223  0.1015  0.1092
25862W        W32462  17.732   6.460  12.335 -0.1110  0.0897 -0.0243
25863W        W32463  18.458   2.299  27.265  0.1704  0.0941 -0.1808
25864W        W32464   7.294   0.912  32.592  0.2898  0.2573 -0.1964
25865W        W32465  16.392   2.854  22.750 -0.1845 -0.1889 -0.1260
25866W        W32466  24.429   1.133  12.939 -0.2075 -0.1719  0.2683
25867W        W32467   8.718   1.758  12.057  0.3322 -0.1363 -0.0863
25868W        W32468  20.629   0.856   5.650  0.0370  0.2003  0.1246
25869W        W32469  16.450   3.964  29.606 -0.0346 -0.1089  0.1850
25870W        W32470   3.999   2.371   7.128  0.2196 -0.1596 -0.1297
25871W        W32471  24.584   0.655  15.580  0.2251  0.3287 -0.1097
25872W        W32472   4.508   0.112   2.909 -0.0006 -0.0898 -0.1928
25873W        W32473   1.913   5.274  23.546 -0.0300  0.0910  0.2290
25874W        W32474  24.176   6.166   6.974  0.3021  0.1426 -0.0314
25875W        W32475   7.121   4.223   3.087 -0.1486 -0.2257  0.1299
25876W        W32476   5.958   6.221   7.781  0.3083 -0.1451 -0.2172
25877W        W32477  23.869   4.055  10.919  0.0330  0.3597  0.2078
25878W        W32478  19.332   6.593   1.433  0.0810  0.2623  0.3771
25879W        W32479   1.690   2.109  12.269  0.0553 -0.0763  0.1823
25880W        W32480   6.327   5.664  32.180 -0.1130 -0.1064  0.2501
25881W        W32481   1.933   1.490  27.587  0.2773  0.2478  0.2133
25882W        W32482  16.013   5.039   3.573 -0.3384  0.1778 -0.1989
25883W        W32483  23.389   2.552  24.930  0.1862 -0.1234  0.0358
25884W        W32484  15.622   4.698  22.614 -0.6300  0.1649 -0.0122
25885W        W32485  20.606   3.748   2.480 -0.0660 -0.1271 -0.0660
25886W        W32486  23.806   4.086  26.005 -0.0648 -0.0090  0.0670
25887W        W32487   2.620   1.370  22.589  0.0705 -0.1073  0.2840
25888W        W32488  12.273   1.690   7.976  0.2049 -0.1114 -0.1339
25889W        W32489  19.501   1.271  14.060 -0.1379 -0.0687 -0.1180
25890W        W32490   2.881   1.719  26.506  0.1322  0.1608 -0.3091
25891W        W32491   6.123   4.184  26.375  0.2154 -0.0408 -0.1285
25892W        W32492   9.696   5.479  13.768 -0.0268 -0.3161  0.0834
25893W        W32493   5.772   6.173  23.978 -0.3326 -0.0735 -0.0634
25894W        W32494  18.457   6.183  23.411 -0.1021  0.0821  0.1825
25895W        W32495  13.307   4.694  24.870  0.3825 -0.4040  0.1046
25896W        W32496  16.693   2.255  24.934 -0.0982 -0.3186 -0.0343
25897W        W32497   3.308   1.178   2.156 -0.3156 -0.0253  0.0251
25898W        W32498  10.602   2.608  23.224  0.3846 -0.1694 -0.1355
25899W        W32499  25.531   5.818   0.624  0.2208  0.0228  0.0322
25900W        W32500  17.593   4.563  34.709 -0.0646 -0.2203  0.0969
25901W        W32501   4.700   2.959  23.436  0.4170  0.2419 -0.0756
25902W        W32502  21.463   1.101   6.925  0.3284  0.0287 -0.1198
25903W        W32503   7.476   3.160  27.326  0.1298  0.1090 -0.0740
25904W        W32504  10.490   6.547  14.238 -0.2030 -0.0284 -0.1993
25905W        W32505   2.183   0.518  24.974  0.0372  0.0877 -0.2334
25906W        W32506  17.733   4.065   4.789  0.1157 -0.0041 -0.0402
25907W        W32507  16.560   5.916   6.973 -0.0150  0.1923 -0.2602
25908W        W32508   0.656   1.711  32.110  0.0367 -0.0992  0.0493
25909W        W32509   9.625   4.614  11.700  0.0209  0.1793  0.0489
25910W        W32510  21.201   2.002   8.345  0.3598  0.1597  0.1141
25911W        W32511   7.474   4.774  25.291  0.1540 -0.0320  0.2382
25912W        W32512  18.294   1.714  20.899  0.1069  0.2248 -0.0217
25913W        W32513  18.348   2.499  24.302  0.0577 -0.0476  0.0181
25914W        W32514  16.293   6.175  15.512  0.3342 -0.1250 -0.0816
25915W        W32515   3.999   6.077  27.279 -0.2338 -0.1513  0.2276
25916W        W32516  19.397   3.840  21.484  0.4169  0.1957 -0.0221
25917W        W32517  18.638   2.519   4.529  0.0305  0.0506  0.1632
25918W        W32518  22.283   4.921   1.555  0.1443  0.0913  0.0255
25919W        W32519  26.053   2.345  36.008 -0.1258  0.2785 -0.1641
25920W        W32520   7.003   0.733  13.448  0.0016  0.0601 -0.1624
25921W        W32521   2.840   6.047  22.194 -0.0286  0.3576  0.1547
25922W        W32522  19.402   4.606  24.095 -0.2027  0.0533 -0.3569
25923W        W32523  10.128   1.318  33.566  0.0111 -0.0581  0.4710
25924W        W32524   8.293   2.190  14.384  0.2560  0.2462  0.3090
25925W        W32525   9.263   1.144  32.929 -0.0632  0.1409 -0.0449
25926W        W32526  13.708   6.073  34.018  0.0097 -0.1835  0.1199
25927W        W32527   9.962   4.581  26.963  0.0089  0.2255 -0.2034
25928W        W32528   4.877   3.329  34.370  0.1662  0.0096 -0.1627
25929W        W32529  22.637   3.297  13.563  0.0893  0.1906 -0.1340
25930W        W32530  18.263   0.090  13.614  0.1389  0.0070  0.1096
25931W        W32531   3.460   4.891   9.016 -0.0678 -0.0614 -0.0154
25932W        W32532  22.668   4.167  25.009 -0.4716  0.0056 -0.0037
25933W        W32533  12.031   4.648  10.059  0.0305 -0.0237 -0.3597
25934W        W32534   6.636   2.295  11.674 -0.4219  0.1090  0.2520
25935W        W32535  14.911   2.159  28.408  0.1229  0.0804  0.1261
25936W        W32536   3.913   2.351   0.703  0.1261 -0.1582  0.1800
25937W        W32537   6.465   0.906  11.385 -0.0639  0.0836  0.1185
25938W        W32538   1.269   2.540  13.954 -0.1824 -0.2261  0.0592
25939W        W32539  11.702   2.603  12.258 -0.2989  0.1992 -0.3758
25940W        W32540  14.098   5.687   5.389  0.0732  0.0976  0.0706
25941W        W32541  18.003   0.702   1.563  0.3769 -0.2025  0.3515
25942W        W32542  14.429   0.161   4.716 -0.2288 -0.1448  0.1856
25943W        W32543  22.027   0.922  29.992  0.1477  0.3612 -0.1269
25944W        W32544  11.484   6.078  11.027 -0.0658 -0.3718 -0.2092
25945W        W32545  14.315   6.462  21.252 -0.1061 -0.1673 -0.0514
25946W        W32546  20.743   3.827  10.216  0.0266 -0.1295 -0.0103
25947W        W32547   0.641   1.024   2.701  0.0681 -0.1780 -0.3283
25948W        W32548  16.902   5.869   0.625 -0.0737  0.0690 -0.0828
25949W        W32549  25.374   1.903   9.084  0.1846 -0.0433  0.0374
25950W        W32550  21.822   4.449  28.990 -0.2600  0.3909 -0.0720
25951W        W32551  11.417   3.122  13.415  0.4683 -0.2294 -0.2356
25952W        W32552   6.617   4.372  24.578 -0.0822 -0.0119  0.3422
25953W        W32553  25.443   0.104  33.292  0.0109 -0.0667 -0.0674
25954W        W32554  23.414   4.826  13.078 -0.4025  0.0758  0.2265
25955W        W32555  25.891   2.053   1.657  0.1490 -0.1166 -0.1646
25956W        W32556  19.164   1.167   8.564 -0.1084 -0.2617  0.0271
25957W        W32557  18.394   0.084  23.022  0.1187  0.0100 -0.1531
25958W        W32558   3.507   0.696   6.394 -0.3021  0.1038 -0.3127
25959W        W32559  11.618   3.733  23.090  0.1952  0.2640 -0.1411
25960W        W32560  21.611   1.366  26.338  0.0399  0.0731 -0.2262
25961W        W32561   6.091   0.364   2.137 -0.0412  0.1714  0.2367
25962W        W32562   6.919   2.182   0.104 -0.3594 -0.1795 -0.1260
25963W        W32563  22.121   3.627  35.463 -0.2206 -0.1038 -0.0493
25964W        W32564  15.047   2.677  11.799 -0.3587  0.0668  0.1451
25965W        W32565   9.795   4.410  27.860  0.0744  0.2779  0.1557
25966W        W32566  16.662   2.699  25.782 -0.0960 -0.1469 -0.1920
25967W        W32567  15.729   3.280   1.681 -0.3654 -0.0547 -0.0712
25968W        W32568  13.118   0.659  33.602  0.0228  0.1258  0.2401
25969W        W32569   5.966   2.452  34.580 -0.2545 -0.0384 -0.1511
25970W        W32570  25.875   2.714   6.319  0.1308 -0.2082 -0.0949
25971W        W32571  13.845   3.311   1.016  0.2031 -0.1012  0.1287
25972W        W32572   4.067   4.878  15.182 -0.0744  0.0150  0.1478
25973W        W32573  13.361   0.420   7.527  0.1864  0.0102 -0.1914
25974W        W32574   6.127   3.347  26.003 -0.2160 -0.1735  0.1392
25975W        W32575   6.086   1.573  26.230  0.1906  0.0474  0.0669
25976W        W32576   8.428   3.726  11.891  0.1265 -0.1089  0.0417
25977W        W32577  18.608   1.687  30.773 -0.0111  0.2611 -0.3735
25978W        W32578   1.867   5.832  24.329  0.1128 -0.1564  0.1007
25979W        W32579  11.512   1.274  12.553  0.1208 -0.2374  0.0916
25980W        W32580   2.809   1.123  23.007  0.0173 -0.3103  0.2902
25981W        W32581  21.084   5.933  12.371 -0.0051 -0.0681 -0.0454
25982W        W32582  19.109   4.612  28.875 -0.1669  0.0779 -0.0967
25983W        W32583   1.443   2.432  30.654  0.0240 -0.2744  0.0181
25984W        W32584   0.945   1.222  28.506 -0.1257 -0.2930 -0.1570
25985W        W32585  18.776   5.855  28.664  0.3308  0.0001  0.2457
25986W        W32586   0.287   1.791   3.961 -0.1824 -0.1941  0.1805
25987W        W32587   7.740   0.608  11.495  0.1351  0.0532 -0.1069
25988W        W32588   8.840   0.524   5.740 -0.0991 -0.0164 -0.0479
25989W        W32589   5.247   4.012   0.093  0.2229  0.2563 -0.0626
25990W        W32590   1.025   6.285  29.487  0.0329 -0.0173  0.0092
25991W        W32591  19.469   5.660  32.236  0.1191 -0.1308 -0.1515
25992W        W32592  11.881   0.228  33.035  0.1564 -0.0126 -0.1537
25993W        W32593   8.545   2.057  10.923  0.2827 -0.4024  0.0537
25994W        W32594  22.857   3.763  21.553  0.0725 -0.3904  0.0350
25995W        W32595   6.406   1.514   5.966  0.0110  0.2122 -0.2222
25996W        W32596  12.286   1.052  25.219 -0.0586 -0.1961  0.2126
25997W        W32597   1.017   4.114  32.578 -0.3532  0.1830  0.1337
25998W        W32598  20.573   0.945   8.421 -0.1515  0.0797  0.1588
25999W        W32599   7.681   4.049  24.028 -0.0998 -0.3266 -0.2875
26000W        W32600  20.276   0.801   3.524  0.1560  0.1285  0.0038
26001W        W32601   8.657   3.144  10.325 -0.1819 -0.2486  0.0499
26002W        W32602  15.040   1.889  32.285 -0.1721  0.0100 -0.0054
26003W        W32603  12.223   4.735   5.806 -0.1648 -0.1646  0.1683
26004W        W32604  24.047   1.316  27.786 -0.0390  0.0291 -0.2026
26005W        W32605  19.973   4.645  34.768  0.2636  0.0363 -0.2061
26006W        W32606  10.148   3.217  35.018  0.3260  0.0187 -0.2856
26007W        W32607  16.662   2.469  27.679 -0.1044 -0.0486 -0.0343
26008W        W32608   0.869   1.440  31.782  0.0720  0.0198 -0.2362
26009W        W32609  24.335   1.196  33.436 -0.5357 -0.1127  0.0388
26010W        W32610  17.761   2.971  33.470  0.0118 -0.2530 -0.0160
26011W        W32611  17.758   4.794   4.586 -0.1808  0.0954  0.0954
26012W        W32612  20.400   0.462   7.857  0.0545 -0.0978  0.0684
26013W        W32613  19.621   1.219   8.315  0.0454  0.3032 -0.1534
26014W        W32614  14.598   3.883  13.211  0.0987  0.2043 -0.0234
26015W        W32615   9.398   5.915  21.485  0.1397  0.1206 -0.0240
26016W        W32616  11.365   4.906  28.437 -0.0605 -0.0103 -0.1437
26017W        W32617   0.581   0.403   1.583 -0.0906  0.0690 -0.1017
26018W        W32618   6.386   6.402   1.108  0.2377  0.1018 -0.0315
26019W        W32619  20.745   2.532  28.521 -0.1198 -0.2345  0.3073
26020W        W32620  22.107   0.342  22.830 -0.0425  0.3307  0.1037
26021W        W32621  23.886   5.817   4.695 -0.0053  0.1445  0.0621
26022W        W32622   5.166   2.426  28.595  0.1635  0.0904  0.1670
26023W        W32623  11.908   6.496  27.438  0.2104  0.0987 -0.0281
26024W        W32624  24.062   2.941  33.790  0.1070  0.1119 -0.1630
26025W        W32625   3.869   6.067  28.931 -0.0942  0.2082 -0.1048
26026W        W32626   4.712   1.238  27.436  0.1193  0.0985  0.0018
26027W        W32627   0.825   0.732   8.797 -0.0979 -0.0109 -0.1543
26028W        W32628  19.557   2.566  28.758 -0.1451 -0.0935 -0.2481
26029W        W32629   1.415   6.505  26.323 -0.3281  0.1839 -0.0364
26030W        W32630  10.996   4.435  30.527 -0.0246  0.0085  0.0590
26031W        W32631   4.372   0.846   6.902 -0.1228 -0.0164 -0.2308
26032W        W32632   4.677   1.335  15.422 -0.1833 -0.2041  0.3822
26033W        W32633  17.747   1.012  34.289 -0.1196  0.0538  0.2594
26034W        W32634  21.127   0.004   4.809  0.1137  0.0878 -0.0428
26035W        W32635  19.004   5.567  10.436  0.0874  0.0747 -0.0147
26036W        W32636  17.863   2.189   6.975  0.1796 -0.0939 -0.0077
26037W        W32637  16.643   5.004  21.544 -0.2944 -0.1933 -0.0717
26038W        W32638   5.280   4.310   6.164  0.1403  0.1288 -0.0223
26039W        W32639  19.791   2.964  23.651 -0.3053  0.0756  0.0437
26040W        W32640  23.436   5.286  33.889 -0.1065 -0.0950 -0.0608
26041W        W32641   6.367   5.766   1.036 -0.0041  0.0245  0.0113
26042W        W32642  20.340   4.643  13.165  0.0854  0.1035  0.1118
26043W        W32643   5.051   6.463  11.369  0.2261 -0.1863  0.0454
26044W        W32644   9.020   5.058  14.850  0.1228 -0.0542 -0.3816
26045W        W32645   8.348   4.511   8.328 -0.0835 -0.2044  0.3398
26046W        W32646  25.553   2.437  30.604 -0.0612  0.2562 -0.1688
26047W        W32647   4.189   4.307  35.653 -0.0967 -0.1199  0.4351
26048W        W32648  16.566   0.317  28.920  0.1516  0.0025  0.0690
26049W        W32649  20.402   1.537  21.819  0.2437 -0.1008  0.0421
26050W        W32650  17.464   4.229   9.743 -0.0045  0.1206 -0.1549
26051W        W32651  24.020   0.964  10.609 -0.0942  0.0024 -0.1963
26052W        W32652   3.723   3.519  27.267  0.0721  0.0486 -0.2834
26053W        W32653  25.858   0.645  24.882  0.3407 -0.0351  0.1419
26054W        W32654   4.732   3.487  27.323 -0.0354  0.3820 -0.1482
26055W        W32655  12.251   1.340   7.113 -0.1011 -0.0146  0.1369
26056W        W32656  17.756   5.418  30.601 -0.2140 -0.3615 -0.2031
26057W        W32657  11.492   5.400  31.686  0.1951  0.3254  0.2268
26058W        W32658   3.985   0.579  27.813  0.2795 -0.1532  0.1154
26059W        W32659   2.835   6.175  10.948  0.0970 -0.1652 -0.0136
26060W        W32660  18.287   5.133  29.552  0.0229  0.3274  0.0612
26061W        W32661  14.522   0.764   4.869  0.0143 -0.0342  0.1799
26062W        W32662  23.619   0.354  15.269  0.1889  0.3490  0.2588
26063W        W32663  21.850   3.540   2.526 -0.0877 -0.0449  0.0024
26064W        W32664  20.005   5.646  35.155 -0.0696  0.2530  0.0381
26065W        W32665  24.535   5.375  14.292 -0.1142  0.0655 -0.3646
26066W        W32666  25.784   1.762  21.307  0.5033 -0.2130  0.0878
26067W        W32667  10.981   2.267   2.127 -0.2923  0.0393 -0.0727
26068W        W32668   5.244   0.713  33.548  0.1652 -0.3013 -0.1271
26069W        W32669  15.718   5.221  31.685 -0.0784  0.3035  0.2235
26070W        W32670   0.111   3.929  34.982 -0.0060  0.1627  0.0501
26071W        W32671  23.728   3.572  13.484  0.2818 -0.0003  0.0265
26072W        W32672  25.042   2.767  10.353 -0.1548 -0.1996  0.1543
26073W        W32673  22.888   6.381  29.165  0.4077  0.4210  0.1324
26074W        W32674  10.438   2.184  25.714  0.1885  0.1340  0.0361
26075W        W32675  12.582   4.391   2.339  0.1042  0.0772  0.1391
26076W        W32676   2.015   3.199  22.842  0.2174 -0.1107 -0.1652
26077W        W32677   3.501   2.639   9.138 -0.0002 -0.1709 -0.1166
26078W        W32678  22.675   3.894   5.128  0.0980 -0.1891  0.0313
26079W        W32679   9.591   5.504  33.638  0.0729  0.1101 -0.0133
26080W        W32680  25.130   2.172  24.138  0.0579  0.1368  0.3036
26081W        W32681  19.184   1.194  29.659  0.4618 -0.0090 -0.0355
26082W        W32682  23.948   0.960   5.677  0.4551  0.0058 -0.1050
26083W        W32683  12.817   0.997  22.260  0.0407  0.1539 -0.1033
26084W        W32684  25.239   2.569   5.123  0.3264 -0.0385  0.3294
26085W        W32685   9.979   4.854  23.451 -0.0529  0.0583 -0.3799
26086W        W32686  16.613   6.186  28.148  0.0421 -0.1766 -0.1346
26087W        W32687  11.860   3.531  15.704 -0.0522 -0.1539  0.0939
26088W        W32688   8.024   3.792   5.115 -0.2109  0.1103 -0.1362
26089W        W32689  15.725   6.416  33.374 -0.1020  0.2515  0.2305
26090W        W32690  21.725   6.239  12.812 -0.2916  0.0076  0.1793
26091W        W32691   7.148   0.559  22.688  0.2155 -0.1491  0.1537
26092W        W32692   5.362   0.663  31.513 -0.1166  0.0475  0.0989
26093W        W32693  12.809   6.212  11.960  0.3420 -0.0552  0.3190
26094W        W32694  18.192   5.740  24.020 -0.3510  0.0277 -0.2700
26095W        W32695   7.505   3.450   8.396 -0.2062  0.0337  0.1203
26096W        W32696   2.751   2.363   8.308  0.1792 -0.0338  0.0209
26097W        W32697   1.244   6.591  22.455 -0.0598 -0.1421 -0.3481
26098W        W32698   9.211   0.855  23.422 -0.0292 -0.1005 -0.0501
26099W        W32699   2.555   6.537  33.839 -0.0802  0.1883  0.0142
26100W        W32700  11.512   6.003  30.311 -0.1704  0.2906 -0.1245
26101W        W32701  25.577   1.024  29.389  0.1339  0.3745 -0.1377
26102W        W32702   3.953   2.555  29.081 -0.1014 -0.1813 -0.0076
26103W        W32703  11.906   5.993  28.614 -0.1218  0.1974  0.1446
26104W        W32704   4.961   3.235  25.680 -0.1070 -0.0980  0.1475
26105W        W32705  22.213   4.060  12.342  0.1257 -0.2632  0.1904
26106W        W32706  10.312   0.671  27.506 -0.1602 -0.1566  0.2943
26107W        W32707   9.855   1.731  23.455 -0.1736  0.1806  0.0665
26108W        W32708   1.211   1.988   5.686  0.0939  0.0592  0.0232
26109W        W32709   3.524   2.569  22.347  0.1534 -0.2872  0.3140
26110W        W32710   6.818   5.709   6.129 -0.1060  0.1701  0.0279
26111W        W32711  11.916   4.205  34.122 -0.0387 -0.0973  0.2865
26112W        W32712  11.205   4.945  31.863  0.0783 -0.2311 -0.1613
26113W        W32713   1.055   2.346   7.496  0.1835  0.1964  0.1172
26114W        W32714  11.775   5.126   9.437 -0.3567  0.3573  0.0847
26115W        W32715  17.761   5.521  22.698  0.0053  0.0235  0.3579
26116W        W32716   5.344   5.842  10.401 -0.2799 -0.2452  0.0552
26117W        W32717   9.799   0.773   9.753  0.0250  0.1650 -0.0691
26118W        W32718  11.817   2.177   5.988 -0.0231 -0.1731 -0.3328
26119W        W32719   1.682   0.912  34.852 -0.1890 -0.3380  0.2365
26120W        W32720  17.227   1.976   6.626  0.0162  0.1910  0.2775
26121W        W32721   5.817   1.028   5.593  0.0593 -0.0089  0.1474
26122W        W32722  13.979   3.132  27.799  0.1683  0.5225 -0.0299
26123W        W32723   8.215   0.777   4.845 -0.0426 -0.3833  0.2047
26124W        W32724   2.435   1.886  14.672  0.1891 -0.0895  0.2019
26125W        W32725   4.759   3.580   5.902  0.1344  0.0100  0.0937
26126W        W32726  23.077   5.150  21.107  0.0018 -0.1157 -0.4450
26127W        W32727   0.560   0.503  31.352  0.0121  0.0481 -0.1998
26128W        W32728  15.551   0.326   9.785 -0.1527 -0.0339 -0.2171
26129W        W32729  10.463   1.155  21.520 -0.1756 -0.0277  0.0439
26130W        W32730  25.567   2.199  33.139 -0.1975  0.0905 -0.3061
26131W        W32731  24.550   4.449  14.476 -0.0239 -0.2935  0.1703
26132W        W32732  11.169   3.934  29.205  0.2630 -0.1295 -0.1384
26133W        W32733   8.950   1.596  13.931 -0.3172 -0.1261 -0.3926
26134W        W32734   8.992   5.694  14.666 -0.0907  0.0398 -0.1498
26135W        W32735  18.947   1.979  28.774 -0.2034 -0.1026  0.0695
26136W        W32736   1.127   1.008  31.667  0.0613 -0.1974  0.2500
26137W        W32737  11.252   5.488  13.473 -0.3976 -0.0963 -0.1340
26138W        W32738  24.948   2.293  32.488  0.0943 -0.2624  0.0737
26139W        W32739  20.488   6.477   1.357  0.0313 -0.0912  0.0807
26140W        W32740  24.115   1.299  23.156 -0.0124  0.1879  0.1202
26141W        W32741  11.864   5.213   2.302 -0.1077 -0.0302 -0.1378
26142W        W32742  15.106   0.318  35.175  0.2310  0.1478 -0.1248
26143W        W32743   9.603   3.052   5.692  0.2646  0.1606  0.3840
26144W        W32744  21.759   2.245  13.046  0.0326 -0.0425  0.0035
26145W        W32745  23.083   3.597  35.362  0.0895  0.2282 -0.1715
26146W        W32746  13.288   2.233  32.621  0.1107  0.1480 -0.1270
26147W        W32747  17.556   0.575  13.277 -0.0454 -0.1524  0.2129
26148W        W32748   1.548   5.823  28.698  0.2487 -0.0876 -0.0776
26149W        W32749  24.461   1.182  10.420  0.0182  0.4786 -0.0637
26150W        W32750   4.334   6.496  34.637 -0.0544  0.4788  0.3046
26151W        W32751   7.676   2.957   3.018 -0.0706  0.0699 -0.1393
26152W        W32752   4.429   2.303  30.328  0.1405 -0.2843 -0.0213
26153W        W32753  22.690   6.175  21.826  0.3458  0.0700  0.0328
26154W        W32754  23.830   6.272  21.534  0.0209  0.4460 -0.0760
26155W        W32755  13.137   5.809   3.019  0.5042 -0.3070  0.2105
26156W        W32756  12.232   1.025  21.146 -0.4295  0.1049  0.0212
26157W        W32757   3.606   2.536  29.776  0.3664  0.1136 -0.0025
26158W        W32758  20.047   6.063  14.082  0.3230 -0.1859  0.1789
26159W        W32759  20.155   4.340  27.557 -0.3342 -0.1522  0.1434
26160W        W32760  25.276   2.028  13.467  0.0118  0.1874  0.2320
26161W        W32761   0.675   2.198   4.887 -0.1277 -0.0666  0.1662
26162W        W32762  19.055   1.073  32.971 -0.3615 -0.2180 -0.3409
26163W        W32763  23.555   4.162   2.594 -0.1925  0.1306 -0.2283
26164W        W32764   8.134   5.539  12.042  0.2347 -0.1831  0.1996
26165W        W32765  13.800   1.199   4.356 -0.0230  0.0846  0.1899
26166W        W32766  22.705   3.013  14.843 -0.0091  0.1056 -0.0919
26167W        W32767   9.958   4.015   4.797  0.0530 -0.1923  0.2399
26168W        W32768   6.332   1.624  29.189 -0.0050  0.1344  0.2911
26169W        W32769  10.479   3.095  27.673 -0.0482 -0.0483 -0.0033
26170W        W32770  25.750   2.577   1.621  0.1988  0.2285  0.1759
26171W        W32771   6.985   6.072  28.105 -0.2057  0.2110 -0.0227
26172W        W32772  14.936   5.274  15.037 -0.1906  0.1375 -0.2948
26173W        W32773  22.432   5.016  28.485  0.0366 -0.3575 -0.0078
26174W        W32774   2.499   5.054   6.782  0.0182 -0.0218 -0.0008
26175W        W32775   1.500   3.146  28.003 -0.3182 -0.1426  0.4179
26176W        W32776   8.954   2.227  10.232  0.1308 -0.1303 -0.0646
26177W        W32777   9.317   2.337  31.436 -0.2008 -0.2117  0.1658
26178W        W32778  14.302   4.766  34.441 -0.4129  0.2080  0.2582
26179W        W32779   0.563   3.584  27.764 -0.0382 -0.0891  0.1374
26180W        W32780  13.240   5.117  22.591 -0.0019  0.2813 -0.1764
26181W        W32781   9.871   4.818  26.376 -0.0972  0.1713 -0.0708
26182W        W32782   9.335   1.935  24.988  0.1561 -0.0491  0.1307
26183W        W32783  10.794   3.241  32.195  0.1192 -0.2243 -0.0102
26184W        W32784   9.685   5.058  28.111 -0.0044  0.1128  0.1323
26185W        W32785  13.891   3.824  13.176 -0.2176  0.1274 -0.0034
26186W        W32786   2.682   4.874  14.061  0.3293 -0.2087 -0.0592
26187W        W32787  20.809   4.453  24.619 -0.1172 -0.3271 -0.5095
26188W        W32788  12.956   3.453  23.109 -0.2978 -0.3164  0.2614
26189W        W32789   3.998   1.735  22.405 -0.0753 -0.1200  0.1474
26190W        W32790  19.684   6.334   2.963 -0.3959 -0.1668 -0.0063
26191W        W32791  21.620   2.643  32.195 -0.0214 -0.0882  0.1058
26192W        W32792  19.365   1.914  22.402  0.0980 -0.1989 -0.0122
26193W        W32793   5.351   3.210  13.234  0.1955 -0.3053  0.2389
26194W        W32794  22.648   3.975  27.577  0.6138  0.1050  0.0252
26195W        W32795  26.225   5.037  26.762  0.1636  0.2675  0.0777
26196W        W32796  13.170   1.876  13.355  0.2900 -0.2708 -0.2112
26197W        W32797   7.369   5.387  33.464 -0.0717  0.1872 -0.2424
26198W        W32798  19.735   3.814  24.791 -0.1409  0.1266 -0.1742
26199W        W32799   9.450   0.076  32.353 -0.0819  0.1879 -0.1219
26200W        W32800  20.545   0.933  33.859  0.2015 -0.1543  0.2837
26201W        W32801  12.905   0.988  32.887 -0.1505  0.0942 -0.2414
26202W        W32802   9.155   6.204  27.985  0.1108 -0.2147 -0.2646
26203W        W32803  23.238   1.563  28.463  0.0780  0.2055 -0.1848
26204W        W32804  21.328   2.723  11.536 -0.0121 -0.3447 -0.1871
26205W        W32805   4.219   3.505  28.316  0.1923  0.1547  0.1542
26206W        W32806   3.353   5.564   6.190 -0.0940 -0.1658 -0.0126
26207W        W32807  11.757   1.947  12.573 -0.0333 -0.0086 -0.0145
26208W        W32808   8.046   6.322  29.793 -0.1718  0.0464  0.2926
26209W        W32809  25.020   3.725  27.918 -0.0505  0.0258  0.0876
26210W        W32810  11.422   0.058  24.848  0.0261  0.2763  0.2465
26211W        W32811  11.393   1.382  14.042 -0.2145 -0.0034 -0.0838
26212W        W32812   2.728   1.863  24.953  0.1206 -0.0326  0.0439
26213W        W32813   9.520   3.033   6.444 -0.0379 -0.0293 -0.0592
26214W        W32814  22.812   1.132   9.428 -0.1221 -0.2933 -0.2985
26215W        W32815   1.859   0.611  13.416 -0.1884  0.1283  0.1631
26216W        W32816   4.618   6.408  27.609  0.1179  0.2053 -0.1403
26217W        W32817   2.850   2.510  22.260  0.0282  0.1568  0.0175
26218W        W32818  13.874   2.209   5.545  0.1689  0.2524  0.0212
26219W        W32819   6.442   5.276  28.191  0.1829 -0.1270  0.1270
26220W        W32820  14.062   4.759  12.744  0.2227 -0.1788 -0.2601
26221W        W32821   5.394   4.616  30.582 -0.1013  0.1631  0.0893
26222W        W32822  16.344   3.280  35.364  0.2735 -0.1599 -0.0642
26223W        W32823   4.938   1.729   9.268  0.0551 -0.1200  0.1405
26224W        W32824  23.542   5.531  25.186  0.2047 -0.3172  0.2415
26225W        W32825  26.098   6.408  23.936 -0.0299  0.0487 -0.0703
26226W        W32826   3.172   6.241   0.895  0.2841  0.0731  0.0425
26227W        W32827   2.926   0.643  12.247 -0.1865 -0.0371 -0.2479
26228W        W32828  17.973   3.360  34.188 -0.1832 -0.0975 -0.3372
26229W        W32829   8.863   1.988  32.967  0.0178 -0.1641 -0.0681
26230W        W32830  15.887   4.977   2.405 -0.0046 -0.1407 -0.0224
26231W        W32831   0.741   0.523  12.780 -0.1625  0.2100 -0.1272
26232W        W32832  16.194   3.359  13.664  0.0448  0.0360  0.3029
26233W        W32833  17.417   6.479  29.520 -0.0199 -0.1630  0.2664
26234W        W32834  17.158   5.915  28.891 -0.0394  0.1186  0.1236
26235W        W32835  18.854   3.983  28.298  0.1767 -0.0414 -0.0336
26236W        W32836  17.645   3.167   5.765 -0.0594 -0.0831 -0.1006
26237W        W32837   0.792   3.796   3.810 -0.5265 -0.5592  0.0629
26238W        W32838   4.498   6.203   2.739 -0.2385  0.1786  0.2130
26239W        W32839  19.008   5.313  31.997  0.3290  0.1236 -0.1199
26240W        W32840  25.872   3.598  29.569 -0.2821 -0.2480  0.0773
26241W        W32841  24.710   3.418  26.385  0.2659  0.0340 -0.2909
26242W        W32842   6.106   0.600   0.081 -0.4467 -0.0427  0.0802
26243W        W32843   5.467   5.998  35.192 -0.3912 -0.0123 -0.2029
26244W        W32844  11.073   1.367  25.632 -0.1204 -0.2497  0.0081
26245W        W32845   8.767   3.919  33.163  0.2106 -0.0581  0.1327
26246W        W32846  20.891   0.447  35.980  0.0373  0.1096  0.2155
26247W        W32847   9.210   2.853  30.209 -0.1239  0.1612  0.1224
26248W        W32848  19.070   6.570  14.588 -0.1351 -0.2288 -0.0268
26249W        W32849  22.443   1.106  14.467  0.2611 -0.0147  0.1743
26250W        W32850  10.941   3.910   3.365 -0.3180 -0.1791 -0.0590
26251W        W32851   6.147   5.129  24.669  0.1665 -0.0682  0.0237
26252W        W32852  15.761   0.832   4.519 -0.2123 -0.1497  0.2229
26253W        W32853  25.028   0.985  24.625  0.1870 -0.2254 -0.0042
26254W        W32854  11.045   4.390  23.144  0.1650 -0.2950  0.2652
26255W        W32855  14.927   2.266  24.732 -0.0874  0.2347 -0.0231
26256W        W32856  24.588   3.572   8.927  0.1935 -0.1412 -0.0028
26257W        W32857  11.642   2.596   0.988  0.0097  0.0017 -0.2965
26258W        W32858  22.666   1.058   2.416 -0.0340  0.0289 -0.1139
26259W        W32859  13.553   6.473  13.681 -0.0695 -0.1916  0.2413
26260W        W32860  22.122   3.259  31.374  0.1663  0.0219  0.0155
26261W        W32861  19.388   2.709  23.421  0.4568 -0.0337 -0.0372
26262W        W32862  12.308   0.067  22.283 -0.0590  0.1122  0.1505
26263W        W32863   6.079   5.892  13.122  0.0296  0.1442 -0.1783
26264W        W32864  13.743   3.234  29.323 -0.0917  0.0348 -0.0549
26265W        W32865   9.874   2.910   9.954  0.0185  0.2631  0.0098
26266W        W32866   9.352   5.055  21.279  0.0345 -0.1007 -0.4004
26267W        W32867   5.752   5.336   1.386  0.3375  0.1886 -0.2251
26268W        W32868  14.217   3.817   2.426 -0.1801 -0.1922  0.2531
26269W        W32869  17.387   0.222  21.609 -0.0273  0.0264  0.2789
26270W        W32870  10.492   4.656  28.446  0.0147 -0.5562 -0.0816
26271W        W32871  16.781   5.580   8.043 -0.1686 -0.1868 -0.0535
26272W        W32872   6.111   1.516   1.276 -0.1412 -0.2905 -0.1962
26273W        W32873   5.730   0.126  28.879  0.1776  0.2340  0.2371
26274W        W32874  10.068   0.670   3.121 -0.1932 -0.0667 -0.0829
26275W        W32875  24.690   0.875  31.008 -0.0749 -0.1169 -0.2390
26276W        W32876  14.614   3.211  12.187  0.0323 -0.0714 -0.1016
26277W        W32877  13.156   3.595  13.586 -0.1282 -0.1560 -0.3918
26278W        W32878   3.574   2.045  35.577 -0.1237  0.1731  0.1907
26279W        W32879  20.914   0.999   6.018 -0.0745 -0.0964  0.3520
26280W        W32880  19.362   3.766  33.323  0.0591  0.0269 -0.3218
26281W        W32881   1.471   1.050   0.317  0.0323 -0.4364  0.1373
26282W        W32882  14.349   2.425  24.932  0.0275 -0.0251 -0.2495
26283W        W32883  16.046   6.035  31.350  0.0971  0.0653 -0.0724
26284W        W32884  20.478   6.023  32.958  0.2576  0.0220 -0.2068
26285W        W32885  14.536   1.149  15.347 -0.2769  0.3034  0.0100
26286W        W32886  21.958   5.767  10.482 -0.1483  0.0513  0.0006
26287W        W32887  23.754   0.342  32.846 -0.2601 -0.0319  0.0777
26288W        W32888  22.664   1.087  12.256  0.1347  0.1634  0.0604
26289W        W32889  17.513   2.205   6.262  0.2163  0.0004 -0.2244
26290W        W32890  14.505   4.939   2.953  0.0988 -0.2383  0.4778
26291W        W32891  22.156   6.330   6.655 -0.0057 -0.0555  0.1617
26292W        W32892   8.072   4.346   4.103  0.0308  0.2023 -0.1042
26293W        W32893   3.712   4.277  31.553  0.0318 -0.0627 -0.0019
26294W        W32894   8.259   1.198   7.349 -0.0478  0.3683  0.1656
26295W        W32895  22.800   6.261  26.827 -0.1393  0.2559 -0.3502
26296W        W32896  17.081   1.895  25.783 -0.2072  0.4042  0.0936
26297W        W32897  16.242   0.524   6.437 -0.0343 -0.0219  0.3099
26298W        W32898  20.788   2.111  29.384 -0.0561  0.0623  0.0305
26299W        W32899   2.016   3.902  31.000  0.0348  0.1030  0.0365
26300W        W32900   2.552   4.622  28.050  0.0083 -0.0030  0.2850
26301W        W32901   5.271   2.596   1.514  0.1117  0.0137  0.3473
26302W        W32902  19.359   2.120   4.869  0.2234 -0.2301  0.0962
26303W        W32903  23.092   3.918  30.889 -0.0131 -0.0058  0.0046
26304W        W32904  21.090   0.848   9.825 -0.2219 -0.2813  0.2152
26305W        W32905  14.227   0.404   3.787 -0.2338  0.2222 -0.1250
26306W        W32906  13.533   2.712  13.844 -0.3964 -0.0417  0.1132
26307W        W32907  16.517   5.880  21.206 -0.1651 -0.1813 -0.2204
26308W        W32908  11.165   4.443  12.276  0.1814 -0.1528 -0.0535
26309W        W32909   8.874   5.167  26.919 -0.0084  0.1283  0.2744
26310W        W32910  19.368   5.408  25.383  0.2175  0.2841 -0.0211
26311W        W32911   5.902   2.982  29.214  0.0718 -0.0602  0.0843
26312W        W32912  20.092   4.902  11.031  0.0429 -0.0619  0.1688
26313W        W32913  21.936   5.567   0.276 -0.2812 -0.0720 -0.2312
26314W        W32914  19.069   3.659  28.972 -0.3506 -0.1547 -0.1691
26315W        W32915  13.924   1.865  26.371 -0.3740 -0.0844 -0.1008
26316W        W32916  21.335   2.638  10.172 -0.1590 -0.0160 -0.3879
26317W        W32917   2.554   0.127   8.754  0.0710  0.0091  0.0183
26318W        W32918  14.247   2.540   7.338  0.2264  0.1547 -0.2105
26319W        W32919   8.067   1.024  11.408  0.5010  0.1798  0.3490
26320W        W32920  11.433   4.057   6.050  0.3373 -0.3278 -0.3229
26321W        W32921   4.215   2.885  30.945 -0.0728  0.0849  0.1089
26322W        W32922  13.555   1.269  30.490  0.3497 -0.0310  0.0317
26323W        W32923   5.864   4.391  10.434  0.2119 -0.0760  0.2324
26324W        W32924  19.157   1.164  34.340 -0.1459 -0.3135 -0.1191
26325W        W32925  22.029   1.792  32.445  0.1205 -0.2228  0.1644
26326W        W32926  19.778   3.474  21.392 -0.1499 -0.1422 -0.1071
26327W        W32927   2.883   4.732   6.989  0.0004 -0.1712 -0.0353
26328W        W32928   3.076   2.329  33.609 -0.3289 -0.3671 -0.1247
26329W        W32929  13.311   5.928  13.888  0.2554  0.1065  0.0324
26330W        W32930  14.807   3.371   7.431 -0.0668  0.1513  0.0225
26331W        W32931  19.030   0.061  11.763 -0.0004  0.0828 -0.1174
26332W        W32932  21.326   2.553  13.495  0.2633  0.0015  0.0465
26333W        W32933   4.976   2.352  29.200 -0.0452  0.0128  0.0114
26334W        W32934   2.036   5.751   4.062  0.0197 -0.2386  0.3758
26335W        W32935   8.919   2.778  21.449 -0.1081 -0.0030  0.1370
26336W        W32936   5.622   1.588   5.707  0.0984  0.0730 -0.0534
26337W        W32937  19.419   2.170   8.590  0.3103 -0.1467  0.1489
26338W        W32938  13.445   1.920  28.162  0.2090 -0.1326  0.3407
26339W        W32939  20.136   0.550  33.902 -0.0439  0.0293  0.0529
26340W        W32940   5.327   5.177  11.779  0.1992 -0.3619  0.1514
26341W        W32941  25.039   1.421  14.776 -0.0640  0.3037 -0.3231
26342W        W32942  26.140   2.827  21.317 -0.1206 -0.2212 -0.6159
26343W        W32943  26.134   4.635  24.654 -0.1150 -0.0065  0.1451
26344W        W32944   4.545   1.665  32.163 -0.3287 -0.1404 -0.3078
26345W        W32945  23.209   3.117  30.626 -0.1372 -0.0778 -0.0335
26346W        W32946  16.202   6.591  34.521  0.0050  0.0261 -0.1776
26347W        W32947  22.649   5.066  13.658 -0.0633 -0.0558  0.2788
26348W        W32948   4.691   1.074  33.459  0.2730  0.2480  0.2329
26349W        W32949  20.602   5.194   9.425 -0.1256 -0.1625  0.0189
26350W        W32950  25.845   6.494  24.556 -0.2987  0.1392  0.3335
26351W        W32951  13.182   0.701   4.909  0.0169 -0.2165  0.2485
26352W        W32952   9.644   0.723  24.660 -0.1624 -0.2018  0.0116
26353W        W32953  17.233   3.488  25.973 -0.1023 -0.3257 -0.1680
26354W        W32954  16.093   4.937  34.192 -0.1615  0.4684 -0.0456
26355W        W32955  13.476   4.172  10.861 -0.0065 -0.0469 -0.0141
26356W        W32956   1.887   4.663  23.662  0.0525  0.1523 -0.2513
26357W        W32957  15.716   5.051  23.069  0.1305  0.1016  0.1190
26358W        W32958  16.569   1.685  13.455 -0.2334  0.0902 -0.0163
26359W        W32959  10.449   0.480  23.130 -0.1324 -0.1014  0.3392
26360W        W32960   1.154   2.319  10.859 -0.0580  0.0562 -0.0085
26361W        W32961  22.159   4.202  21.730  0.1018 -0.1730  0.1134
26362W        W32962   4.903   2.730   6.362 -0.1303  0.0223  0.2218
26363W        W32963  22.899   4.029  34.316  0.0666  0.0735  0.0602
26364W        W32964  12.257   3.411   3.488  0.1105 -0.0127  0.0196
26365W        W32965   0.926   0.211   5.601  0.0779  0.1265  0.1155
26366W        W32966   9.174   1.214   5.880  0.0960  0.0911 -0.0132
26367W        W32967  19.634   2.949  28.463 -0.2232 -0.0669 -0.3324
26368W        W32968   4.573   3.347   3.751  0.3736 -0.3380 -0.0100
26369W        W32969  16.347   3.671   2.177 -0.1338 -0.1067 -0.0928
26370W        W32970   5.121   2.687  22.044  0.2252  0.0095 -0.0264
26371W        W32971  19.937   6.506  33.531  0.0079  0.0314  0.0462
26372W        W32972  16.684   5.483  10.965 -0.0805 -0.0776  0.5347
26373W        W32973  15.485   4.091  31.542  0.0554  0.2083 -0.0154
26374W        W32974   0.024   0.121  24.217 -0.0629  0.2123 -0.0750
26375W        W32975   6.916   4.336  11.583  0.1443  0.0360  0.3762
26376W        W32976   2.104   3.867  22.152 -0.0371  0.0273 -0.0052
26377W        W32977   4.019   2.356  29.540  0.2672  0.1275  0.0292
26378W        W32978  15.169   0.875  36.057 -0.2685 -0.0075 -0.2414
26379W        W32979   6.806   1.163   3.160 -0.1711 -0.0001  0.0666
26380W        W32980   9.237   3.459  31.556 -0.0983 -0.2593  0.0359
26381W        W32981   5.852   5.729  20.699  0.1098  0.2916  0.0143
26382W        W32982  25.795   0.506  22.893 -0.2612 -0.2494  0.1238
26383W        W32983   5.679   5.997   6.830 -0.0317  0.1254 -0.3611
26384W        W32984  22.183   4.125  29.140 -0.0330  0.0104  0.1556
26385W        W32985  12.164   5.481  32.134  0.0550  0.0593  0.0184
26386W        W32986  22.166   5.534  31.510  0.0091 -0.1803 -0.2487
26387W        W32987   0.070   5.017   1.375 -0.1959  0.2290  0.0349
26388W        W32988  11.126   1.959  28.722  0.2455 -0.0725  0.1417
26389W        W32989  18.477   5.137   5.182 -0.1211 -0.2695 -0.0476
26390W        W32990  16.143   3.062  26.570  0.1555 -0.2654 -0.0967
26391W        W32991  21.497   6.129  22.889 -0.1462 -0.0752  0.3747
26392W        W32992  21.135   0.536  13.426 -0.1713  0.2241 -0.1159
26393W        W32993   2.589   4.002   5.651 -0.0445  0.2302 -0.2688
26394W        W32994   3.510   3.098   8.298 -0.4788  0.1368  0.3193
26395W        W32995  23.288   5.610   6.722  0.2300 -0.0031  0.1098
26396W        W32996  25.483   5.484   8.112 -0.0790 -0.2566  0.2188
26397W        W32997  17.018   0.438   0.001 -0.0453 -0.0074  0.1736
26398W        W32998  24.629   6.577  28.352  0.2554  0.0508 -0.0738
26399W        W32999  15.315   5.435  33.851  0.0703  0.2125 -0.0169
26400W        W33000  19.307   4.025  11.532 -0.3127 -0.0859  0.0822
26401W        W33001  21.563   2.729  11.973 -0.2065 -0.1374 -0.2859
26402W        W33002  24.027   5.039   5.138  0.1250  0.1116 -0.0037
26403W        W33003  11.088   1.670  14.532  0.2486 -0.0753 -0.1161
26404W        W33004   1.479   2.842   7.355  0.0978  0.2544  0.2742
26405W        W33005  17.630   1.389  35.213 -0.0151 -0.0605 -0.1306
26406W        W33006  25.458   0.740  36.056  0.0551 -0.2098 -0.1564
26407W        W33007  10.305   6.351  22.117 -0.0315 -0.0932 -0.0524
26408W        W33008   0.301   1.181  12.067 -0.0716 -0.1133 -0.0145
26409W        W33009  15.214   1.339  27.939 -0.1599  0.0696  0.1944
26410W        W33010   8.840   2.474  21.895 -0.0697 -0.0461  0.0179
26411W        W33011   2.686   5.280  24.160  0.1634 -0.0898  0.2851
26412W        W33012   2.383   1.625  26.775  0.2779 -0.0659  0.2608
26413W        W33013  23.957   3.198  34.635  0.0070 -0.2741 -0.0759
26414W        W33014   3.492   5.989  21.499  0.2438  0.2110 -0.1266
26415W        W33015  24.026   5.984  27.697 -0.1518  0.2002 -0.1793
26416W        W33016  10.416   1.215  11.097  0.1455  0.1218  0.0185
26417W        W33017  22.272   0.504  34.554  0.1758  0.0196  0.0835
26418W        W33018  13.528   4.290  11.402 -0.0621  0.1979 -0.1242
26419W        W33019   8.353   1.418  14.520  0.0624  0.1909  0.1237
26420W        W33020  22.611   3.727  29.220 -0.0190  0.0022  0.0931
26421W        W33021  23.835   1.536   3.951  0.3539  0.1707  0.0780
26422W        W33022   6.939   5.380  34.495  0.1480 -0.3015 -0.1830
26423W        W33023  21.748   5.212  11.986  0.0695  0.0775 -0.2398
26424W        W33024   7.922   1.554   6.681  0.4070  0.0552  0.2287
26425W        W33025  12.052   1.869  33.409 -0.2601  0.1264  0.2503
26426W        W33026  22.246   1.218  12.502 -0.2383  0.1366 -0.1774
26427W        W33027   8.888   6.214  10.670  0.0022  0.0376  0.1358
26428W        W33028  22.219   3.063  13.767 -0.0852  0.0784 -0.0621
26429W        W33029  18.282   1.458   2.820  0.2723 -0.1684 -0.0327
26430W        W33030  19.356   0.570   7.619 -0.1703 -0.1797  0.2110
26431W        W33031  18.044   5.052  14.812 -0.1625 -0.3970  0.0387
26432W        W33032   3.072   3.947  14.506 -0.1319  0.0389 -0.1205
26433W        W33033   1.558   0.511  28.088 -0.1311 -0.0553  0.1326
26434W        W33034   4.922   4.413  13.334 -0.1719 -0.1235  0.1215
26435W        W33035  14.016   4.115  35.359  0.0256  0.0606  0.0247
26436W        W33036   1.787   5.919  25.674 -0.4192  0.4297  0.1461
26437W        W33037   8.676   3.217   4.296 -0.2643 -0.0763  0.0823
26438W        W33038  23.371   6.041   7.102  0.2404  0.0263  0.0069
26439W        W33039   8.492   6.101  29.591  0.3062 -0.0040  0.1426
26440W        W33040   6.138   5.669  31.263 -0.0158 -0.0270 -0.0501
26441W        W33041  10.173   4.723  15.325  0.1594  0.0928 -0.1236
26442W        W33042  19.876   5.610  21.425  0.1366  0.0354  0.0684
26443W        W33043  25.228   3.139  23.209  0.0705 -0.0582  0.1516
26444W        W33044   5.870   4.038  27.749 -0.2111 -0.1293 -0.0790
26445W        W33045  15.408   0.826  21.401  0.0893 -0.1954  0.0318
26446W        W33046  25.057   1.301  25.331 -0.0612  0.3163 -0.1900
26447W        W33047   7.572   0.507  23.958  0.0912  0.6305  0.0933
26448W        W33048   9.327   2.290  11.085 -0.1167 -0.2171  0.1788
26449W        W33049   6.439   5.913  14.487  0.3603 -0.1387  0.1119
26450W        W33050  15.117   0.044  25.706 -0.0141 -0.2173  0.3253
26451W        W33051  18.090   5.149  12.935  0.0615 -0.0495 -0.0694
26452W        W33052  11.014   3.066  28.057  0.0208  0.1726 -0.2661
26453W        W33053  24.204   4.698  26.285 -0.3130  0.4761 -0.0661
26454W        W33054  12.056   3.999  23.022  0.1027 -0.0428  0.1328
26455W        W33055   4.080   4.212   4.527 -0.2215 -0.1546  0.1496
26456W        W33056   3.466   0.295  29.096 -0.1418 -0.0491  0.0224
26457W        W33057   8.089   0.276   9.279  0.2242  0.0396 -0.1811
26458W        W33058   6.675   5.570   1.378 -0.1425  0.2252 -0.1375
26459W        W33059  10.232   5.571   9.923 -0.2027  0.0534 -0.0095
26460W        W33060  26.205   5.225  25.738 -0.1330  0.2169  0.1858
26461W        W33061  13.132   5.213  34.749  0.0575 -0.4893 -0.1245
26462W        W33062  21.272   0.648  34.327 -0.3205 -0.1537 -0.0954
26463W        W33063  16.399   4.590  13.361 -0.0429 -0.0384 -0.1224
26464W        W33064  25.935   5.101  28.523 -0.0635  0.2308  0.2371
26465W        W33065  18.174   4.572   6.076 -0.3154 -0.0324  0.0693
26466W        W33066  18.196   1.633  12.298 -0.0279 -0.2608 -0.1727
26467W        W33067  23.983   2.129  24.714  0.1249 -0.2048 -0.3695
26468W        W33068  23.278   0.568  23.393  0.0763 -0.1291  0.0695
26469W        W33069   5.883   0.124  10.443 -0.0605  0.1832 -0.0380
26470W        W33070  23.810   2.065   8.381  0.2202 -0.2211  0.1565
26471W        W33071  25.835   5.569  34.793  0.3819 -0.0788 -0.2049
26472W        W33072  14.847   3.445  14.008 -0.0553  0.0813  0.0431
26473W        W33073  11.807   0.932   3.090  0.0636  0.2864 -0.0604
26474W        W33074   9.766   2.864  32.725  0.0744  0.0934 -0.0106
26475W        W33075  13.176   0.919  34.521 -0.1956  0.0856  0.0201
26476W        W33076  14.960   3.995  25.147 -0.2142 -0.1967 -0.1314
26477W        W33077   8.515   3.225  26.971  0.2475  0.1431 -0.1326
26478W        W33078  22.757   5.556   9.466 -0.0840 -0.0128 -0.0335
26479W        W33079  15.399   1.237  11.883  0.0633  0.2230 -0.1977
26480W        W33080  20.477   5.271  10.420 -0.1188  0.0492  0.1858
26481W        W33081  23.840   4.097   8.914 -0.0213  0.2943 -0.0991
26482W        W33082  22.381   6.535  28.477 -0.0065  0.1175  0.0287
26483W        W33083   2.552   0.389  33.472  0.1418 -0.1948  0.0007
26484W        W33084   2.262   2.860  15.190 -0.0802 -0.1705  0.2534
26485W        W33085  12.305   2.737  10.372  0.0352  0.1600  0.3074
26486W        W33086   4.926   6.320  30.308  0.0893  0.1145 -0.0600
26487W        W33087  12.829   3.261  30.728  0.0745 -0.0204 -0.3986
26488W        W33088   3.842   4.521  35.048 -0.0455  0.1747  0.0898
26489W        W33089  16.412   3.681  27.120 -0.2482  0.1638 -0.2506
26490W        W33090  23.811   4.736   4.663 -0.1271 -0.0615 -0.1530
26491W        W33091   3.244   5.859  12.203  0.3054 -0.1432 -0.1354
26492W        W33092  20.922   0.421   4.554 -0.0423  0.1351 -0.1030
26493W        W33093  22.406   5.197   5.304 -0.3248 -0.1383  0.1132
26494W        W33094   4.987   0.295   8.664  0.1197  0.0347 -0.4413
26495W        W33095  16.169   6.523   4.783 -0.0051  0.1312 -0.1969
26496W        W33096  11.250   4.010   2.526 -0.0358  0.2672 -0.1208
26497W        W33097  16.624   3.797  23.796  0.1137  0.1423 -0.0714
26498W        W33098   9.200   6.011  14.340  0.0414  0.1749  0.2799
26499W        W33099   1.901   1.123  21.522  0.0372 -0.1114 -0.1199
26500W        W33100  20.476   5.291  25.573  0.0536  0.1565  0.0371
26501W        W33101  24.357   5.428  10.438 -0.1056 -0.0608  0.1405
26502W        W33102   7.283   4.521  21.489 -0.0603 -0.0003 -0.0189
26503W        W33103  24.240   1.441   5.473  0.0466  0.0974 -0.0830
26504W        W33104  26.219   4.620  25.209 -0.2333 -0.2694  0.3662
26505W        W33105   2.572   5.362  12.696 -0.0338  0.1653  0.1932
26506W        W33106  16.962   1.489  31.958 -0.1098 -0.1945  0.1171
26507W        W33107   1.541   2.116  25.359 -0.2195 -0.1201 -0.1818
26508W        W33108  25.894   2.882  31.631 -0.2929  0.1596  0.1759
26509W        W33109  11.411   3.571   3.427  0.0660 -0.0966 -0.0236
26510W        W33110   3.440   5.622  12.596 -0.2141  0.1485 -0.3123
26511W        W33111  14.710   5.821  11.418 -0.1208 -0.0112 -0.1018
26512W        W33112  16.422   4.323  28.625 -0.1734  0.4314 -0.0379
26513W        W33113   0.931   3.137   5.091  0.0005 -0.0372 -0.2695
26514W        W33114  21.120   5.106  15.767 -0.1269 -0.0673 -0.1134
26515W        W33115  19.115   0.675   4.693 -0.2204  0.0410  0.0009
26516W        W33116  16.135   4.212  10.903  0.0313 -0.1014  0.1845
26517W        W33117   5.586   5.653  30.239 -0.2631  0.0694  0.1735
26518W        W33118   1.219   5.305  24.060  0.1094 -0.1079 -0.0920
26519W        W33119   4.528   2.989   8.340  0.0030  0.1915  0.0437
26520W        W33120  17.586   4.202   8.440 -0.2364 -0.0047  0.2742
26521W        W33121  10.115   2.768  26.616  0.2345 -0.2114  0.0287
26522W        W33122  12.203   3.819  24.672  0.0413  0.0801  0.0361
26523W        W33123  22.419   3.990  33.407 -0.2822  0.0485 -0.1821
26524W        W33124   8.061   2.567  13.149  0.4922  0.3998 -0.0473
26525W        W33125   9.535   0.747  26.707 -0.1702  0.1643 -0.0138
26526W        W33126   2.913   0.797  36.006 -0.0003 -0.1793 -0.1244
26527W        W33127  25.032   1.265   2.831  0.0529  0.1848  0.2687
26528W        W33128   7.814   0.339  33.558 -0.0700  0.1176  0.2014
26529W        W33129   9.021   2.578  28.290  0.1163 -0.2127 -0.1081
26530W        W33130  17.266   5.612   1.917  0.0283 -0.3664 -0.0554
26531W        W33131   9.265   0.270  33.671 -0.0119 -0.3274  0.2059
26532W        W33132  22.907   0.955   8.188  0.0870  0.0083 -0.2255
26533W        W33133  11.165   5.527  15.499 -0.0256  0.0688 -0.1959
26534W        W33134   2.445   3.889  25.354 -0.0793 -0.1238  0.0097
26535W        W33135   1.340   1.794  12.259  0.2569  0.0708  0.0696
26536W        W33136  22.593   5.152  34.899 -0.0966  0.0455 -0.0930
26537W        W33137  20.780   4.572  32.747  0.1467  0.0477  0.0105
26538W        W33138   4.825   4.749   8.044  0.3301  0.3387  0.0351
26539W        W33139  15.812   0.388  27.807 -0.2616 -0.0501 -0.1601
26540W        W33140   2.169   3.598  13.681  0.0015 -0.2385 -0.0808
26541W        W33141  11.201   3.924  10.658 -0.0132 -0.1002  0.0278
26542W        W33142  18.821   0.259  22.639  0.1527  0.0535  0.0842
26543W        W33143   3.271   4.057  35.455 -0.0288  0.0611 -0.0832
26544W        W33144  25.070   3.437   7.375 -0.2443 -0.3500  0.0592
26545W        W33145  14.941   0.448   3.152 -0.3049 -0.3468 -0.1519
26546W        W33146  17.840   4.578  22.593 -0.1243  0.2386 -0.4010
26547W        W33147   6.091   4.189  30.148 -0.4319 -0.1591  0.2795
26548W        W33148  18.304   0.388   0.546 -0.1203 -0.1182 -0.1468
26549W        W33149  14.795   3.032   1.275  0.1435  0.1884 -0.1382
26550W        W33150   9.725   3.753  24.898 -0.1172 -0.0284  0.3640
26551W        W33151  10.029   2.605  33.066  0.0094 -0.1102 -0.0157
26552W        W33152  22.230   0.614  25.911 -0.2699 -0.2527 -0.1141
26553W        W33153  22.715   2.408   2.891 -0.1108 -0.2417  0.1128
26554W        W33154  10.956   6.269  12.884 -0.0935  0.0672 -0.0862
26555W        W33155   7.199   0.936  27.182  0.0468  0.0059 -0.0617
26556W        W33156  23.261   0.258  33.805 -0.3733  0.0435 -0.3164
26557W        W33157  11.703   1.875  11.659 -0.0558 -0.0352  0.4030
26558W        W33158  13.665   3.319   8.850 -0.7190  0.1266 -0.1647
26559W        W33159   5.783   5.179  33.858  0.1936  0.2157  0.2997
26560W        W33160   2.596   3.369  24.273  0.0383 -0.0672  0.0703
26561W        W33161   9.118   4.367  23.012 -0.1234 -0.0265 -0.0360
26562W        W33162  22.169   4.163  31.043  0.0395  0.0111 -0.0441
26563W        W33163   1.522   4.680   9.330  0.1421 -0.0552  0.0843
26564W        W33164   3.778   3.429  29.658  0.2507  0.3303 -0.2314
26565W        W33165  18.751   2.493  15.123 -0.2005 -0.2104 -0.2963
26566W        W33166  16.108   0.952   1.760  0.0577  0.0840  0.0003
26567W        W33167  25.682   2.161   0.303  0.2131  0.1556  0.2369
26568W        W33168  11.929   4.974  23.865 -0.1657 -0.0314 -0.0780
26569W        W33169  22.666   0.292  25.172 -0.0037  0.2954  0.1831
26570W        W33170  11.276   6.312  31.395 -0.1569 -0.1155 -0.3171
26571W        W33171   2.579   5.850  20.828  0.6130  0.2793 -0.1077
26572W        W33172  15.110   3.213  26.559  0.2518  0.0917  0.0182
26573W        W33173  24.038   0.010   6.815  0.2261 -0.1218 -0.1826
26574W        W33174  11.169   4.716  33.025 -0.2646  0.0627  0.1246
26575W        W33175  16.040   4.213  29.828  0.0499 -0.0253  0.0829
26576W        W33176   8.632   0.897   6.406 -0.0630 -0.1957 -0.1400
26577W        W33177  23.000   0.359  21.922  0.1677 -0.2557  0.2079
26578W        W33178   5.589   4.963   7.294  0.0222  0.1097 -0.0291
26579W        W33179   0.217   0.600  10.706 -0.0058  0.2658  0.0677
26580W        W33180  14.184   2.621  14.761 -0.1561  0.4316 -0.1115
26581W        W33181  22.110   1.959  13.298  0.0874 -0.0350 -0.0429
26582W        W33182  16.192   4.858   4.056 -0.2286 -0.0573 -0.1139
26583W        W33183   5.728   3.615   0.251 -0.2875  0.2039  0.3625
26584W        W33184  18.029   1.666   9.735 -0.2668 -0.0098 -0.1118
26585W        W33185  23.100   1.612   4.483 -0.2412  0.0289 -0.1130
26586W        W33186   4.633   4.852  23.697 -0.1737 -0.2075 -0.3430
26587W        W33187   2.155   6.471   3.982 -0.2241  0.1602 -0.1166
26588W        W33188  12.369   3.828  14.212  0.0536  0.0991  0.1389
26589W        W33189  13.979   5.798   0.168 -0.0106  0.0552  0.0537
26590W        W33190   7.408   3.747   6.819 -0.0963 -0.0540  0.0393
26591W        W33191   7.997   3.186  25.614  0.1770 -0.0948  0.1644
26592W        W33192  15.078   4.838   6.552  0.0507  0.0085  0.1174
26593W        W33193   5.164   3.233  33.113  0.2841 -0.0400 -0.0627
26594W        W33194   4.122   3.712  23.343 -0.1681 -0.4220 -0.0343
26595W        W33195  12.350   3.147  11.694 -0.2768  0.1254 -0.0840
26596W        W33196  21.800   2.311  25.567 -0.0230  0.1994 -0.2529
26597W        W33197  21.524   4.897  28.386  0.0054  0.0578 -0.1684
26598W        W33198  12.149   0.308  10.724  0.0347 -0.0823 -0.3955
26599W        W33199  13.929   5.207   4.231 -0.2964 -0.0214 -0.1573
26600W        W33200  23.137   4.907  31.210  0.1637 -0.3406 -0.1266
26601W        W33201   9.840   4.916  21.460  0.0976  0.1800 -0.1371
26602W        W33202  12.080   2.984   6.129  0.1364 -0.0563  0.1122
26603W        W33203  12.928   2.859  35.118 -0.1847  0.3376  0.1448
26604W        W33204   0.212   3.676  30.730  0.2803  0.0339 -0.3884
26605W        W33205  12.571   3.048  24.537 -0.0447 -0.0113  0.1303
26606W        W33206   4.825   4.520  34.470 -0.3467 -0.0976 -0.2560
26607W        W33207  19.311   5.991   9.255 -0.0327  0.2126 -0.0649
26608W        W33208  23.365   4.229   8.039  0.1847  0.1067  0.3007
26609W        W33209  22.177   3.606   4.207 -0.0724  0.0739  0.3680
26610W        W33210  14.310   0.436  28.623 -0.1517  0.0475  0.1673
26611W        W33211  24.414   0.345  28.117 -0.0610 -0.2068 -0.1435
26612W        W33212  20.846   1.587  29.345 -0.0727  0.0776  0.1246
26613W        W33213   2.601   5.470  25.674 -0.0654 -0.2498  0.1173
26614W        W33214   6.933   0.212   9.134 -0.2535 -0.3455  0.1336
26615W        W33215   6.413   5.854   5.826  0.1408  0.1646 -0.5039
26616W        W33216  13.963   4.134   2.710  0.0394  0.0261 -0.4711
26617W        W33217   5.481   3.283  22.553  0.0100  0.1135 -0.0417
26618W        W33218   4.261   4.528  29.916 -0.0117  0.2509  0.1490
26619W        W33219   6.935   4.522   4.360  0.0234 -0.1000  0.0335
26620W        W33220  15.980   1.288   0.113 -0.0584 -0.0157  0.0155
26621W        W33221  22.286   5.957  32.501  0.1085 -0.0104 -0.1656
26622W        W33222  22.612   4.145  25.647 -0.0414  0.0952 -0.2269
26623W        W33223  22.879   4.965   4.468 -0.3502  0.4287 -0.0419
26624W        W33224   9.202   2.828  15.213  0.0847 -0.2259  0.0359
26625W        W33225  16.459   5.791  22.830 -0.1722 -0.0651 -0.4824
26626W        W33226   9.003   1.963   4.892  0.0297  0.2091  0.0415
26627W        W33227  10.549   1.607  33.470 -0.1665  0.3003 -0.2177
26628W        W33228  11.927   6.348   4.389  0.0037  0.1811 -0.1615
26629W        W33229  25.558   2.535  31.438 -0.0533  0.3844 -0.1707
26630W        W33230   1.434   1.201   2.005  0.0449  0.1537  0.0804
26631W        W33231  22.110   5.310  34.824  0.1618 -0.0849 -0.0700
26632W        W33232  17.629   3.262   2.198 -0.1941 -0.1078  0.1873
26633W        W33233  12.316   0.124  12.825 -0.6077  0.2048 -0.3622
26634W        W33234  19.259   1.788  24.797 -0.3080 -0.1130 -0.0807
26635W        W33235  24.620   5.681   0.155 -0.1350 -0.1930 -0.3951
26636W        W33236   2.820   2.908  34.793  0.2456  0.0644  0.2475
26637W        W33237  22.953   3.665  31.282  0.1438 -0.2779 -0.0770
26638W        W33238  20.502   6.327  24.310 -0.1702 -0.0984 -0.2122
26639W        W33239   5.367   1.728  35.164  0.0385  0.1082 -0.0612
26640W        W33240   0.074   5.445   7.916  0.2054 -0.3393  0.0120
26641W        W33241  21.005   0.779  33.935  0.0220 -0.2221 -0.1167
26642W        W33242   7.364   2.800  10.702  0.2392  0.0315 -0.1700
26643W        W33243   3.254   1.593  10.557  0.0704 -0.2281  0.1300
26644W        W33244   5.363   5.997  20.801  0.0693  0.1589  0.1932
26645W        W33245  12.126   1.923  12.209 -0.3418  0.0576 -0.1357
26646W        W33246  18.730   1.217   8.766 -0.1466  0.3912 -0.2029
26647W        W33247  23.915   1.075  34.621 -0.0757 -0.3976  0.1770
26648W        W33248   1.035   0.609  31.280  0.0269 -0.0793 -0.1549
26649W        W33249  16.302   3.938  34.031  0.0986 -0.2989  0.2600
26650W        W33250  23.293   1.457  27.935  0.1990 -0.4914  0.0022
26651W        W33251  17.740   0.392   8.957 -0.0695 -0.0625 -0.0595
26652W        W33252  22.223   4.720  25.141 -0.1299 -0.3465 -0.0848
26653W        W33253  10.694   2.644  26.755 -0.1299 -0.1414  0.2221
26654W        W33254   4.811   3.427   6.759  0.0367 -0.0231 -0.3175
26655W        W33255   8.861   2.859   8.373  0.1770  0.1099 -0.3517
26656W        W33256   2.237   6.168   4.412 -0.0669 -0.0315  0.3080
26657W        W33257  12.406   5.668  21.606  0.2482  0.0272 -0.1788
26658W        W33258   2.537   3.910  14.342  0.1269 -0.0380  0.1501
26659W        W33259   4.589   6.575  29.626 -0.0001  0.0104 -0.2520
26660W        W33260  22.854   6.106   7.694 -0.0532 -0.1032  0.1103
26661W        W33261  23.562   4.150  29.061 -0.1212  0.1625  0.2036
26662W        W33262   2.609   1.678   6.499  0.0290 -0.3565 -0.1548
26663W        W33263   0.964   6.211  32.741  0.0566  0.1088 -0.1014
26664W        W33264  16.134   3.965  25.457  0.2113  0.0518 -0.1073
26665W        W33265   0.792   6.368   2.090  0.1937  0.0578  0.1885
26666W        W33266  22.135   5.559  30.837 -0.0261  0.2142  0.3022
26667W        W33267  18.376   2.807  23.445  0.0538  0.0112 -0.0611
26668W        W33268   7.184   2.177  25.152 -0.3838  0.0034  0.2413
26669W        W33269  22.415   1.318  25.842  0.2788 -0.2180  0.5669
26670W        W33270   0.593   6.293  22.880  0.1302  0.0258  0.1532
26671W        W33271  12.413   2.570  11.769  0.0072 -0.1623  0.1012
26672W        W33272   4.954   0.982  33.877 -0.2139  0.1096  0.0710
26673W        W33273  14.357   2.795  12.517  0.3719  0.0393 -0.1413
26674W        W33274  25.160   3.426   7.900  0.1640 -0.0729 -0.1870
26675W        W33275   8.687   0.257  27.987  0.0499  0.0423 -0.1871
26676W        W33276   2.968   0.768  32.972 -0.0427 -0.0330 -0.1138
26677W        W33277  19.640   1.234  34.111  0.1515  0.1103 -0.2586
26678W        W33278  21.215   5.506  26.892 -0.0354  0.0893  0.0002
26679W        W33279  23.114   3.061  11.575  0.1636  0.2019 -0.3426
26680W        W33280  19.954   5.064  12.952  0.1217  0.0388  0.1986
26681W        W33281  23.200   2.175   9.780  0.2713 -0.0411 -0.0386
26682W        W33282  25.435   5.482  11.839  0.2972  0.2946  0.0167
26683W        W33283  19.647   0.117  27.194 -0.1005 -0.0595  0.3608
26684W        W33284  12.326   4.739  35.710  0.0380  0.1764 -0.1916
26685W        W33285   9.488   0.160  28.671  0.0001 -0.1277  0.2199
26686W        W33286   6.833   5.274  21.643  0.0189  0.0591  0.1250
26687W        W33287  13.899   6.235  11.110 -0.0874  0.0306  0.0725
26688W        W33288  23.025   0.135   2.189  0.0558 -0.0545 -0.1141
26689W        W33289  14.986   6.351  23.612  0.0090  0.0340  0.0797
26690W        W33290  11.896   4.835   3.275 -0.0726 -0.0202  0.1426
26691W        W33291   6.060   1.013  23.536  0.1600 -0.1253  0.2707
26692W        W33292   0.472   5.680  25.621 -0.2865  0.0515 -0.0984
26693W        W33293   3.603   4.886  26.717  0.0062  0.2454  0.0240
26694W        W33294  14.728   0.596  10.319 -0.2136 -0.4280  0.0775
26695W        W33295  24.536   4.758  35.104  0.0274 -0.5095 -0.0398
26696W        W33296  13.998   5.420  20.820 -0.1783  0.0733  0.0284
26697W        W33297  12.165   1.859  26.383 -0.0776 -0.2106  0.0013
26698W        W33298  23.028   4.622  25.002 -0.1261 -0.0529  0.2124
26699W        W33299  13.283   5.169  32.908  0.0390  0.0412 -0.0298
26700W        W33300  17.531   5.626   7.487 -0.0927 -0.1293  0.1347
26701W        W33301  11.109   5.205   4.108 -0.0373 -0.1979 -0.0622
26702W        W33302  12.544   5.692  24.607  0.0668 -0.0828 -0.0216
26703W        W33303  10.623   4.459  35.277 -0.0605 -0.1474  0.2575
26704W        W33304  18.617   2.300  31.522  0.0844 -0.1070  0.0357
26705W        W33305   8.130   3.481  28.982  0.0306  0.1291  0.2940
26706W        W33306   8.649   3.104  14.278  0.1206 -0.1194  0.2586
26707W        W33307  13.825   4.727   4.321 -0.2618 -0.0084  0.1214
26708W        W33308  25.502   1.817   3.848  0.1512 -0.1837 -0.4138
26709W        W33309  13.974   5.053  28.207 -0.0182 -0.2569 -0.0922
26710W        W33310  20.833   5.849   6.153 -0.0493 -0.2524  0.2407
26711W        W33311   7.475   3.634   8.845  0.0209 -0.1475  0.1378
26712W        W33312  21.702   1.199   0.684 -0.0316 -0.2927 -0.0182
26713W        W33313   5.150   4.415  32.656  0.2853  0.3219 -0.1008
26714W        W33314   9.797   1.202  26.785  0.1110  0.0707 -0.1669
26715W        W33315  19.972   5.167   2.887  0.1430  0.3547  0.1874
26716W        W33316   9.578   2.911  34.226  0.6549  0.0811  0.0347
26717W        W33317   8.111   1.869   4.733 -0.0184  0.0266 -0.2586
26718W        W33318   5.186   2.277  12.119  0.1051  0.0743 -0.0730
26719W        W33319   1.757   5.595  27.465 -0.0423 -0.2213 -0.0325
26720W        W33320  18.644   1.389  21.235 -0.0611  0.3656  0.2326
26721W        W33321  21.787   4.153   1.340 -0.2534 -0.0809  0.2118
26722W        W33322  22.603   2.471  27.169 -0.0412 -0.2138 -0.1472
26723W        W33323  24.408   4.625  26.891  0.2589  0.0261 -0.3149
26724W        W33324   8.243   1.189  25.606  0.1389  0.0561  0.1530
26725W        W33325  15.939   4.404  28.417 -0.1694  0.0736  0.1350
26726W        W33326  15.157   5.908  12.814 -0.0237 -0.0357  0.2397
26727W        W33327   6.921   3.189  10.005 -0.0790 -0.0721 -0.1120
26728W        W33328  21.041   3.335  29.627  0.1296  0.0505  0.2838
26729W        W33329   1.166   3.153   6.689  0.0180  0.0542 -0.2471
26730W        W33330   5.775   3.802  11.023 -0.2282  0.0776 -0.0356
26731W        W33331  19.983   2.476  13.414 -0.2104  0.0829  0.0099
26732W        W33332   0.200   5.524   4.892 -0.0150 -0.1172  0.2224
26733W        W33333  20.016   4.257   0.628  0.0478  0.1843 -0.0346
26734W        W33334  14.360   0.861   4.400 -0.2201  0.4161  0.0334
26735W        W33335   0.633   0.981  21.772  0.1375 -0.0103  0.2012
26736W        W33336  24.705   4.568  15.130 -0.0732 -0.0362  0.0103
26737W        W33337  12.958   1.517   8.185  0.0224  0.1044 -0.1042
26738W        W33338  25.927   3.796  15.378 -0.0997 -0.1967 -0.2290
26739W        W33339  13.193   1.357   4.122 -0.1378 -0.1446  0.0710
26740W        W33340  14.730   5.103   2.563  0.0385 -0.1676 -0.1694
26741W        W33341  24.049   6.459  27.640  0.0074 -0.3186  0.0824
26742W        W33342  11.075   2.299  27.709 -0.0344  0.0070  0.3693
26743W        W33343   8.931   1.167  23.724  0.2194  0.1754  0.0592
26744W        W33344  18.495   2.108  33.810 -0.2279  0.1231  0.2912
26745W        W33345  11.263   0.592  12.374 -0.2027 -0.3009 -0.2851
26746W        W33346   6.048   4.099  33.923 -0.0763  0.1823 -0.1245
26747W        W33347  16.626   4.100   8.203 -0.2112  0.2408 -0.0202
26748W        W33348   2.625   2.211  33.445 -0.0264  0.0036 -0.1068
26749W        W33349   4.517   3.002  24.011  0.0948 -0.2125 -0.0153
26750W        W33350   0.882   1.138   0.047  0.3739 -0.1284  0.2792
26751W        W33351   4.621   2.715   0.153  0.0088 -0.1546 -0.2522
26752W        W33352  14.005   2.034  10.797  0.0905  0.0082  0.0545
26753W        W33353   4.363   6.052  10.940 -0.4612 -0.0206  0.2537
26754W        W33354  24.707   6.020   7.830 -0.2262  0.2958 -0.0784
26755W        W33355  16.033   3.763  30.036 -0.2269  0.1736  0.0759
26756W        W33356  11.658   6.028  27.184 -0.0942 -0.1871  0.1718
26757W        W33357  19.421   6.318  11.742 -0.1553  0.2336  0.0500
26758W        W33358   7.949   6.531  23.357 -0.0613  0.1516  0.0371
26759W        W33359   9.808   3.808  13.771 -0.1521  0.3154  0.1650
26760W        W33360  16.702   4.220  30.596 -0.2551 -0.0040  0.1188
26761W        W33361  14.983   2.877  10.275 -0.1251 -0.0912  0.0490
26762W        W33362   7.170   4.946  14.194 -0.0366 -0.2938 -0.2984
26763W        W33363   0.337   4.663   6.796 -0.0300 -0.0653 -0.1648
26764W        W33364  20.115   2.759  22.766  0.0678 -0.1090 -0.0295
26765W        W33365   1.392   2.382  14.414 -0.0450 -0.1368 -0.0297
26766W        W33366   0.696   2.364   1.547  0.2834  0.0458  0.0273
26767W        W33367  12.983   1.114   1.871  0.1263  0.0111  0.2460
26768W        W33368  20.844   2.952  15.443  0.2932 -0.0529 -0.1830
26769W        W33369  23.492   5.035  11.433 -0.3383 -0.0798 -0.0008
26770W        W33370  10.981   4.807  35.561  0.2650 -0.1391  0.2068
26771W        W33371  11.282   1.916  22.452  0.0333 -0.0579 -0.0752
26772W        W33372  21.066   3.881  34.135  0.0015  0.2716  0.0019
26773W        W33373   5.520   4.834   8.656  0.0201  0.1829 -0.2011
26774W        W33374  19.418   6.499   3.385  0.1164  0.1895  0.0149
26775W        W33375   0.586   3.344  23.506  0.0566  0.1552 -0.3627
26776W        W33376  19.280   5.336   5.685  0.0746 -0.0178 -0.0541
26777W        W33377   1.948   4.941  14.561 -0.2704 -0.0446  0.0605
26778W        W33378   8.711   6.376  22.821  0.2586  0.2931 -0.0774
26779W        W33379  24.691   4.079  28.162 -0.3015 -0.0392  0.2548
26780W        W33380  17.666   3.917  30.777 -0.1705  0.3466 -0.2354
26781W        W33381  13.947   6.309  33.137  0.2977  0.0212  0.1318
26782W        W33382  19.961   0.699   9.502 -0.0454 -0.0635 -0.0246
26783W        W33383   4.363   6.003  27.816  0.1630  0.1309 -0.0258
26784W        W33384  18.963   2.077   2.263  0.0393 -0.3088 -0.1174
26785W        W33385   0.783   1.087  30.605 -0.1335 -0.0450  0.0410
26786W        W33386  23.493   0.134  13.531  0.1797 -0.2112 -0.3403
26787W        W33387  15.786   1.792   8.748 -0.0535 -0.0987  0.1301
26788W        W33388  24.270   3.710  20.882  0.0020 -0.0193 -0.2903
26789W        W33389   5.631   3.402   0.769  0.1618  0.0985 -0.0024
26790W        W33390   1.886   4.610  32.498  0.0413 -0.1490 -0.1451
26791W        W33391  25.962   2.757  35.716  0.0762 -0.1361 -0.0177
26792W        W33392  10.254   0.476  32.776  0.1598  0.1006  0.0448
26793W        W33393  16.893   2.765  30.058  0.0051  0.0133 -0.0817
26794W        W33394   9.461   1.992  30.024  0.1939 -0.2506 -0.1095
26795W        W33395  26.325   2.169  20.826  0.1223  0.0320  0.0624
26796W        W33396   7.719   5.402  10.203  0.1539  0.1238 -0.0270
26797W        W33397   0.072   3.441  27.831  0.1466 -0.0858 -0.1018
26798W        W33398   4.368   1.391   7.824  0.0174  0.1455  0.3031
26799W        W33399  13.752   1.784  23.767 -0.1667  0.1623 -0.0623
26800W        W33400   5.796   5.874  27.402 -0.1574 -0.1565 -0.0155
26801W        W33401   8.650   0.997   5.787 -0.2489 -0.1312 -0.0664
26802W        W33402   4.994   1.562  33.445 -0.2252 -0.0458  0.0345
26803W        W33403   6.799   2.132   7.167  0.1095 -0.2390 -0.1261
26804W        W33404  16.121   6.434  35.931  0.3419 -0.2555  0.1925
26805W        W33405   3.690   2.017  28.676 -0.0326  0.0894  0.1673
26806W        W33406   8.746   5.388  30.002 -0.2310 -0.0204 -0.0421
26807W        W33407  17.159   1.281   6.775  0.3692 -0.4184 -0.1069
26808W        W33408   9.186   0.090  13.145  0.1966  0.0055  0.0794
26809W        W33409   7.890   4.959  26.521  0.3121 -0.0790 -0.2458
26810W        W33410  15.735   0.990   8.314  0.1284 -0.4545 -0.2208
26811W        W33411   1.786   6.125   3.797 -0.0690 -0.0608  0.5660
26812W        W33412  17.297   6.545   2.687 -0.1038  0.1539 -0.2361
26813W        W33413   3.094   4.533  30.503 -0.2642 -0.0120 -0.1467
26814W        W33414  21.233   4.778  23.713 -0.0165 -0.1308 -0.1678
26815W        W33415   9.679   5.679  30.976  0.0532 -0.2458  0.3400
26816W        W33416   7.569   4.663  34.013  0.0916 -0.0104  0.2875
26817W        W33417   1.109   2.247   9.194  0.3342 -0.2681 -0.3826
26818W        W33418  20.405   3.987   1.401 -0.3174 -0.0942 -0.2383
26819W        W33419  20.417   4.788   9.248  0.1620 -0.3763  0.2635
26820W        W33420  17.636   2.271   3.241 -0.1550 -0.0702  0.2815
26821W        W33421  12.349   1.556  13.108 -0.0725 -0.3645  0.0804
26822W        W33422  10.245   6.595  35.213  0.2615 -0.0607 -0.0502
26823W        W33423  19.012   4.418  13.611  0.1583  0.0115  0.0506
26824W        W33424  22.110   2.371  34.748 -0.0700 -0.4718  0.0770
26825W        W33425  19.000   5.774  31.269 -0.0087 -0.0868  0.0235
26826W        W33426  17.950   1.240  29.324 -0.0417  0.0644  0.0050
26827W        W33427  13.154   2.026   2.875  0.1929 -0.1502  0.0669
26828W        W33428   0.841   1.156  34.642 -0.2631  0.2629 -0.2713
26829W        W33429  23.204   4.165  29.490 -0.1742 -0.1350  0.3569
26830W        W33430   8.576   4.035   0.056 -0.1210 -0.1993 -0.3674
26831W        W33431  21.143   4.011  11.102 -0.1316  0.0372  0.0904
26832W        W33432  22.429   4.069   6.487  0.4078  0.0320 -0.0243
26833W        W33433   2.301   0.406  23.175 -0.0849  0.0531 -0.0816
26834W        W33434  22.689   6.394  25.035 -0.1888 -0.0792  0.1251
26835W        W33435   4.236   2.936   9.240 -0.0720  0.2296 -0.0714
26836W        W33436  21.741   0.688   0.425  0.0083  0.0667 -0.1254
26837W        W33437  19.989   3.450   6.299 -0.1690 -0.0337 -0.4671
26838W        W33438  17.890   2.328  22.045  0.1087  0.0256 -0.1024
26839W        W33439   7.679   3.040   5.903  0.1540 -0.0121 -0.2165
26840W        W33440   1.293   3.474  22.211  0.0415  0.0613  0.1222
26841W        W33441   0.446   2.428  26.117 -0.2440 -0.1790  0.3557
26842W        W33442  14.906   4.123  34.229  0.5553  0.0701 -0.0941
26843W        W33443   6.436   3.777  23.423  0.2926 -0.0071  0.0050
26844W        W33444  22.990   5.234  12.553  0.0662  0.1415 -0.3248
26845W        W33445  14.956   3.568  12.923  0.1346  0.1198  0.1564
26846W        W33446  15.597   3.590   7.040 -0.0486  0.0408  0.2957
26847W        W33447  15.030   5.021   7.020 -0.1629 -0.1858 -0.1933
26848W        W33448  16.459   6.347  22.688 -0.3247  0.1471 -0.0850
26849W        W33449  16.010   5.047   6.673  0.2024  0.1496  0.0867
26850W        W33450  24.172   0.072  32.745 -0.1898 -0.1934  0.0998
26851W        W33451   9.649   0.324  27.608 -0.1468  0.2832 -0.1640
26852W        W33452   4.677   3.874   8.043 -0.0041  0.2432 -0.1897
26853W        W33453  11.372   4.336  34.441 -0.1482  0.4826 -0.1103
26854W        W33454  21.916   5.793  34.997  0.1803 -0.4102  0.3248
26855W        W33455   8.769   1.581  34.764  0.1941 -0.0622  0.1197
26856W        W33456  13.090   3.096  32.093 -0.0109  0.0402 -0.1621
26857W        W33457  21.186   0.505  13.930  0.1101 -0.1980 -0.0007
26858W        W33458   7.938   6.408  33.669  0.0160 -0.2851  0.0383
26859W        W33459  12.153   4.080  27.280  0.0599  0.0606 -0.3167
26860W        W33460  24.501   3.664   4.947 -0.0381  0.1085  0.0841
26861W        W33461  23.348   5.011   1.177  0.0096  0.0627 -0.3019
26862W        W33462  23.354   5.242  15.498  0.2180 -0.3367  0.1801
26863W        W33463   2.499   0.929   6.681  0.1243 -0.0948  0.1647
26864W        W33464  25.388   1.794   6.319 -0.0308 -0.0389  0.2450
26865W        W33465  12.438   2.206  33.687  0.0418 -0.2681 -0.1093
26866W        W33466  14.542   6.275  22.941  0.0355  0.1486  0.0454
26867W        W33467   2.180   4.663   6.328 -0.1010 -0.1737  0.0194
26868W        W33468  13.254   0.220  30.936  0.0847 -0.1884 -0.4275
26869W        W33469  10.531   0.753  24.347  0.1825 -0.0811  0.0217
26870W        W33470  13.769   5.937  10.181 -0.1664  0.1721 -0.0340
26871W        W33471   7.713   2.202  24.030  0.2011  0.0070 -0.1386
26872W        W33472   5.148   2.701  11.168  0.0663  0.2401  0.3282
26873W        W33473  13.512   0.429  12.351 -0.2478  0.0010  0.0474
26874W        W33474  23.271   0.195  28.635  0.1897 -0.1495  0.1379
26875W        W33475   7.322   2.179  26.371 -0.2193 -0.0615 -0.2346
26876W        W33476  16.795   2.378   5.934  0.1141  0.2373  0.0577
26877W        W33477  25.790   1.792  28.879 -0.1840 -0.0721 -0.1566
26878W        W33478  14.898   1.579  13.637 -0.1012 -0.0318  0.2008
26879W        W33479  16.078   3.047  12.007 -0.1597 -0.2665 -0.1788
26880W        W33480  26.153   1.372  28.852 -0.1044 -0.0344  0.0692
26881W        W33481  19.287   0.139  35.142  0.1145  0.0974 -0.0093
26882W        W33482  18.502   4.163   2.893  0.2956 -0.3064 -0.1075
26883W        W33483  24.370   1.694  11.807 -0.2296  0.0364 -0.0383
26884W        W33484   3.296   2.235  13.042  0.2619 -0.0119  0.3721
26885W        W33485  14.541   2.013   5.762  0.3706 -0.2260 -0.1416
26886W        W33486   5.097   0.506  24.457 -0.0043 -0.0347 -0.2883
26887W        W33487   4.715   4.271  15.026 -0.1037  0.1239  0.1326
26888W        W33488   4.807   1.822  11.185  0.1518 -0.2252 -0.0116
26889W        W33489  14.258   2.031  29.896  0.0391  0.0462 -0.3159
26890W        W33490   8.664   3.531  21.054 -0.0873  0.2007  0.0064
26891W        W33491   8.642   5.214  30.875 -0.2171 -0.1385 -0.2683
26892W        W33492  14.132   1.686  35.488  0.1812  0.0889  0.1274
26893W        W33493   7.454   2.313   9.089 -0.0210 -0.2358  0.0581
26894W        W33494   5.697   0.025   5.982 -0.0736  0.1115  0.0109
26895W        W33495   5.843   0.640  16.129 -0.1257  0.3751  0.4180
26896W        W33496   5.713   2.452  15.666  0.1094  0.0563  0.0633
26897W        W33497  21.026   6.243  22.102 -0.0478 -0.1782  0.1931
26898W        W33498   3.570   1.331  24.153 -0.1991 -0.2749  0.1359
26899W        W33499  23.973   5.108  16.032 -0.1668 -0.1171  0.0779
26900W        W33500  14.938   5.211  28.716 -0.5132 -0.0179 -0.2428
26901W        W33501  22.328   4.633  29.029 -0.3799 -0.1062  0.0552
26902W        W33502   0.068   4.569  32.083  0.0901 -0.1752  0.0946
26903W        W33503  23.819   2.937   5.803  0.2584  0.2068  0.1988
26904W        W33504  14.408   3.140  28.427 -0.1227 -0.1885 -0.0066
26905W        W33505  20.541   3.109  26.919  0.0412  0.0598 -0.2014
26906W        W33506  24.024   3.500   4.973 -0.1724 -0.0136 -0.1817
26907W        W33507  10.119   0.625  25.014  0.0784 -0.1142  0.1801
26908W        W33508  19.052   0.610   3.133  0.3007 -0.0832  0.1156
26909W        W33509  14.027   1.605  35.978 -0.1048  0.2411 -0.0237
26910W        W33510  11.230   0.435   5.415 -0.0586  0.0610  0.2040
26911W        W33511  15.608   4.848   1.195  0.0317  0.1280 -0.1693
26912W        W33512  18.033   2.680   8.872  0.1015 -0.0545  0.1549
26913W        W33513   0.819   5.098   0.510 -0.0212 -0.0978 -0.2683
26914W        W33514   7.506   1.876  34.126 -0.2638  0.2502  0.2939
26915W        W33515  16.507   1.775   4.900 -0.0250  0.1856  0.2054
26916W        W33516  25.651   1.231  32.961  0.1765  0.0746  0.0954
26917W        W33517  13.108   1.569  11.753 -0.2755 -0.3090  0.5147
26918W        W33518  15.590   0.039  16.043  0.0987  0.2851  0.1999
26919W        W33519  14.733   1.033  30.075  0.0350  0.4012  0.0971
26920W        W33520  19.396   1.009   0.956  0.1374 -0.0694 -0.1363
26921W        W33521  20.824   0.700  24.692  0.0715 -0.1787  0.0213
26922W        W33522  23.220   3.768   6.520 -0.1596  0.1643 -0.0653
26923W        W33523  10.016   0.238  29.679 -0.1414  0.2688  0.0308
26924W        W33524   6.254   4.641  25.942 -0.0399  0.1786 -0.2957
26925W        W33525   8.988   2.043  25.353  0.2047  0.0010 -0.1894
26926W        W33526  19.236   5.871  29.917  0.0519  0.1820 -0.0799
26927W        W33527  20.609   2.119  11.092 -0.0660 -0.1547 -0.0165
26928W        W33528  24.929   3.193  26.773  0.0759  0.0185 -0.0011
26929W        W33529   6.526   5.577   6.484  0.0051  0.0081 -0.2175
26930W        W33530   1.523   0.285  32.809  0.2740  0.1497  0.2341
26931W        W33531   4.637   1.895  12.244 -0.3579  0.0345  0.0400
26932W        W33532   6.303   3.509   1.993 -0.0457 -0.0834  0.0132
26933W        W33533  23.813   4.393   0.285  0.2017 -0.0750  0.0153
26934W        W33534   4.728   0.403   6.158  0.0147 -0.1623  0.1549
26935W        W33535  14.566   2.845  35.959 -0.1108  0.0293  0.3373
26936W        W33536   9.364   0.593  32.310 -0.0287  0.3915  0.1002
26937W        W33537  23.047   5.296  10.737 -0.1376 -0.0357  0.1588
26938W        W33538  20.245   5.879  22.161  0.0239 -0.5967  0.0028
26939W        W33539  21.576   4.653   2.164  0.1093  0.1290  0.1221
26940W        W33540  19.377   6.492  33.515 -0.0979 -0.0264 -0.1446
26941W        W33541  20.967   5.239  27.319  0.1132  0.1469 -0.0718
26942W        W33542  16.267   1.467  25.511  0.1092 -0.2786 -0.0326
26943W        W33543   5.892   5.483   3.555 -0.0131  0.3865 -0.1425
26944W        W33544  12.725   4.605  24.294 -0.4174  0.3449 -0.0422
26945W        W33545  23.080   2.705  28.234 -0.3610  0.1798 -0.0205
26946W        W33546  12.706   2.659  34.752  0.0724  0.1693  0.2672
26947W        W33547   8.139   3.912  13.330 -0.0619  0.0115 -0.4422
26948W        W33548  15.558   2.634  11.334 -0.1087 -0.0909 -0.1998
26949W        W33549  20.385   3.441  21.743  0.0729 -0.1489  0.1775
26950W        W33550  19.320   3.496  21.872  0.2162  0.3252 -0.1875
26951W        W33551  21.544   5.442   6.512 -0.2018  0.1056 -0.1111
26952W        W33552  24.760   1.455  13.819  0.0564  0.0961  0.3544
26953W        W33553  15.553   3.848   7.872  0.0060  0.0439  0.4103
26954W        W33554  19.625   0.851  21.813  0.2068 -0.0920 -0.0599
26955W        W33555  15.230   0.049  33.187 -0.0670 -0.0973  0.0621
26956W        W33556   1.924   4.998  10.296  0.1588 -0.1883  0.0502
26957W        W33557  21.643   6.297  27.984 -0.0894 -0.1665 -0.1357
26958W        W33558  21.998   4.807  33.826  0.4662  0.1780  0.0974
26959W        W33559   8.535   6.383  33.711 -0.0485  0.0365 -0.0067
26960W        W33560   5.174   2.087  32.621 -0.0671  0.0255  0.0207
26961W        W33561  19.025   3.918  22.011  0.1441 -0.1678  0.0943
26962W        W33562  15.884   6.129   0.543 -0.0664  0.1410 -0.0058
26963W        W33563  26.299   1.471  14.592 -0.0675  0.2218 -0.0997
26964W        W33564  17.072   1.563   7.288  0.0711 -0.0644 -0.1597
26965W        W33565   7.239   3.211  27.833 -0.3606 -0.3452  0.0169
26966W        W33566  10.358   5.979  25.468 -0.1539  0.0917 -0.1393
26967W        W33567  18.121   1.161   3.695 -0.1034  0.1159 -0.1199
26968W        W33568  22.239   5.250   2.682 -0.0051 -0.2232 -0.0252
26969W        W33569   0.914   3.248   3.044  0.1620  0.2067 -0.0130
26970W        W33570   8.908   5.376  21.013 -0.0248 -0.2419 -0.1902
26971W        W33571   7.029   6.561  29.244 -0.0772 -0.0347  0.3513
26972W        W33572  24.581   2.543   8.750 -0.0268 -0.0765  0.1401
26973W        W33573   9.643   2.765  26.556 -0.0714  0.3690 -0.2729
26974W        W33574  18.729   0.287   4.586  0.1589 -0.0676  0.0133
26975W        W33575  12.297   6.552  24.662 -0.1219 -0.1487  0.1121
26976W        W33576  24.074   2.391  27.653  0.1711  0.2367  0.1776
26977W        W33577  14.244   4.746  27.349 -0.3012 -0.0194 -0.2643
26978W        W33578  18.500   4.894   0.942 -0.1243 -0.1805  0.1515
26979W        W33579   0.597   5.915  35.965 -0.0399 -0.0289 -0.1645
26980W        W33580  11.298   5.749   8.845  0.0047  0.1957 -0.1609
26981W        W33581  17.056   0.274   2.371 -0.0595 -0.0879 -0.4900
26982W        W33582   4.651   4.433   8.421 -0.2578  0.2018 -0.0765
26983W        W33583  14.603   0.466   4.210  0.2745  0.0495 -0.0831
26984W        W33584  24.010   5.235  26.352 -0.1068  0.1678  0.1648
26985W        W33585   0.221   0.166   0.852 -0.3694 -0.0270 -0.0842
26986W        W33586  21.257   2.335   1.573  0.1984  0.0303 -0.0867
26987W        W33587  25.623   5.825  21.911  0.2649 -0.0155 -0.1410
26988W        W33588   8.032   2.472  15.692  0.0425 -0.1130  0.1699
26989W        W33589   1.558   5.077  34.833  0.0288  0.0399  0.0302
26990W        W33590  25.233   6.242  28.357  0.3220  0.2491  0.2168
26991W        W33591  10.326   1.044  34.492  0.1412 -0.1954  0.0782
26992W        W33592  12.942   4.968   2.032  0.3277  0.0082 -0.0486
26993W        W33593  12.124   2.394   5.321  0.1340  0.0822 -0.1402
26994W        W33594  25.495   5.723  32.279  0.1477 -0.0645 -0.1977
26995W        W33595   2.964   1.529  29.010 -0.0826 -0.1517 -0.1699
26996W        W33596  23.562   2.719  26.390  0.1966 -0.1827 -0.1889
26997W        W33597  22.205   2.914   9.540 -0.1082 -0.0659 -0.1126
26998W        W33598   3.352   0.015   5.587  0.1090  0.2956  0.3563
26999W        W33599  21.353   6.435  11.802  0.0096 -0.0313 -0.0143
27000W        W33600  18.607   2.142   3.056 -0.1176  0.1157 -0.1173
27001W        W33601  13.656   6.466  30.356 -0.1670 -0.3981  0.0455
27002W        W33602  13.583   2.872  33.805 -0.0897 -0.1880 -0.0710
27003W        W33603  19.569   4.236  34.657  0.1014  0.1166  0.1770
27004W        W33604  19.613   4.259  26.014 -0.1045 -0.0526  0.0458
27005W        W33605   3.623   4.514  27.166 -0.0676  0.0685  0.4093
27006W        W33606  14.647   5.239  29.137 -0.1205  0.2133  0.1338
27007W        W33607  11.843   0.007  13.969  0.4150  0.1336 -0.0674
27008W        W33608   7.639   2.313  10.674  0.1903  0.1142  0.2602
27009W        W33609   5.612   3.589  28.627 -0.0188 -0.1115 -0.0826
27010W        W33610  23.383   0.104  35.149  0.0047  0.0750 -0.0169
27011W        W33611  17.036   6.383  13.454 -0.0353 -0.1268 -0.1048
27012W        W33612   0.361   4.519  13.129  0.3658  0.0666  0.3020
27013W        W33613  11.960   2.158   3.854 -0.0766  0.1475 -0.0549
27014W        W33614   7.672   4.697  10.188  0.0546 -0.0894  0.1535
27015W        W33615   5.466   4.796  26.300  0.1950 -0.0206  0.1908
27016W        W33616   6.858   6.217   2.373  0.0617  0.2561 -0.0534
27017W        W33617  12.538   3.242  14.711 -0.1510  0.1258 -0.0285
27018W        W33618  19.687   5.079  15.422 -0.2734 -0.5480  0.2103
27019W        W33619   1.085   1.128  28.973  0.1247  0.0003 -0.0321
27020W        W33620   1.666   1.943  32.812 -0.0039 -0.1153 -0.1775
27021W        W33621   6.859   0.865  30.547  0.1142 -0.1182 -0.2666
27022W        W33622  13.188   5.119  21.343 -0.0827 -0.0728  0.4084
27023W        W33623  25.114   5.385   6.415  0.1283  0.0980  0.2622
27024W        W33624  13.987   5.877  10.733  0.2501 -0.2627  0.0355
27025W        W33625  19.761   5.643  14.825 -0.1391 -0.1920  0.2284
27026W        W33626   9.598   0.447  25.042 -0.0010  0.2130  0.0077
27027W        W33627   3.245   3.509  25.358 -0.0154 -0.1897  0.2059
27028W        W33628   6.019   1.379  23.127 -0.1190  0.1691  0.3525
27029W        W33629  17.395   6.155  15.105 -0.0631 -0.1795 -0.2579
27030W        W33630   1.023   2.851   2.472  0.0490  0.3711  0.1714
27031W        W33631  16.497   2.571  13.383  0.0192 -0.0974  0.0570
27032W        W33632  22.817   1.529  26.092 -0.0880 -0.3704 -0.0818
27033W        W33633  21.675   5.046   3.302  0.4149 -0.1867 -0.0855
27034W        W33634  19.000   2.942  24.832 -0.0502  0.3946 -0.1727
27035W        W33635  13.553   2.341   0.534  0.1236 -0.0032  0.1869
27036W        W33636  15.664   4.625   8.514  0.2529 -0.3544  0.0718
27037W        W33637   6.968   1.062  31.388 -0.1974 -0.0553 -0.1204
27038W        W33638   8.616   5.881  25.565  0.1255 -0.0243  0.2453
27039W        W33639  19.956   4.806  26.302  0.1308 -0.1916 -0.2680
27040W        W33640  12.766   1.947  34.648  0.1208 -0.1444 -0.1511
27041W        W33641  18.848   3.711  29.492 -0.2462  0.0720 -0.1168
27042W        W33642   8.642   6.348  29.103  0.0317  0.0303 -0.1663
27043W        W33643  14.294   0.086   0.944  0.0632  0.0244  0.0577
27044W        W33644  20.649   3.148  33.026  0.1632  0.0696  0.1057
27045W        W33645  26.111   0.200  26.632 -0.0007 -0.1156  0.0774
27046W        W33646  17.766   3.389  10.652  0.1751 -0.0931 -0.2042
27047W        W33647  21.563   1.596  33.265 -0.0643 -0.0101 -0.3199
27048W        W33648   5.626   0.287  28.388 -0.1337  0.1587  0.2919
27049W        W33649   3.560   6.096  28.597 -0.0762 -0.1295 -0.1270
27050W        W33650   4.416   4.746  34.396  0.1284  0.0749  0.0705
27051W        W33651   7.414   0.297   1.810 -0.3045  0.1852 -0.1478
27052W        W33652   8.280   2.776  24.845 -0.1570  0.0532 -0.1974
27053W        W33653  12.905   2.538  30.113 -0.2445  0.0384  0.0860
27054W        W33654   5.239   2.771  29.866  0.0997  0.0541  0.0091
27055W        W33655  25.245   6.317   5.465  0.2720  0.3084 -0.2077
27056W        W33656   8.752   6.098   3.581  0.3319  0.1543 -0.2241
27057W        W33657   4.066   6.588  26.004 -0.3290  0.1472  0.2850
27058W        W33658   2.064   6.191   9.461 -0.0634 -0.1128 -0.0423
27059W        W33659   1.642   0.650  26.301 -0.2593 -0.1430 -0.0658
27060W        W33660   0.898   1.833  27.219 -0.5148 -0.0969 -0.0830
27061W        W33661  14.703   2.465   7.478  0.1187 -0.1108  0.1818
27062W        W33662  22.252   5.578  28.242 -0.1124  0.0497 -0.0263
27063W        W33663  19.233   2.718  25.372 -0.3782  0.1482  0.3017
27064W        W33664  25.845   5.173  13.256  0.0760  0.0923 -0.0501
27065W        W33665   7.919   2.217  13.981 -0.1640 -0.2219  0.2236
27066W        W33666  22.026   2.732  32.858 -0.2246 -0.1605 -0.1158
27067W        W33667  10.597   4.953  27.671  0.1788  0.0242  0.1009
27068W        W33668  20.133   2.533  13.911 -0.0410  0.0334 -0.0141
27069W        W33669  10.450   1.576  27.933  0.0746  0.2504 -0.1109
27070W        W33670  19.888   6.400  22.865  0.1063 -0.0064 -0.2256
27071W        W33671   4.608   1.212  35.631  0.1716  0.0815  0.2943
27072W        W33672   4.972   1.598  34.485 -0.2926  0.2083 -0.0505
27073W        W33673  23.247   5.958  28.210 -0.1659 -0.3489 -0.0854
27074W        W33674  13.084   4.833  33.211  0.1247  0.0065  0.1876
27075W        W33675  24.381   3.474   1.563  0.2349  0.0629 -0.1815
27076W        W33676   0.751   0.961  31.171 -0.2922 -0.0956 -0.0150
27077W        W33677  24.043   4.454  22.603 -0.2409 -0.1341 -0.0881
27078W        W33678  24.937   5.753  32.226  0.1873  0.1139 -0.1889
27079W        W33679  20.372   0.230  11.889 -0.2339  0.0769  0.2059
27080W        W33680   3.539   3.755  25.703  0.3910 -0.2565  0.1417
27081W        W33681   9.700   3.239  28.168 -0.0183 -0.1101  0.2399
27082W        W33682   5.951   3.490   2.450  0.2786 -0.1322 -0.3590
27083W        W33683   8.414   4.901  12.740  0.1254  0.0731  0.1042
27084W        W33684  19.953   3.970   5.823 -0.1378  0.1897  0.0861
27085W        W33685   9.350   3.047   2.014  0.1666  0.0330  0.1397
27086W        W33686  16.988   1.904  32.675 -0.0877  0.3060  0.1990
27087W        W33687   8.844   2.553  26.246 -0.1915  0.0548  0.1725
27088W        W33688   5.507   1.431  29.550 -0.2178 -0.0521  0.1721
27089W        W33689  22.737   4.452   2.852 -0.2472  0.0349  0.1175
27090W        W33690  16.186   5.762  35.840 -0.1502 -0.0280 -0.1031
27091W        W33691   4.641   5.774   5.012  0.4235  0.0609  0.0059
27092W        W33692   8.794   2.083  34.890 -0.1299  0.0930 -0.0148
27093W        W33693  25.163   5.201   4.551 -0.0515 -0.1693 -0.0349
27094W        W33694  22.969   6.287  12.089  0.0520 -0.2560  0.2027
27095W        W33695   2.154   5.543  30.460 -0.0107 -0.0241  0.1344
27096W        W33696   7.368   1.645  35.946  0.1589 -0.2436  0.2015
27097W        W33697  20.833   0.514   6.937  0.0953 -0.0290  0.0983
27098W        W33698  19.630   2.256  10.835 -0.0201  0.1420 -0.0373
27099W        W33699  14.120   1.535  26.050 -0.0908 -0.0068 -0.2464
27100W        W33700  24.989   4.931   2.218 -0.3739  0.0389  0.2649
27101W        W33701  21.617   5.541  26.452 -0.2404 -0.0332  0.0960
27102W        W33702   6.816   2.761  25.658  0.2543 -0.0051  0.0389
27103W        W33703  21.718   0.679  23.773  0.1873  0.0553  0.2741
27104W        W33704  17.215   4.191  34.053 -0.0660  0.0945  0.2586
27105W        W33705  24.518   1.232  27.589  0.0567  0.0191 -0.0027
27106W        W33706   0.433   3.690   7.831 -0.1467 -0.0186 -0.3116
27107W        W33707   4.754   5.962   6.556  0.2730  0.1558 -0.3411
27108W        W33708  21.738   0.022  13.167  0.1614 -0.2857  0.1730
27109W        W33709   0.849   5.511  10.859 -0.0776 -0.3026  0.1025
27110W        W33710  22.440   0.179  32.822 -0.0440  0.1585 -0.1514
27111W        W33711  20.129   3.085  21.074 -0.2884 -0.0169  0.1556
27112W        W33712   1.659   5.763  21.735 -0.1111 -0.1887  0.1135
27113W        W33713   1.086   2.736  29.729  0.1648  0.0832  0.0837
27114W        W33714   1.458   2.290  12.812  0.1246  0.1559  0.1774
27115W        W33715  21.687   2.789  13.198  0.1844 -0.0434  0.0187
27116W        W33716  17.634   0.407  23.358 -0.0034  0.2927  0.0382
27117W        W33717  12.219   4.837   1.393 -0.0743  0.0828 -0.4347
27118W        W33718   2.127   6.402  14.885  0.4717 -0.2538  0.1284
27119W        W33719   7.018   4.883  31.216  0.0538 -0.0572  0.0365
27120W        W33720   4.902   5.255  35.132 -0.0354 -0.3491  0.1668
27121W        W33721   7.633   6.566  10.672 -0.2522 -0.1286  0.2834
27122W        W33722   8.382   1.621  10.496 -0.2133  0.2144 -0.2070
27123W        W33723   6.912   2.886   8.273  0.1610 -0.0537  0.1758
27124W        W33724   0.667   1.479  13.267  0.0724  0.1579 -0.0472
27125W        W33725  16.164   3.913   6.404 -0.0706 -0.3092 -0.2977
27126W        W33726  14.234   4.623  30.843  0.0317  0.0044  0.0969
27127W        W33727   0.341   5.333  12.254 -0.1575 -0.0175 -0.0961
27128W        W33728  20.760   4.946  24.465  0.0438  0.2367 -0.1180
27129W        W33729  16.993   1.207  23.287 -0.2143 -0.2489  0.0750
27130W        W33730   2.996   3.990  26.925  0.2560  0.1039  0.0544
27131W        W33731  17.668   4.447  23.570  0.0757  0.1576 -0.0153
27132W        W33732  13.220   0.830   5.784  0.1672 -0.2262 -0.2963
27133W        W33733   1.068   1.554   5.989 -0.1817  0.2655  0.1268
27134W        W33734   6.818   2.494  28.815 -0.1876  0.2036 -0.1106
27135W        W33735   9.369   5.474  11.296 -0.3746 -0.0545 -0.0297
27136W        W33736  14.934   0.185  23.963 -0.1041 -0.1780  0.1956
27137W        W33737   1.190   4.842  35.165 -0.1126 -0.0315  0.0726
27138W        W33738  16.933   2.801  23.401  0.1411  0.1554  0.1980
27139W        W33739   8.713   1.935   8.406  0.2144 -0.1770  0.2396
27140W        W33740  15.634   1.323   6.623  0.3340  0.1580  0.1883
27141W        W33741   7.221   2.843  25.895  0.0470  0.0051 -0.0876
27142W        W33742  10.896   6.275  32.357  0.0562  0.0087 -0.0372
27143W        W33743  20.383   0.595   2.877 -0.2455  0.0709  0.0334
27144W        W33744   2.168   6.462  30.292  0.2402  0.2213  0.2481
27145W        W33745  23.794   3.157   4.737  0.3259  0.0427  0.1542
27146W        W33746   6.308   2.257   3.878 -0.3390  0.0447  0.0198
27147W        W33747  23.878   2.356  11.143  0.0136  0.1116  0.0988
27148W        W33748   1.580   5.697  10.840  0.2929  0.1518  0.3257
27149W        W33749  21.348   3.629  27.061  0.1658  0.2943  0.0455
27150W        W33750   3.648   4.860  11.993 -0.2964  0.3223  0.0180
27151W        W33751  10.623   1.217   9.731  0.0718 -0.0747  0.2433
27152W        W33752  11.840   0.560  30.583 -0.0593 -0.1090 -0.2133
27153W        W33753  16.386   0.112  33.689  0.0759  0.1991 -0.0331
27154W        W33754   3.943   2.991  34.825 -0.3907  0.0937 -0.0992
27155W        W33755  23.932   5.274  11.850  0.0539 -0.0429  0.1336
27156W        W33756   1.749   2.921   2.067  0.1352 -0.1241  0.2163
27157W        W33757  20.883   5.614  13.089 -0.0948  0.0797  0.1131
27158W        W33758  10.503   5.127   7.234  0.1481 -0.2610  0.2896
27159W        W33759   0.736   2.656  15.292 -0.1999 -0.0076 -0.1345
27160W        W33760  25.576   2.186   4.919  0.2766 -0.0007  0.1895
27161W        W33761   9.781   1.862  24.621 -0.1794 -0.0360 -0.0619
27162W        W33762   8.269   4.381  32.028  0.2250 -0.1894  0.1242
27163W        W33763  13.042   4.207  11.140 -0.1225  0.3545 -0.0070
27164W        W33764   2.218   4.925   9.068 -0.5209  0.0170  0.0590
27165W        W33765  10.383   4.877   1.903  0.2212  0.0337 -0.1160
27166W        W33766  23.014   4.285  23.605  0.1661 -0.2351  0.2882
27167W        W33767  16.859   0.200  12.571 -0.0515  0.4427 -0.1751
27168W        W33768  15.087   1.573  31.765  0.2273  0.1573  0.1698
27169W        W33769   0.318   4.685  25.264  0.1992  0.0976 -0.2881
27170W        W33770   9.802   1.934  21.155 -0.1369 -0.3029 -0.0941
27171W        W33771  25.779   0.406  30.373 -0.1224 -0.2096  0.0866
27172W        W33772  24.007   0.307  13.685  0.3513 -0.1264  0.1693
27173W        W33773  10.482   0.280  11.273 -0.1726 -0.2503  0.1649
27174W        W33774  24.982   0.167   2.725 -0.2723  0.0440  0.1275
27175W        W33775  14.357   4.239   8.199  0.0242  0.1873 -0.3308
27176W        W33776   3.557   3.580   7.724 -0.0633  0.3801  0.0210
27177W        W33777  19.020   1.686   4.892  0.0313 -0.0985  0.0151
27178W        W33778   7.381   2.274   5.553  0.3567  0.0170 -0.1752
27179W        W33779  19.797   2.532   8.587 -0.1081 -0.0373 -0.1163
27180W        W33780  13.820   5.721  12.719 -0.1549  0.2860 -0.0807
27181W        W33781   2.850   1.283  30.195  0.0956 -0.0281 -0.0018
27182W        W33782  20.552   1.631  15.410  0.1651  0.1055 -0.0691
27183W        W33783  18.082   2.235  26.933  0.2998 -0.0101  0.2732
27184W        W33784  25.971   4.670   9.772  0.1595  0.1363  0.0416
27185W        W33785  24.324   1.019   4.680 -0.0767 -0.0929 -0.1170
27186W        W33786   9.260   5.173  34.489  0.1354  0.2220  0.0612
27187W        W33787  25.889   4.825  29.158 -0.0405  0.0177  0.3247
27188W        W33788  17.689   1.573  31.308 -0.0908 -0.0125  0.1462
27189W        W33789   7.971   5.082  34.347 -0.1339  0.1046 -0.0200
27190W        W33790  12.953   4.276   4.571  0.0192 -0.0726 -0.0387
27191W        W33791   8.726   3.052  26.163 -0.1512 -0.1362 -0.2587
27192W        W33792   6.665   1.540  26.286  0.1483 -0.0104  0.0856
27193W        W33793  10.146   4.664  11.763  0.2811  0.2738 -0.0546
27194W        W33794  15.102   3.881  31.895 -0.0191 -0.1944 -0.2510
27195W        W33795   9.283   5.900  11.691 -0.1874  0.1744  0.0679
27196W        W33796   9.887   2.155  13.437 -0.3098 -0.0776  0.2864
27197W        W33797   8.042   2.078  32.176 -0.2016 -0.2113  0.0633
27198W        W33798  21.393   5.357  24.318 -0.0705  0.2716  0.1620
27199W        W33799  14.995   1.042   9.318 -0.2113  0.3036  0.0188
27200W        W33800  24.555   0.105   9.505  0.0485  0.0568  0.0056
27201W        W33801  24.721   0.160  14.334 -0.2085  0.1931 -0.2634
27202W        W33802   1.620   4.922  23.098 -0.0546  0.0860 -0.1318
27203W        W33803   2.940   0.904   5.324  0.0461 -0.0279  0.1140
27204W        W33804  11.207   2.009  14.836  0.0213  0.0251  0.1548
27205W        W33805  14.524   6.134  13.751 -0.0099 -0.2590 -0.0324
27206W        W33806  25.689   0.490  20.488 -0.4262  0.0510 -0.0414
27207W        W33807  13.845   5.275  13.080 -0.3570  0.0565 -0.1708
27208W        W33808  24.088   2.714  23.441  0.2209 -0.2687  0.1376
27209W        W33809  19.213   4.350  29.288  0.0223  0.1230 -0.1529
27210W        W33810  10.950   2.957   9.233  0.1592 -0.0928 -0.0937
27211W        W33811   9.026   4.661  30.488 -0.1188  0.0348  0.0170
27212W        W33812  12.395   4.706  35.219 -0.0542  0.2182 -0.0498
27213W        W33813  26.086   1.905  29.636  0.0640 -0.2943  0.1861
27214W        W33814  21.943   2.108  21.364  0.2144  0.0486  0.0704
27215W        W33815  10.301   0.101  14.644 -0.0373 -0.2971  0.1217
27216W        W33816   4.750   5.934  30.984  0.1290 -0.0393  0.1039
27217W        W33817   1.957   2.004  27.675  0.1445 -0.2295  0.0281
27218W        W33818   0.384   1.385   5.756 -0.0327 -0.1549  0.0905
27219W        W33819  17.005   2.859  11.643  0.2116 -0.1436 -0.0543
27220W        W33820  21.798   0.055  28.375  0.1237 -0.1274  0.1526
27221W        W33821  24.734   2.386  21.696 -0.0681 -0.3088  0.0182
27222W        W33822   0.827   1.090  25.036  0.0305  0.0853  0.1214
27223W        W33823  23.510   5.541   7.831 -0.2774 -0.0636  0.3002
27224W        W33824  22.785   2.562   0.165 -0.0018 -0.0121 -0.0556
27225W        W33825   0.033   0.384  29.089 -0.0389 -0.0695  0.0095
27226W        W33826  20.301   2.120  25.633 -0.0310 -0.1161  0.2312
27227W        W33827   2.907   4.807  33.027 -0.0960 -0.1242 -0.0896
27228W        W33828   3.439   1.163  27.609  0.1961  0.0085 -0.1327
27229W        W33829  10.115   0.188  32.377  0.1523  0.0237  0.3619
27230W        W33830   0.148   0.646   5.356  0.0561 -0.1283 -0.0035
27231W        W33831   3.920   1.470  12.110  0.0112  0.0407 -0.0730
27232W        W33832  16.597   1.349   8.089  0.0334 -0.0332 -0.0153
27233W        W33833  19.320   5.916  23.756  0.3407  0.0696 -0.1970
27234W        W33834  18.640   4.614  35.322  0.0126 -0.0813 -0.0317
27235W        W33835  16.779   6.471  34.576 -0.0730 -0.0044  0.0064
27236W        W33836   3.127   6.092   6.871 -0.3521 -0.3016 -0.1291
27237W        W33837  11.310   0.955  23.341 -0.0739  0.1897  0.1349
27238W        W33838   0.897   0.099  34.263 -0.0280  0.2592 -0.1853
27239W        W33839  23.616   0.578  34.491 -0.0491 -0.0306  0.2614
27240W        W33840  19.855   5.185  27.043 -0.1588  0.2095  0.1382
27241W        W33841  10.918   5.134  23.393 -0.1183 -0.1231 -0.0320
27242W        W33842  17.604   5.066  27.864 -0.0984  0.0617 -0.0295
27243W        W33843  23.810   1.495  14.890 -0.2347  0.1471  0.0703
27244W        W33844  15.739   4.168  25.718  0.1887  0.1310  0.3378
27245W        W33845   3.419   3.635   6.100 -0.0169 -0.0615  0.3976
27246W        W33846  16.163   0.762  10.218  0.0206  0.0666 -0.0772
27247W        W33847  13.216   1.236   3.047 -0.1112 -0.0448 -0.0937
27248W        W33848  10.081   3.599  22.697  0.0093  0.0871  0.0923
27249W        W33849  13.045   4.157   9.516  0.0237 -0.0227 -0.0565
27250W        W33850  22.529   4.793  21.511 -0.0431 -0.2725 -0.1932
27251W        W33851  16.902   1.256   1.354  0.0077 -0.2636 -0.1578
27252W        W33852  24.198   4.091   2.395 -0.4374 -0.2488 -0.0959
27253W        W33853  10.159   0.529   7.195 -0.2581  0.1170  0.0649
27254W        W33854  19.197   1.667  27.848 -0.0178  0.1306  0.0540
27255W        W33855  25.670   0.774   2.879  0.0217  0.2630 -0.1312
27256W        W33856  26.313   2.228  34.831  0.0690 -0.1094  0.0704
27257W        W33857   5.499   0.220   6.449  0.0868  0.1921 -0.0555
27258W        W33858  22.981   0.070  33.364  0.3059 -0.1242 -0.1289
27259W        W33859  11.545   4.236   7.442  0.0858 -0.0280 -0.1345
27260W        W33860   8.864   3.794  30.559 -0.5178 -0.3991  0.1593
27261W        W33861  21.972   5.164   7.503  0.0503  0.0640  0.2222
27262W        W33862  22.686   0.050  22.146 -0.1781  0.0372  0.0614
27263W        W33863  15.457   5.381  21.622  0.0081 -0.1173  0.0670
27264W        W33864  10.599   5.682  29.454  0.0450  0.0325 -0.0278
27265W        W33865  12.072   4.553  31.941  0.1004 -0.1155 -0.1736
27266W        W33866  21.866   2.506  30.266 -0.1784 -0.2236 -0.1423
27267W        W33867   6.121   5.733  23.913  0.1786 -0.1084 -0.1797
27268W        W33868  17.838   2.449  28.199  0.0274 -0.2913  0.0901
27269W        W33869  18.562   6.368   3.883  0.0594  0.0042  0.0735
27270W        W33870   6.046   0.900  30.546  0.0553 -0.0494  0.0225
27271W        W33871  21.441   1.076  12.462 -0.0148 -0.1085  0.0891
27272W        W33872   9.913   3.842   9.418 -0.0958  0.2768 -0.3788
27273W        W33873   3.697   6.264  32.230 -0.0919  0.0628  0.1633
27274W        W33874   1.665   1.169  11.068  0.1074  0.0179  0.0073
27275W        W33875  18.235   4.260   4.070 -0.1726  0.1421 -0.0164
27276W        W33876  17.231   0.255  25.742  0.3925 -0.1506 -0.2124
27277W        W33877  24.638   3.111   3.815 -0.1327 -0.0032 -0.1286
27278W        W33878  18.157   0.814   9.304  0.1037 -0.0109 -0.0086
27279W        W33879   0.304   6.072  26.757 -0.4961  0.1732 -0.1946
27280W        W33880  17.172   1.720  35.382 -0.0316  0.0258  0.2118
27281W        W33881  20.384   0.441   9.666  0.1077 -0.1044 -0.0436
27282W        W33882   1.398   5.923   3.488 -0.1049 -0.1560  0.1118
27283W        W33883  24.402   4.533  31.142 -0.0291  0.4975  0.1624
27284W        W33884  22.126   2.900   3.219  0.1439 -0.2852  0.1815
27285W        W33885   0.768   2.748  13.124  0.0255 -0.0737  0.1020
27286W        W33886   1.398   6.598  30.218  0.0116 -0.1334  0.3885
27287W        W33887   2.530   5.780  30.751  0.1576 -0.0634 -0.0694
27288W        W33888   2.697   1.983  21.241 -0.0291  0.2082 -0.0473
27289W        W33889   4.932   2.758  13.037  0.4178 -0.0129  0.0803
27290W        W33890   2.338   1.574  29.013  0.0525 -0.2966 -0.0364
27291W        W33891   9.772   3.627  14.356 -0.1082 -0.1696  0.1696
27292W        W33892   4.776   0.169  28.939 -0.0605 -0.1659 -0.2966
27293W        W33893  26.351   1.255  25.234  0.0070 -0.2412  0.1029
27294W        W33894  23.896   1.377   1.578  0.1838  0.0187  0.0435
27295W        W33895   6.127   1.699  36.065  0.0971  0.0562 -0.2138
27296W        W33896   3.452   1.824   5.598  0.0861 -0.0164 -0.0327
27297W        W33897  11.795   2.191  29.419 -0.1839 -0.1613 -0.2114
27298W        W33898   5.477   3.571  30.376  0.1320  0.2382 -0.0464
27299W        W33899   8.705   0.839  10.325  0.0275 -0.0012 -0.0559
27300W        W33900   9.546   4.752  27.180  0.0027  0.3794 -0.3808
27301W        W33901  23.196   5.849  30.015 -0.0265 -0.2814  0.3657
27302W        W33902   7.804   1.845   4.220 -0.2169 -0.3008 -0.1541
27303W        W33903  14.838   2.338  34.365 -0.2178  0.2723  0.0855
27304W        W33904  25.128   0.734   0.299 -0.2014 -0.0208 -0.3069
27305W        W33905  16.399   2.836  30.872 -0.1448  0.3038 -0.0853
27306W        W33906   8.425   0.906  27.077 -0.0515 -0.1016 -0.0260
27307W        W33907  15.426   2.869  33.608 -0.0097 -0.1843 -0.3521
27308W        W33908   4.760   4.042  21.845 -0.1282  0.3349 -0.0815
27309W        W33909  11.539   6.324   7.855 -0.1230  0.1681 -0.0588
27310W        W33910  21.093   6.246  35.409  0.0391  0.1037 -0.0751
27311W        W33911  10.670   6.588  23.766 -0.1869 -0.0454  0.1014
27312W        W33912   4.280   4.915  28.201  0.0651  0.0502 -0.1288
27313W        W33913   0.795   1.084   7.216  0.0421  0.0178  0.0289
27314W        W33914  24.258   5.352   8.323  0.1155 -0.1246 -0.1311
27315W        W33915   6.040   0.486  28.655  0.1452  0.0533  0.2487
27316W        W33916  22.969   1.267  34.077  0.0016  0.1721 -0.1138
27317W        W33917  22.900   1.315  14.337 -0.1308 -0.2547 -0.0068
27318W        W33918   2.306   3.013  26.478 -0.0727  0.0337 -0.0843
27319W        W33919   7.963   2.684  14.756  0.0771  0.0493 -0.0699
27320W        W33920  24.992   3.821   4.170 -0.2274 -0.0374 -0.1481
27321W        W33921  12.513   0.960  12.629  0.3657  0.0650 -0.0982
27322W        W33922   1.258   3.544   1.851  0.0370  0.1556 -0.0741
27323W        W33923   5.738   5.871   9.363  0.2064  0.2164  0.1047
27324W        W33924  18.991   2.042  12.591  0.1604 -0.1206  0.2081
27325W        W33925   9.721   3.098  25.265 -0.0895 -0.4086  0.2227
27326W        W33926  25.530   3.448  23.014  0.0969  0.2974  0.2264
27327W        W33927   0.661   3.081  22.276 -0.2023 -0.0892 -0.0519
27328W        W33928  14.269   2.598  25.424  0.2421  0.0941 -0.0177
27329W        W33929   6.578   5.961  15.112  0.3380  0.3111 -0.1345
27330W        W33930  25.985   3.126   0.867 -0.0468 -0.2392 -0.2576
27331W        W33931  24.492   2.793   6.076  0.3460 -0.0568 -0.2466
27332W        W33932   5.018   1.290   8.022  0.2994 -0.4426 -0.2347
27333W        W33933  11.828   2.978   5.665 -0.1523 -0.2293 -0.2153
27334W        W33934  18.743   6.236   0.989 -0.0325 -0.0184 -0.1715
27335W        W33935   6.190   1.678  27.499 -0.0785  0.1390  0.0049
27336W        W33936   8.226   5.477  30.914  0.2570  0.3839 -0.0256
27337W        W33937   5.462   1.363  21.607 -0.0387 -0.2119 -0.4191
27338W        W33938  23.591   3.710  35.306  0.1820  0.0302  0.0798
27339W        W33939  21.247   2.083  12.946  0.2846 -0.0951  0.0400
27340W        W33940  22.554   3.504  34.274  0.1609  0.1366  0.2843
27341W        W33941   9.363   2.514   0.039  0.0922  0.1253 -0.0503
27342W        W33942  19.664   1.547   9.337  0.0413  0.2339  0.0525
27343W        W33943  21.196   4.659   2.518  0.1240 -0.5173  0.3156
27344W        W33944  21.107   3.691  26.524  0.0411  0.1430  0.2246
27345W        W33945   7.853   3.203   6.743 -0.1206 -0.0973  0.2853
27346W        W33946   7.636   5.719  13.956 -0.1716 -0.1588 -0.0677
27347W        W33947   6.228   3.612  10.867  0.0073 -0.0303  0.2013
27348W        W33948  14.825   5.160   4.825  0.2679  0.0107  0.1326
27349W        W33949   1.607   0.912   8.438  0.1434 -0.2858  0.1795
27350W        W33950   3.329   0.354   4.671  0.1527  0.0641  0.0081
27351W        W33951  11.361   3.471   8.192  0.2148  0.3177  0.0587
27352W        W33952   8.184   1.026   1.782 -0.2866  0.1942 -0.1574
27353W        W33953  11.896   1.621  15.677  0.0053 -0.1052 -0.0800
27354W        W33954  10.654   1.699   1.111  0.0872  0.2833 -0.1982
27355W        W33955  13.536   4.595  27.170  0.0715  0.0691  0.2485
27356W        W33956  18.034   0.306  35.978 -0.2937 -0.4004  0.0474
27357W        W33957  18.309   0.581  27.252 -0.0122  0.1585  0.3718
27358W        W33958   5.785   0.873  28.374 -0.2919 -0.0833  0.0514
27359W        W33959  13.417   4.336  12.417  0.2606 -0.0686  0.2412
27360W        W33960  15.845   3.792  34.126  0.0662 -0.0223  0.0477
27361W        W33961   6.420   4.667   8.993 -0.0222 -0.0633  0.3063
27362W        W33962  18.176   3.840   2.736  0.3115 -0.0502  0.1060
27363W        W33963   8.063   3.505   0.002 -0.0475  0.2523  0.2420
27364W        W33964  21.264   1.906  28.088 -0.0673  0.4187 -0.0228
27365W        W33965  18.255   0.594  21.490  0.6876 -0.0021 -0.1446
27366W        W33966  20.822   5.734  30.009  0.2891  0.1218  0.0355
27367W        W33967  10.536   3.748  30.946  0.0126  0.1521 -0.0055
27368W        W33968  13.910   2.523  11.987 -0.1185 -0.0216  0.0761
27369W        W33969  26.406   3.441  12.569  0.0049  0.0218 -0.0709
27370W        W33970   5.187   4.222   7.544  0.0578 -0.0954  0.0157
27371W        W33971  19.515   2.087  11.771  0.0711  0.1292  0.2447
27372W        W33972  25.467   1.246   4.730 -0.0650 -0.0471 -0.0029
27373W        W33973  19.932   6.062   6.145  0.0606  0.1616  0.3944
27374W        W33974  13.629   1.635   5.694  0.1933  0.1761 -0.2143
27375W        W33975  20.424   5.796   4.290  0.0787  0.1299 -0.0625
27376W        W33976  15.462   3.798  10.910 -0.1010  0.1321  0.2420
27377W        W33977  20.723   5.090  29.818  0.2034 -0.3424 -0.0393
27378W        W33978   2.261   6.523   6.762  0.0374  0.0600 -0.2869
27379W        W33979   0.154   4.404  29.842 -0.1550  0.2807 -0.0819
27380W        W33980   5.532   3.222   7.965  0.1941  0.0503  0.0874
27381W        W33981   4.704   4.041  33.635  0.0591  0.0480 -0.0365
27382W        W33982  25.379   2.486   3.496 -0.0073  0.2039  0.3524
27383W        W33983  17.951   0.639  11.085  0.0480 -0.1575 -0.0038
27384W        W33984   5.707   3.895  32.152  0.1185 -0.2038  0.3298
27385W        W33985  22.722   1.504  31.298 -0.2751  0.3787 -0.0082
27386W        W33986  24.795   5.434  27.316 -0.3837  0.0628 -0.1481
27387W        W33987  15.332   2.436  13.109  0.0397 -0.0591  0.3386
27388W        W33988  12.372   5.014  13.429 -0.1136 -0.0300  0.2856
27389W        W33989  20.116   0.400   8.312  0.0606 -0.1237  0.0539
27390W        W33990  17.340   2.475  31.800  0.0750 -0.1367  0.0962
27391W        W33991   1.806   4.944  25.033 -0.0193 -0.0462  0.2797
27392W        W33992  11.008   1.846  24.276  0.2502 -0.0979  0.3200
27393W        W33993  17.062   5.832  35.064  0.0658 -0.1545  0.0305
27394W        W33994   5.493   1.390  10.815 -0.0146 -0.1593  0.2403
27395W        W33995   5.862   5.430  29.227 -0.1977 -0.0992  0.1698
27396W        W33996  25.757   5.516  28.369 -0.0738  0.3989 -0.0564
27397W        W33997  18.967   1.458  35.730  0.3183 -0.3670 -0.3812
27398W        W33998  13.973   0.213  35.876  0.0368  0.2547 -0.3192
27399W        W33999  17.324   5.747  14.073 -0.1197  0.1056  0.1460
27400W        W34000   7.785   1.753  27.735  0.1065 -0.1049  0.0149
27401W        W34001  20.763   1.878  26.387  0.1510  0.3490 -0.0898
27402W        W34002   0.457   2.801   9.665 -0.0294 -0.1579  0.1004
27403W        W34003  14.468   1.870  28.461  0.3687 -0.0714  0.1128
27404W        W34004  14.294   1.122  26.315  0.1573  0.0723  0.1386
27405W        W34005  23.079   2.097  15.104 -0.0893  0.2576 -0.2607
27406W        W34006  24.197   4.858  13.590 -0.2590  0.0499 -0.0331
27407W        W34007  18.860   5.972   4.003 -0.1322  0.4205 -0.1752
27408W        W34008   2.613   2.825   4.631  0.2897 -0.1934  0.0315
27409W        W34009  16.422   1.250   5.207  0.2666 -0.1547  0.2928
27410W        W34010   1.508   6.235  22.647  0.0140 -0.2854 -0.0669
27411W        W34011  22.943   4.084  21.109  0.2806 -0.0964  0.2728
27412W        W34012   4.326   4.366   2.836 -0.0448  0.2839  0.3008
27413W        W34013  24.854   3.234  12.997 -0.1072  0.5073 -0.1604
27414W        W34014  20.886   3.804  27.720 -0.0887  0.0837 -0.2396
27415W        W34015  15.191   6.421  13.099 -0.0444  0.0856 -0.1197
27416W        W34016  12.843   6.215  35.799 -0.0633  0.3005  0.0085
27417W        W34017  22.300   0.669  30.333  0.1837 -0.1793 -0.0471
27418W        W34018  12.031   1.008  31.848  0.2325  0.0677 -0.0333
27419W        W34019  17.033   0.577   4.346 -0.1619  0.0042  0.0617
27420W        W34020  12.613   1.530  14.019  0.0962  0.0083 -0.2964
27421W        W34021  19.403   0.114  21.243  0.1653 -0.0478  0.2102
27422W        W34022  15.387   6.430  30.449 -0.2667  0.0115 -0.0643
27423W        W34023  14.766   3.692   8.549  0.1739 -0.0731  0.0891
27424W        W34024   9.678   1.477  25.941  0.1709  0.0788  0.0929
27425W        W34025  15.430   4.260  10.205 -0.1395  0.1604 -0.2533
27426W        W34026  25.935   5.464  27.153  0.0807  0.1179 -0.0124
27427W        W34027  13.215   5.990   9.118 -0.0548  0.0337 -0.1224
27428W        W34028   7.957   5.527  11.558  0.0146  0.0417 -0.0073
27429W        W34029   1.149   5.588  20.568 -0.1572  0.3963 -0.0546
27430W        W34030  17.071   4.094  35.574  0.0339 -0.1053  0.0222
27431W        W34031  19.601   5.921  29.419 -0.0668  0.2994 -0.0423
27432W        W34032  19.854   0.521  12.154 -0.4805 -0.0534  0.1647
27433W        W34033   6.230   3.892   0.130  0.1159 -0.2545  0.0636
27434W        W34034  13.942   4.175  34.336 -0.2999 -0.2481  0.2647
27435W        W34035  20.549   0.059  31.815 -0.3133 -0.1185 -0.1501
27436W        W34036  12.237   3.067  23.970 -0.0342 -0.1426 -0.0297
27437W        W34037  25.502   5.897   6.989  0.1623 -0.1519 -0.1834
27438W        W34038  16.469   2.241   7.607 -0.0144 -0.0694 -0.0661
27439W        W34039   1.577   3.514  12.324  0.1408  0.6551  0.3135
27440W        W34040   4.185   1.983  13.281 -0.0353 -0.1134 -0.1193
27441W        W34041  25.372   0.221  12.788 -0.1074  0.0691 -0.1454
27442W        W34042   5.852   1.244  34.293  0.1437  0.0458  0.0197
27443W        W34043   6.989   5.131  10.761  0.0937 -0.2786 -0.2110
27444W        W34044   0.960   2.590  30.791 -0.1895  0.1177 -0.5065
27445W        W34045  18.339   3.705  29.449 -0.1362  0.0082  0.0543
27446W        W34046   0.500   4.227  13.556  0.0915  0.0026  0.2581
27447W        W34047   9.548   1.432  34.041  0.3830 -0.0018  0.2600
27448W        W34048  12.529   1.917   7.567 -0.3359 -0.1986 -0.1094
27449W        W34049   8.761   0.096   9.979  0.1793  0.0562  0.1532
27450W        W34050   8.394   0.599  27.642 -0.0828 -0.0596  0.0736
27451W        W34051  24.568   4.674  12.086  0.2874 -0.0722  0.0825
27452W        W34052   8.229   3.814   3.779 -0.0057 -0.2637 -0.0404
27453W        W34053   5.253   4.352  25.476  0.1750 -0.2497  0.0075
27454W        W34054  14.084   1.250  10.626 -0.2021  0.2231  0.1028
27455W        W34055  19.632   0.359   8.175  0.2105  0.1307 -0.0739
27456W        W34056  19.813   1.639  35.401  0.3091 -0.0497 -0.0662
27457W        W34057  20.945   4.296  12.556 -0.1386 -0.2045  0.0756
27458W        W34058   2.372   2.152  34.425 -0.0497 -0.1204  0.1872
27459W        W34059  22.655   3.786   2.949 -0.0227 -0.3793 -0.1136
27460W        W34060  14.651   0.243   5.715 -0.2789 -0.0729  0.3327
27461W        W34061   4.359   1.325  34.413  0.0617  0.0744  0.0844
27462W        W34062   8.320   5.301  31.457 -0.0789 -0.1007  0.2943
27463W        W34063  26.007   2.330  30.082 -0.3283 -0.1685 -0.2284
27464W        W34064  21.429   3.632   2.044  0.0898 -0.1738 -0.0914
27465W        W34065  16.253   5.922  32.079  0.1637  0.2153  0.1119
27466W        W34066  14.119   1.757   7.968 -0.3400  0.2668  0.0760
27467W        W34067  13.314   5.217  23.547  0.0886  0.0330 -0.1033
27468W        W34068  17.674   0.746  29.260 -0.0053 -0.1474 -0.0031
27469W        W34069   5.779   1.414  28.138 -0.2128  0.2070 -0.2252
27470W        W34070  22.427   1.086   4.269  0.0335  0.4449  0.4522
27471W        W34071   9.857   0.669   4.749  0.0784 -0.0270  0.2926
27472W        W34072   8.936   0.967  21.812  0.1559  0.3222  0.1167
27473W        W34073  22.311   5.992  34.604 -0.1066 -0.0455 -0.0054
27474W        W34074  16.338   5.036  28.925 -0.0411  0.0903 -0.0235
27475W        W34075  15.507   2.891  16.313  0.3998  0.2391 -0.0171
27476W        W34076   2.085   4.156  14.447  0.3154  0.1151  0.2239
27477W        W34077   4.478   1.131  33.946  0.4241  0.0293  0.1414
27478W        W34078  21.734   1.909  26.062 -0.1027 -0.3620  0.1345
27479W        W34079   3.922   6.562  15.109  0.5050  0.0045  0.1677
27480W        W34080   1.012   0.083  26.141  0.1762  0.0017  0.0518
27481W        W34081  15.146   3.780   4.315  0.0176  0.0742  0.1011
27482W        W34082  15.814   5.402  34.952 -0.1692 -0.0340 -0.1370
27483W        W34083   2.156   2.799  28.775 -0.0224 -0.1660  0.1701
27484W        W34084  18.193   1.399  27.444  0.1088 -0.0766  0.0917
27485W        W34085   9.596   1.979   8.608  0.0295 -0.1131  0.0519
27486W        W34086   5.296   0.275   2.462  0.0335 -0.2058 -0.0354
27487W        W34087  12.506   4.305  24.962  0.4482 -0.1265  0.0645
27488W        W34088  23.942   5.708  29.318  0.1025  0.1563  0.2614
27489W        W34089  22.466   0.638  26.834 -0.4268 -0.3931 -0.0454
27490W        W34090  14.121   0.049   2.059 -0.2272 -0.1468 -0.0707
27491W        W34091  25.557   0.247  28.503  0.2220  0.0651  0.0531
27492W        W34092  25.992   6.378  26.372 -0.1772  0.1737  0.0666
27493W        W34093  12.733   2.565   7.433 -0.2455 -0.3153  0.1017
27494W        W34094  19.429   2.296  10.329 -0.1444  0.0366 -0.0997
27495W        W34095   1.640   0.735   5.016 -0.0660  0.2193  0.0126
27496W        W34096  19.691   4.921   5.894  0.1906 -0.0922 -0.0613
27497W        W34097  12.730   4.922   5.900 -0.1890 -0.1848 -0.2055
27498W        W34098   8.251   2.706   8.235 -0.0573  0.1296  0.0802
27499W        W34099  19.259   0.845  26.485  0.0627 -0.2440 -0.0988
27500W        W34100   9.842   5.307  10.073  0.0605 -0.0863  0.2520
27501W        W34101   7.197   3.876  23.893  0.1938 -0.0822 -0.1664
27502W        W34102  24.116   3.152   7.800 -0.0712  0.1233  0.4182
27503W        W34103  17.703   3.572  32.287 -0.0948 -0.2684  0.2518
27504W        W34104  10.780   1.197  31.807 -0.0855 -0.1147  0.0770
27505W        W34105  24.049   3.596  22.051 -0.2733 -0.1775 -0.0402
27506W        W34106  15.703   2.227  14.578 -0.1103  0.1756  0.0241
27507W        W34107  14.998   4.285  34.712 -0.1774  0.1566  0.0503
27508W        W34108   7.731   4.855  11.314 -0.2036  0.1121  0.0663
27509W        W34109  11.227   2.484  25.863  0.1669 -0.1827  0.0697
27510W        W34110  19.081   6.076  14.352  0.1684  0.1918 -0.0373
27511W        W34111   4.980   1.659   0.609 -0.0765 -0.1514 -0.0646
27512W        W34112  20.682   5.307   6.255 -0.1023  0.1266 -0.0095
27513W        W34113  22.189   5.072  25.550  0.0672 -0.0460  0.0425
27514W        W34114   4.744   2.186  15.906  0.2338 -0.1594  0.1438
27515W        W34115   7.622   2.769   9.273  0.0056 -0.0959  0.0547
27516W        W34116  15.447   1.692   6.020 -0.2493 -0.2107  0.2384
27517W        W34117  10.079   6.320  14.420 -0.1355  0.0390 -0.0193
27518W        W34118  18.829   4.538  12.094 -0.1309 -0.2868 -0.0246
27519W        W34119   3.704   0.976   1.898 -0.0952 -0.0170 -0.1234
27520W        W34120   6.807   3.739   9.321  0.2550  0.1991 -0.1095
27521W        W34121  16.481   1.520  26.055  0.1397  0.0694  0.0153
27522W        W34122  24.115   4.897  28.836 -0.1321 -0.0331  0.4317
27523W        W34123  18.033   3.535  21.950  0.3568 -0.0279 -0.0392
27524W        W34124  15.601   1.333   3.702 -0.0128  0.0065 -0.0457
27525W        W34125  12.926   2.115  11.104 -0.1208  0.1184  0.1604
27526W        W34126  19.569   2.455  27.436 -0.0699 -0.2902 -0.0412
27527W        W34127  23.419   2.277  34.565  0.1173  0.0074  0.3649
27528W        W34128  24.547   4.833  33.133  0.1273  0.0740  0.0518
27529W        W34129  16.207   5.745  25.091  0.1281  0.0126  0.1468
27530W        W34130  23.537   2.844   9.554  0.0359  0.1349  0.1112
27531W        W34131  23.805   5.498  34.282  0.2365  0.0710  0.5774
27532W        W34132   5.230   4.679  27.648  0.2120  0.1667 -0.0427
27533W        W34133   0.326   1.485  35.268  0.2609 -0.0167 -0.2069
27534W        W34134   8.007   2.444   7.238  0.1008 -0.1575 -0.1231
27535W        W34135   6.579   1.581   1.547  0.3161 -0.1031 -0.1275
27536W        W34136   0.348   6.340  13.007 -0.1643  0.0007 -0.0545
27537W        W34137  15.708   4.202  10.697  0.4324 -0.1776  0.1290
27538W        W34138  17.896   3.683  33.695 -0.0832 -0.0510  0.1653
27539W        W34139  25.417   2.018  24.588  0.1037 -0.1980 -0.1955
27540W        W34140   8.518   2.512   7.192 -0.2689  0.0672 -0.1088
27541W        W34141  11.498   0.978  34.727  0.2503 -0.1471  0.0143
27542W        W34142  19.116   3.230  28.656  0.5297 -0.2224 -0.1617
27543W        W34143  18.033   2.230  34.959 -0.2970 -0.3244 -0.0718
27544W        W34144  14.147   2.994  29.486 -0.0055 -0.2643  0.1183
27545W        W34145   4.450   2.287  32.865 -0.2384 -0.1530  0.0053
27546W        W34146  21.743   5.686  23.055  0.2892 -0.0244  0.2204
27547W        W34147   0.766   3.918  28.858 -0.0375 -0.1077 -0.2185
27548W        W34148   0.140   6.407   7.944  0.0442 -0.1919 -0.0703
27549W        W34149  23.600   3.670   3.873  0.1152 -0.0865 -0.2390
27550W        W34150  25.289   4.234   3.801  0.1310  0.0633  0.1658
27551W        W34151  11.913   3.400  23.865 -0.0047 -0.0337  0.2387
27552W        W34152  25.019   6.413  23.610 -0.1824 -0.1355  0.1204
27553W        W34153   9.667   4.142  28.305 -0.0418 -0.1505  0.0498
27554W        W34154   3.851   3.900   6.756 -0.2804  0.1064  0.1567
27555W        W34155  21.434   5.332  23.287  0.0787  0.1322 -0.1964
27556W        W34156   6.591   4.918  33.982 -0.0179 -0.1677  0.2379
27557W        W34157  25.278   5.588   1.772  0.0729  0.1262  0.0432
27558W        W34158   6.640   0.343   3.020  0.2365 -0.1443  0.0390
27559W        W34159  15.960   2.894   1.976 -0.2132 -0.1403  0.1925
27560W        W34160  12.077   0.713  27.271  0.1082 -0.1386 -0.1269
27561W        W34161  19.818   4.356  33.836 -0.2879 -0.0815  0.0136
27562W        W34162  22.599   2.795  28.181  0.1053  0.0680 -0.1268
27563W        W34163  22.252   1.851  20.999 -0.1097  0.0675  0.0369
27564W        W34164  17.932   5.984   9.578 -0.0444 -0.1768  0.0220
27565W        W34165   1.553   1.671  30.182 -0.1275  0.1256 -0.6389
27566W        W34166  25.172   4.425  31.106 -0.0837 -0.1857  0.0842
27567W        W34167   3.703   3.755  32.388 -0.1707  0.2511  0.1299
27568W        W34168  11.055   3.151  12.018  0.1590  0.1330  0.0270
27569W        W34169  20.323   3.272  10.198  0.2477  0.1537 -0.1198
27570W        W34170  10.943   3.039  35.515  0.1079  0.0612  0.0282
27571W        W34171   9.762   3.613  25.365  0.3222  0.0607  0.2381
27572W        W34172  10.145   3.543  12.642  0.0039  0.1733 -0.0711
27573W        W34173  20.359   3.121  31.485 -0.0484  0.1165  0.1490
27574W        W34174  12.665   3.826  21.483 -0.1236  0.2147 -0.0821
27575W        W34175  24.207   3.499   0.296  0.0257  0.0025 -0.1878
27576W        W34176   6.425   6.024   7.227  0.1757  0.2366  0.0122
27577W        W34177  10.330   1.981  24.904  0.3607  0.2137  0.0774
27578W        W34178  12.727   0.886  26.075 -0.1520  0.3207 -0.0201
27579W        W34179   8.854   3.881  28.657 -0.0811 -0.2754  0.2096
27580W        W34180  12.507   1.107  26.463 -0.1002 -0.0942 -0.1479
27581W        W34181  10.350   2.403  10.885  0.1711 -0.0499  0.1000
27582W        W34182   0.519   1.526  33.777  0.1320  0.1484 -0.0646
27583W        W34183  16.612   0.424   6.814  0.0152  0.2605 -0.0890
27584W        W34184  20.621   4.127  13.281 -0.0644 -0.2094 -0.0417
27585W        W34185  24.740   5.084  30.372  0.1444  0.1240  0.0128
27586W        W34186   8.514   2.955   2.025  0.0648 -0.1878  0.0317
27587W        W34187  20.167   5.790   0.830 -0.2071  0.1881 -0.0016
27588W        W34188  13.768   3.678  10.764 -0.2493  0.0948  0.0078
27589W        W34189  14.164   5.033  29.113 -0.2918  0.0662 -0.0739
27590W        W34190   4.085   1.927  35.855 -0.0740 -0.3704 -0.0242
27591W        W34191  22.537   2.465   1.078 -0.1885 -0.1060  0.0558
27592W        W34192  20.656   6.047   9.825 -0.2710  0.2107  0.2243
27593W        W34193  17.182   1.731  28.340  0.1017  0.3745  0.2228
27594W        W34194  23.564   5.995   8.626 -0.3394 -0.1989 -0.1775
27595W        W34195   1.081   0.175  13.683  0.3991 -0.2339  0.0903
27596W        W34196  21.963   4.850   6.101  0.0377  0.0160  0.0668
27597W        W34197  23.980   3.627  24.639 -0.3399  0.1305 -0.1453
27598W        W34198  10.894   4.962  26.014 -0.0065 -0.0873 -0.2217
27599W        W34199  16.278   5.856  25.609  0.1725  0.1207  0.0065
27600W        W34200  16.004   4.731   3.087 -0.0755 -0.0769  0.3006
27601W        W34201  22.716   4.747   7.569  0.1081 -0.3488 -0.0194
27602W        W34202  16.193   1.418  33.948 -0.3259  0.0021 -0.0102
27603W        W34203  13.687   2.834  34.452  0.1145  0.0485 -0.0621
27604W        W34204  22.820   6.434  31.717 -0.0429  0.3300  0.3216
27605W        W34205  15.181   4.653  13.006  0.5264 -0.4033  0.0790
27606W        W34206   8.850   0.826  35.003  0.0889 -0.1467  0.0148
27607W        W34207  25.429   4.652  12.444 -0.1250 -0.2594  0.1936
27608W        W34208  16.813   3.216   8.713  0.0548  0.0412  0.1539
27609W        W34209  26.364   4.121  28.179 -0.1465  0.1337 -0.1473
27610W        W34210  17.355   3.428   7.529 -0.1110  0.0221  0.0613
27611W        W34211  16.913   0.194   3.257  0.3804 -0.0428 -0.0164
27612W        W34212  20.662   1.402   4.460 -0.0307  0.2194 -0.2792
27613W        W34213  24.295   1.426  31.614 -0.1676  0.0205 -0.3555
27614W        W34214  16.163   1.102   3.897  0.0320 -0.1254 -0.1438
27615W        W34215  25.661   5.549  10.747  0.4803 -0.0379  0.3119
27616W        W34216  18.361   0.994  31.325  0.0621 -0.1375 -0.1235
27617W        W34217   5.630   0.948  27.871  0.1274 -0.2828  0.1671
27618W        W34218  17.442   1.871   1.709  0.1465  0.0884  0.1248
27619W        W34219  14.383   2.373   5.465  0.0693  0.1303  0.4188
27620W        W34220  11.439   0.090   8.172 -0.2382  0.2528  0.0042
27621W        W34221  26.253   4.672   4.469  0.1888 -0.0374 -0.1880
27622W        W34222  16.121   2.787   3.471 -0.0501  0.2681 -0.3110
27623W        W34223   8.292   4.789  10.937  0.0417 -0.0188 -0.0077
27624W        W34224  17.895   0.117  31.877  0.0620  0.1571 -0.2376
27625W        W34225  20.108   2.340  30.035 -0.1225  0.1763  0.2707
27626W        W34226  21.741   4.209  25.021 -0.1572 -0.0511  0.0120
27627W        W34227  15.375   2.471   8.728  0.1298  0.0027 -0.2630
27628W        W34228  25.803   4.856  15.771 -0.0589 -0.0337 -0.0601
27629W        W34229  15.924   1.150  22.069 -0.1763  0.5062  0.0290
27630W        W34230   3.161   3.257  31.918 -0.0449  0.1689 -0.1293
27631W        W34231   6.695   1.475  34.631  0.1215  0.1074  0.0752
27632W        W34232  16.914   5.032  14.506  0.2702 -0.0307  0.3522
27633W        W34233  12.246   5.108  12.137  0.1424 -0.1349 -0.0338
27634W        W34234  14.217   4.178  29.313  0.1533  0.0305 -0.0606
27635W        W34235   4.937   5.462  34.536 -0.0132  0.1100  0.1717
27636W        W34236  24.337   3.937   3.566  0.0828 -0.2376 -0.0673
27637W        W34237  20.843   3.218   8.945  0.2851  0.2361  0.1947
27638W        W34238   8.456   4.115   2.612  0.1287 -0.1234 -0.0098
27639W        W34239   8.154   3.377   6.394 -0.2585 -0.1816  0.0402
27640W        W34240  10.449   2.031   1.401  0.0914 -0.0387 -0.1460
27641W        W34241  15.375   1.809  21.633  0.3091 -0.2086 -0.0320
27642W        W34242  12.882   0.017  15.643  0.1629  0.1140 -0.2004
27643W        W34243   4.267   5.615   2.858 -0.1881  0.0246  0.0088
27644W        W34244   0.792   5.119  34.898 -0.0592 -0.4216  0.1481
27645W        W34245  23.810   3.157   5.289  0.4931  0.0313 -0.0453
27646W        W34246  20.963   0.411  22.842  0.4162  0.0633  0.0268
27647W        W34247   1.292   2.980  24.051  0.3287  0.1892 -0.3813
27648W        W34248  14.059   3.141   2.932  0.2445 -0.0568 -0.1521
27649W        W34249  20.743   5.372   4.305  0.1628 -0.1768  0.1358
27650W        W34250   1.009   5.093  29.058 -0.3638 -0.0314  0.0037
27651W        W34251  12.879   1.299  30.212  0.0634  0.0592 -0.3623
27652W        W34252   5.401   3.359  28.012  0.0001 -0.1950  0.2208
27653W        W34253  20.455   5.853   5.204  0.1966  0.1185  0.0713
27654W        W34254   1.344   0.791  27.662  0.0683 -0.2120 -0.3161
27655W        W34255  18.760   0.453  12.840  0.1922 -0.1791 -0.1254
27656W        W34256  19.313   2.528  35.404  0.2642 -0.0299  0.0348
27657W        W34257  16.786   4.256   0.324  0.1433 -0.1134 -0.0329
27658W        W34258  11.822   6.143   5.816 -0.0985  0.1012 -0.0315
27659W        W34259   5.505   0.959  15.209  0.1188  0.1759 -0.3079
27660W        W34260  15.897   3.964  32.756  0.0522  0.2265 -0.3080
27661W        W34261  10.429   2.388   1.909  0.1170 -0.0055 -0.2045
27662W        W34262   7.346   5.992   3.651 -0.1515 -0.0866 -0.1985
27663W        W34263  14.202   3.679  26.546  0.2523  0.0835 -0.1905
27664W        W34264  18.103   2.006  11.415  0.2653  0.1074  0.0672
27665W        W34265  10.093   4.957   7.997  0.0517  0.1014 -0.1207
27666W        W34266   9.589   4.335  32.334 -0.1760 -0.0629  0.1992
27667W        W34267  10.440   5.635  24.364  0.3943  0.0027 -0.0444
27668W        W34268   0.490   0.816   4.488 -0.3163  0.1660  0.0385
27669W        W34269   6.554   1.690  32.643  0.0146  0.1695  0.0466
27670W        W34270   5.455   1.823  28.161 -0.3651  0.0223 -0.1744
27671W        W34271  26.124   0.337   9.578  0.0652 -0.1652 -0.2305
27672W        W34272   6.847   3.543  11.101  0.3719 -0.0803 -0.0009
27673W        W34273  23.051   0.113  24.822  0.1174 -0.0050  0.2459
27674W        W34274   7.552   0.332  22.927  0.3355 -0.1301 -0.0287
27675W        W34275   9.081   2.395   6.386  0.0413  0.0713  0.1886
27676W        W34276   5.006   3.588   4.291 -0.3257 -0.1314  0.0632
27677W        W34277  20.767   5.661  21.025 -0.1054 -0.0225  0.1757
27678W        W34278  12.484   4.548   0.607  0.2092  0.1134  0.2296
27679W        W34279   9.887   3.076  31.960 -0.0798  0.0652 -0.0756
27680W        W34280   5.431   3.005  11.560  0.1098  0.2304 -0.1628
27681W        W34281  22.851   4.241   6.289 -0.0287  0.1030 -0.2135
27682W        W34282   9.708   3.881   5.228 -0.4084  0.1801 -0.0824
27683W        W34283  20.935   4.856  10.947 -0.0607  0.2260 -0.3089
27684W        W34284   5.604   2.925   5.872  0.3049  0.0342 -0.0472
27685W        W34285  21.128   2.976  12.103  0.0611 -0.1419 -0.0998
27686W        W34286  15.400   2.208  15.013  0.2104  0.0579  0.0195
27687W        W34287  22.509   2.500   9.660 -0.0934 -0.0124 -0.0784
27688W        W34288  10.133   4.590  34.621 -0.0488  0.0521  0.0084
27689W        W34289  17.092   6.498  23.130 -0.1247  0.1744  0.1821
27690W        W34290   5.977   0.385  25.082  0.1013 -0.1302 -0.0777
27691W        W34291   0.255   5.101  25.647  0.4237  0.0743 -0.4882
27692W        W34292   3.787   5.082   2.998  0.1045 -0.0910  0.1186
27693W        W34293   9.988   4.568   3.917  0.0193  0.0046  0.1262
27694W        W34294   8.231   6.410  13.548 -0.0718 -0.0348  0.2633
27695W        W34295   1.048   3.395  31.740  0.1625  0.1700  0.1199
27696W        W34296   9.455   0.639  13.338 -0.0058 -0.1419  0.1211
27697W        W34297  14.903   5.824  32.261  0.0561  0.2175 -0.0658
27698W        W34298   3.615   3.462   8.680 -0.2072 -0.1536  0.0727
27699W        W34299   4.987   2.864  34.585  0.2299  0.4164  0.2894
27700W        W34300  18.151   5.350  28.533  0.2120  0.0877 -0.1559
27701W        W34301   0.430   0.359  14.369  0.1466 -0.3263 -0.2032
27702W        W34302   5.558   3.331  12.775  0.1449  0.2380  0.2098
27703W        W34303   7.990   5.196  12.688 -0.0735 -0.2959 -0.3668
27704W        W34304  15.027   3.174  34.166 -0.0919 -0.1689  0.0580
27705W        W34305  20.840   3.129  22.336  0.1867 -0.0145  0.2309
27706W        W34306  23.061   2.006  28.536 -0.1047 -0.0623 -0.0973
27707W        W34307   7.792   3.854  16.202 -0.2580  0.0948 -0.0846
27708W        W34308  17.242   3.983  21.059 -0.1584 -0.1837  0.2627
27709W        W34309  19.077   1.900  23.038  0.3015  0.2634 -0.2563
27710W        W34310  23.397   1.443   1.689  0.2298 -0.3786 -0.0115
27711W        W34311   4.745   6.336  32.415  0.0495  0.2588  0.1928
27712W        W34312  24.858   6.261   0.697 -0.0154  0.2283 -0.1927
27713W        W34313   9.397   0.429   2.094  0.2304  0.2597  0.1275
27714W        W34314  16.697   1.247   6.560 -0.0519 -0.2602 -0.1008
27715W        W34315  10.291   0.030   5.394  0.0724 -0.1437 -0.2644
27716W        W34316   9.515   6.149  29.370  0.1974 -0.3198 -0.1996
27717W        W34317  22.877   3.560  12.888 -0.2533  0.0479  0.2322
27718W        W34318  17.437   5.865  30.649 -0.1088 -0.0021 -0.0978
27719W        W34319  16.564   5.762   8.826 -0.1224 -0.1847 -0.1695
27720W        W34320  14.189   6.133  30.744  0.3141 -0.1279  0.0607
27721W        W34321   4.857   3.444  33.859  0.2642  0.2844 -0.1136
27722W        W34322  20.425   2.010  10.667  0.3776  0.0248 -0.2682
27723W        W34323   0.956   3.987  28.393  0.1532 -0.0119  0.0015
27724W        W34324  22.144   0.918  35.693 -0.0068 -0.0845  0.0410
27725W        W34325  19.445   3.187  22.656 -0.0893  0.3984 -0.0487
27726W        W34326  11.026   4.881   8.988  0.0740 -0.3104  0.1057
27727W        W34327  12.192   3.445  24.366 -0.0045 -0.0093 -0.1593
27728W        W34328  11.669   3.971  21.795  0.1523 -0.0401  0.0706
27729W        W34329  10.495   0.711  31.043  0.0481  0.0881  0.0553
27730W        W34330   1.182   0.886   1.188 -0.1439 -0.0770 -0.0005
27731W        W34331  20.047   4.708  11.581 -0.0378  0.0926  0.1256
27732W        W34332   5.043   2.776  28.933  0.1037 -0.2890 -0.0703
27733W        W34333  13.538   4.255   9.414  0.0279 -0.2687  0.0670
27734W        W34334  22.679   2.183  30.572 -0.0033  0.0240  0.2583
27735W        W34335  19.163   2.030  34.036  0.1132 -0.0933  0.1553
27736W        W34336   7.868   0.484  27.782 -0.1706  0.2528  0.0623
27737W        W34337  19.845   4.572   8.678 -0.1077 -0.0124 -0.2224
27738W        W34338  18.997   2.289   3.646  0.0926 -0.1018 -0.1308
27739W        W34339  12.183   4.705  15.026 -0.1573 -0.1558 -0.2294
27740W        W34340  15.712   3.419  13.913 -0.1566 -0.0526  0.0050
27741W        W34341  12.696   5.025  28.688  0.0626 -0.1688  0.0021
27742W        W34342  19.629   5.784   3.393 -0.0736  0.2407 -0.0138
27743W        W34343  25.337   0.712  22.039 -0.3824 -0.0443  0.0051
27744W        W34344   4.031   0.581  15.613 -0.2279 -0.3783 -0.2021
27745W        W34345  21.749   0.889   8.889 -0.0771 -0.1090  0.1879
27746W        W34346   5.463   5.341  21.976  0.0224 -0.0172  0.0714
27747W        W34347  19.495   1.203   9.762  0.4106  0.1642  0.0817
27748W        W34348  13.979   1.961   1.349  0.0122 -0.0588 -0.2059
27749W        W34349   3.730   6.558  31.866  0.1231 -0.0002 -0.1198
27750W        W34350   4.481   0.679   8.657 -0.1482 -0.1195 -0.1118
27751W        W34351   2.741   1.528  32.072  0.1913  0.1015 -0.0434
27752W        W34352  11.691   0.315  26.068  0.0283 -0.3776 -0.0496
27753W        W34353   4.508   5.378  11.315  0.0567  0.0133 -0.2062
27754W        W34354  10.086   3.687   8.745  0.1119 -0.2673 -0.0365
27755W        W34355  25.305   4.032   8.801 -0.0089 -0.0323  0.0117
27756W        W34356   4.778   0.668  13.004 -0.0128 -0.0217  0.1888
27757W        W34357  13.289   0.933   0.410  0.0797  0.0486  0.1101
27758W        W34358  10.261   1.746  33.865 -0.2156  0.0204  0.0019
27759W        W34359   9.744   5.043  23.892  0.1278  0.2543 -0.0573
27760W        W34360  18.105   3.079  12.387 -0.3241 -0.3175 -0.0068
27761W        W34361   5.447   6.087  24.375  0.0248 -0.1343  0.0409
27762W        W34362   2.447   3.284   6.614 -0.0484  0.0922 -0.0578
27763W        W34363  13.789   3.145   9.304  0.0199 -0.0768 -0.0291
27764W        W34364  15.226   6.481   2.960 -0.0551 -0.2252  0.0690
27765W        W34365  16.509   0.458   3.020 -0.0772 -0.0043 -0.4343
27766W        W34366   4.270   1.317  26.142  0.1502  0.1145 -0.1486
27767W        W34367   0.533   3.723   9.311  0.0739 -0.2009  0.2625
27768W        W34368   9.133   0.699  24.038  0.0087  0.1138 -0.1373
27769W        W34369   1.172   4.983  31.190 -0.0283  0.0685  0.0612
27770W        W34370  13.335   5.539  11.679 -0.1257 -0.0113 -0.0212
27771W        W34371  15.008   0.596  22.133 -0.0139 -0.2367  0.3058
27772W        W34372  20.547   1.579  10.940 -0.1289 -0.0247  0.1042
27773W        W34373  22.152   5.257  32.983  0.0184 -0.3999 -0.2272
27774W        W34374   1.352   6.239  33.521  0.3602  0.1165 -0.0738
27775W        W34375   4.424   0.400  31.525 -0.1877 -0.4166 -0.1981
27776W        W34376  25.428   4.356  31.533 -0.0518  0.0351  0.1987
27777W        W34377  12.375   5.370  20.667 -0.1196 -0.3864  0.1126
27778W        W34378   5.958   2.537  28.888 -0.0439  0.1810  0.1341
27779W        W34379   0.961   2.109   9.662 -0.2147  0.0695  0.0317
27780W        W34380   8.655   1.732   9.251 -0.1401 -0.2135 -0.0592
27781W        W34381  22.288   3.628  27.694  0.0789 -0.1276  0.0897
27782W        W34382   7.428   5.352  29.695  0.1041  0.1541 -0.1940
27783W        W34383  14.294   5.235   6.078  0.1601 -0.1608 -0.1395
27784W        W34384  15.821   0.824  12.310 -0.3957 -0.1972 -0.0524
27785W        W34385  16.678   1.344  14.868  0.0448  0.2110  0.1755
27786W        W34386  23.696   6.230  12.410  0.2370 -0.3249 -0.0416
27787W        W34387   8.370   2.426  29.228 -0.1390 -0.0170  0.1397
27788W        W34388   7.676   6.175  33.069  0.1939  0.0409  0.1322
27789W        W34389   6.427   3.221  26.387  0.3165 -0.3895  0.1586
27790W        W34390  13.399   3.149   6.808  0.0207 -0.1218  0.1522
27791W        W34391   8.512   1.975   1.968 -0.0112 -0.1156 -0.2840
27792W        W34392  15.482   5.985  25.336 -0.0879 -0.1810  0.2525
27793W        W34393  13.440   3.929  12.907 -0.0298  0.0198  0.2724
27794W        W34394  25.581   4.999  10.893  0.0900 -0.1313  0.0812
27795W        W34395   2.943   5.736  11.328 -0.3122 -0.1171  0.0241
27796W        W34396   4.307   3.701   6.724  0.2546 -0.3123 -0.1146
27797W        W34397  24.398   1.842  29.095  0.1405 -0.0396 -0.0766
27798W        W34398   0.499   2.679  29.886  0.0925 -0.0121 -0.0595
27799W        W34399   0.204   3.144  10.527  0.0876 -0.0386  0.2741
27800W        W34400  20.702   3.178   0.966 -0.1899  0.1250 -0.2679
27801W        W34401  21.824   3.123  12.863  0.0922 -0.1146  0.3055
27802W        W34402   7.444   6.091  13.525 -0.1283  0.1139  0.1183
27803W        W34403   6.568   3.284   6.798 -0.0578  0.0751 -0.3628
27804W        W34404  23.166   3.312   3.979 -0.2137 -0.1713  0.0252
27805W        W34405  20.322   4.973  24.253 -0.0987 -0.1706  0.1205
27806W        W34406   2.678   4.810  30.244  0.2009  0.3098  0.0642
27807W        W34407  24.495   4.077  28.945 -0.1324  0.1662  0.0257
27808W        W34408  23.813   0.575   1.981  0.1733  0.0407  0.1355
27809W        W34409  11.119   2.253  12.261  0.2108  0.2660  0.1599
27810W        W34410  26.101   2.714  25.036  0.2109  0.2767  0.0482
27811W        W34411   1.243   2.610   2.086  0.0540 -0.1131 -0.1827
27812W        W34412   4.495   3.715  34.010 -0.0833 -0.0211  0.1030
27813W        W34413  11.092   5.237  24.724  0.0752 -0.1146  0.0840
27814W        W34414  25.323   0.931  23.332  0.1733  0.2952 -0.1939
27815W        W34415  16.494   2.807   5.029 -0.2000 -0.1956  0.0160
27816W        W34416   0.087   2.295   4.958 -0.1453  0.0763  0.0284
27817W        W34417   1.327   0.400  12.707  0.2297 -0.3021 -0.1792
27818W        W34418  22.033   6.065  22.871  0.4328 -0.2181 -0.4450
27819W        W34419  10.025   2.259  14.193 -0.1753 -0.1054  0.1120
27820W        W34420  16.885   5.271   7.080 -0.0681 -0.3742  0.6665
27821W        W34421  10.939   3.073  10.691 -0.0792 -0.1107  0.2113
27822W        W34422  17.441   5.710  33.247  0.4573 -0.1555  0.0424
27823W        W34423   1.208   6.414   8.858 -0.1310  0.0307 -0.1008
27824W        W34424  19.168   0.523  31.407  0.1430 -0.0267 -0.2055
27825W        W34425  19.767   4.269  11.532  0.2033  0.1444  0.1265
27826W        W34426  21.462   5.985  25.714 -0.1251 -0.0803 -0.0725
27827W        W34427  13.127   4.028  14.962  0.0070 -0.3607 -0.0086
27828W        W34428   7.065   4.850  21.064  0.0841 -0.0145 -0.0521
27829W        W34429   8.696   6.430  24.211 -0.1133 -0.2458  0.0324
27830W        W34430  14.588   1.603  35.871  0.2157 -0.0959  0.1584
27831W        W34431  14.358   6.298   2.885  0.0670  0.1033  0.1110
27832W        W34432  15.770   0.297   6.543  0.0058  0.3658  0.0498
27833W        W34433  10.687   0.597  23.787 -0.1829 -0.0572  0.1545
27834W        W34434  11.437   6.506  16.004 -0.2733  0.0379  0.3172
27835W        W34435   7.946   0.737  34.764 -0.1012  0.1383  0.0384
27836W        W34436   7.661   3.893  10.753  0.1494  0.2294 -0.3534
27837W        W34437   0.211   4.209   9.296 -0.2118  0.1525 -0.1174
27838W        W34438  16.574   6.503  11.752 -0.3016  0.0833  0.3822
27839W        W34439  18.342   5.658  23.457  0.1133  0.1342 -0.1173
27840W        W34440   0.157   6.565  27.149  0.5065 -0.0513  0.2766
27841W        W34441  11.867   2.817  34.212 -0.0215  0.1232 -0.1731
27842W        W34442  20.080   2.466  26.224  0.3262 -0.0632  0.2347
27843W        W34443  15.934   5.358   8.929  0.0754 -0.1031 -0.0615
27844W        W34444  15.691   5.041  24.047 -0.1868  0.1213 -0.0811
27845W        W34445  14.315   1.745   6.812  0.1466 -0.2622  0.0470
27846W        W34446  13.536   3.580  32.446 -0.0705 -0.0101  0.1301
27847W        W34447   3.376   4.721  13.742  0.0913  0.2057  0.0595
27848W        W34448  12.612   0.806  30.244 -0.2311  0.1523  0.1077
27849W        W34449   2.954   5.356   6.788  0.0359 -0.0609 -0.1591
27850W        W34450  18.088   1.236  31.639  0.0050 -0.3718  0.0627
27851W        W34451  21.166   2.356  34.245 -0.3892 -0.4180 -0.0766
27852W        W34452  13.327   3.871  28.570  0.0764  0.0169  0.1519
27853W        W34453   6.935   1.975  13.378 -0.2291 -0.0858 -0.0739
27854W        W34454  26.312   2.629   3.678 -0.1961  0.2445 -0.0929
27855W        W34455  25.689   3.247  27.190  0.0588 -0.0274 -0.4737
27856W        W34456   9.273   0.982  24.975 -0.2192 -0.2925  0.4317
27857W        W34457   9.899   0.650  32.406  0.1673 -0.0063 -0.1823
27858W        W34458  25.695   2.007  30.340 -0.0115 -0.2464 -0.1115
27859W        W34459   7.770   3.320  21.282  0.0889  0.1774 -0.3355
27860W        W34460   3.575   4.809  10.768  0.0459 -0.0885  0.1037
27861W        W34461  25.389   2.858  10.040 -0.2929  0.0530 -0.4870
27862W        W34462  21.997   4.897   1.941  0.3549  0.3866  0.1010
27863W        W34463  16.583   5.051  10.172 -0.3581 -0.0641 -0.3574
27864W        W34464  11.376   3.738  31.050 -0.0243  0.0855 -0.0472
27865W        W34465   6.295   5.519  24.438  0.1881  0.1215  0.5532
27866W        W34466  13.103   5.334  24.392 -0.0241 -0.0687  0.0209
27867W        W34467   3.126   4.021  30.305 -0.1135 -0.0418  0.0258
27868W        W34468  14.158   5.109  21.414 -0.2590 -0.0872 -0.2169
27869W        W34469  17.815   4.668  30.539  0.3218 -0.0328  0.2155
27870W        W34470  11.601   3.683  15.341 -0.0834  0.1029 -0.1775
27871W        W34471  21.279   5.468  36.070 -0.2146 -0.3042  0.0166
27872W        W34472  13.590   5.090   1.608 -0.0521 -0.1306 -0.0289
27873W        W34473  22.487   1.877   8.921 -0.2325  0.1488 -0.0865
27874W        W34474  21.522   1.250  21.776 -0.3251  0.1608  0.0448
27875W        W34475   9.318   3.848  29.623 -0.1991 -0.0948 -0.0039
27876W        W34476  18.898   3.559   0.635  0.0819 -0.0196 -0.0679
27877W        W34477  23.986   1.301  22.224 -0.1112  0.0105 -0.0291
27878W        W34478   3.878   0.831   2.944  0.0562  0.1839  0.0226
27879W        W34479  24.275   0.067  34.899  0.0028  0.0440 -0.0337
27880W        W34480  26.229   1.628   6.567  0.1743  0.1724 -0.1058
27881W        W34481   6.419   5.769  26.239  0.2542  0.0915 -0.1468
27882W        W34482  23.117   2.558  27.134 -0.0003 -0.2756  0.1703
27883W        W34483  12.013   4.974  15.432 -0.0902  0.1599 -0.0297
27884W        W34484  20.496   3.936  25.751 -0.0519  0.0563  0.2713
27885W        W34485   0.975   4.498   2.189 -0.4827 -0.0538 -0.0419
27886W        W34486  25.710   5.865  25.269 -0.1553  0.1202  0.0032
27887W        W34487   9.351   4.834   6.090 -0.1033 -0.1633 -0.1585
27888W        W34488  12.797   4.017  13.715  0.3587 -0.1225  0.0043
27889W        W34489  18.829   2.381  21.694  0.1342  0.2987 -0.0806
27890W        W34490   9.853   2.430   9.479 -0.0431 -0.0301 -0.0682
27891W        W34491   4.466   1.946  24.060 -0.2530  0.1222 -0.2781
27892W        W34492  14.698   3.348   5.325 -0.5075 -0.0861  0.0029
27893W        W34493   7.769   4.639  11.890 -0.1936  0.0093 -0.0943
27894W        W34494  10.396   4.665  22.402 -0.1505  0.0599  0.0767
27895W        W34495   8.880   4.733   1.196 -0.0003  0.3045 -0.0862
27896W        W34496  13.578   6.140  22.480 -0.0247 -0.2697  0.0325
27897W        W34497   4.621   4.727  13.629 -0.2895 -0.1005 -0.3444
27898W        W34498   3.988   4.220   3.718 -0.1731 -0.1065  0.3398
27899W        W34499   7.872   1.368  14.776 -0.0301  0.2214  0.2383
27900W        W34500  12.178   4.203  14.704 -0.1186 -0.0785 -0.2258
27901W        W34501   3.599   4.252  22.738 -0.0389 -0.1146  0.0034
27902W        W34502   5.436   3.917  26.218  0.0775 -0.0488 -0.1119
27903W        W34503   0.489   0.065   3.797 -0.0819  0.0352 -0.4517
27904W        W34504  22.557   0.898  20.820  0.1978 -0.0650  0.1238
27905W        W34505  19.924   4.629  30.826  0.0149  0.1134 -0.2495
27906W        W34506  14.550   1.204  27.294  0.0020  0.0679  0.0719
27907W        W34507   8.111   5.105  35.197  0.0353  0.2772  0.2707
27908W        W34508   1.655   4.947  11.311  0.0775 -0.1243 -0.0108
27909W        W34509  25.329   1.897  28.435  0.0191 -0.0249 -0.3092
27910W        W34510  19.583   0.294  32.522  0.1679 -0.0817  0.2177
27911W        W34511   8.360   5.533  13.373  0.1287  0.0665 -0.0012
27912W        W34512   1.494   4.770   6.050  0.1962 -0.2571  0.0800
27913W        W34513  26.394   2.922  12.638 -0.0102 -0.0212  0.2229
27914W        W34514  13.945   6.520  26.016  0.1524  0.0063  0.1885
27915W        W34515  21.624   3.299  24.755  0.0488 -0.1134  0.3644
27916W        W34516   5.636   0.714  11.311 -0.0035 -0.1921 -0.0578
27917W        W34517  10.679   2.727   6.815 -0.1879  0.1256 -0.1182
27918W        W34518   9.705   4.450  30.719 -0.1844  0.0147 -0.1136
27919W        W34519   9.176   4.038  24.128  0.0561  0.1738 -0.0241
27920W        W34520  25.453   0.257   2.942 -0.1256 -0.0159  0.2612
27921W        W34521  16.251   0.872  13.971 -0.1544 -0.0111 -0.0755
27922W        W34522   2.123   5.149  33.120 -0.0159  0.0088  0.0512
27923W        W34523  19.086   0.746   3.641 -0.0326  0.0051  0.3419
27924W        W34524  12.013   1.542   9.351  0.0355  0.1261 -0.0787
27925W        W34525   3.328   2.793  10.751  0.3733  0.1794  0.1495
27926W        W34526  18.827   3.288  30.077 -0.1804  0.0822  0.1104
27927W        W34527  21.300   5.468  34.812  0.1691  0.0498  0.0844
27928W        W34528   0.332   1.598  26.611  0.1774  0.1058  0.3582
27929W        W34529   7.020   2.157   2.737 -0.3388 -0.0876  0.0221
27930W        W34530  11.385   2.809  26.331 -0.0309  0.1473 -0.2960
27931W        W34531   0.471   4.554  20.845  0.0140 -0.2386 -0.1056
27932W        W34532   2.630   3.547   7.606  0.0152  0.2421  0.3318
27933W        W34533   1.778   0.091  10.269 -0.0155 -0.0135  0.1345
27934W        W34534   5.826   1.537  14.628  0.0641  0.0178 -0.2040
27935W        W34535   0.030   3.706   2.567  0.0729 -0.1100  0.1333
27936W        W34536   2.652   2.230   6.714 -0.1311 -0.3953 -0.0225
27937W        W34537  17.935   6.337  34.777 -0.0322 -0.0100 -0.1143
27938W        W34538  18.918   1.907  32.482 -0.0661 -0.0245  0.0605
27939W        W34539  20.767   6.071  14.042  0.3976  0.0388 -0.0136
27940W        W34540   6.359   5.413  29.027  0.1711  0.1026  0.0985
27941W        W34541   4.609   1.029  13.253  0.2885  0.0519  0.0421
27942W        W34542   9.018   4.160  27.733  0.0180 -0.2064 -0.2022
27943W        W34543   8.083   4.230  12.154  0.0437 -0.0290 -0.0144
27944W        W34544  26.391   1.718  23.611 -0.0850 -0.4140  0.0064
27945W        W34545  19.102   0.275  28.648 -0.0706 -0.2849  0.3161
27946W        W34546   0.927   2.442  24.320  0.3092  0.0500 -0.3943
27947W        W34547   1.773   6.237   6.792  0.1922  0.2671 -0.1593
27948W        W34548  17.799   3.145  29.248 -0.3010 -0.0064 -0.4489
27949W        W34549  24.922   2.881  12.522  0.0048 -0.2957  0.2557
27950W        W34550   6.443   3.493  29.973 -0.2990  0.1626 -0.0465
27951W        W34551  20.644   4.693  20.525  0.0390  0.1818  0.1300
27952W        W34552  18.841   0.998  34.865 -0.3265  0.0878  0.1866
27953W        W34553  12.649   2.612  24.290 -0.1127  0.2005  0.0249
27954W        W34554   6.986   0.541  31.230  0.1130  0.1278  0.3033
27955W        W34555  12.855   0.258  28.456  0.1055 -0.0038 -0.1162
27956W        W34556   7.866   5.656  15.274 -0.2948  0.1273 -0.0976
27957W        W34557   1.212   5.124  29.870 -0.2632 -0.1573 -0.1089
27958W        W34558   0.787   2.128  23.924 -0.1503 -0.4399 -0.1280
27959W        W34559   6.736   5.717  23.069 -0.2746 -0.0570  0.0322
27960W        W34560  24.668   1.740  26.229 -0.0933  0.0487  0.0879
27961W        W34561   1.186   4.668  13.038 -0.0460  0.2529  0.0218
27962W        W34562  13.096   0.480   1.038  0.2286  0.1832 -0.0299
27963W        W34563  13.895   1.417   7.400  0.0049 -0.0795  0.1495
27964W        W34564  11.355   4.197  27.721 -0.2331 -0.0779  0.0471
27965W        W34565   2.188   1.505   0.468 -0.1147  0.3119  0.1730
27966W        W34566  11.673   5.255   3.276 -0.0031 -0.0109  0.1240
27967W        W34567  21.139   4.913  28.628 -0.0893 -0.0642  0.2905
27968W        W34568   9.801   5.028  26.824 -0.0410 -0.1164  0.1470
27969W        W34569   2.805   3.702   4.803 -0.3042 -0.0567 -0.1695
27970W        W34570  20.487   5.220   7.138  0.0412  0.3955 -0.0727
27971W        W34571  12.022   4.441  35.437  0.3658  0.0639  0.0094
27972W        W34572  22.262   6.303  12.305 -0.0444  0.2037 -0.0313
27973W        W34573  20.232   1.921  25.185 -0.1890  0.1192 -0.0564
27974W        W34574   5.889   5.899   4.970 -0.0254 -0.0350  0.0071
27975W        W34575  19.644   4.564   6.850 -0.2384  0.1121 -0.1252
27976W        W34576  15.981   5.791  26.337  0.3834 -0.0737 -0.1230
27977W        W34577  12.384   5.494  23.239  0.0787 -0.2903 -0.0753
27978W        W34578  23.826   5.578   4.261 -0.3133  0.2464 -0.0024
27979W        W34579   0.597   3.406  24.032  0.0245 -0.0824  0.3552
27980W        W34580  11.167   3.980  28.678  0.0132 -0.2157 -0.0150
27981W        W34581   9.079   0.458   7.557 -0.1438 -0.0757  0.2650
27982W        W34582   0.362   2.740  35.937 -0.0947 -0.1363 -0.0864
27983W        W34583  13.689   3.619   7.012 -0.0634  0.4070  0.1514
27984W        W34584  14.565   4.813  14.356 -0.0249 -0.0959  0.2041
27985W        W34585  10.319   1.470  13.695 -0.1173  0.1375  0.5819
27986W        W34586   5.481   3.099  24.964 -0.0155  0.1658 -0.0029
27987W        W34587  21.070   1.266  22.672  0.0929  0.0643 -0.3003
27988W        W34588  15.305   2.526  24.488 -0.1219  0.0639 -0.1685
27989W        W34589  11.201   5.858   2.575  0.2970 -0.3905  0.2989
27990W        W34590   7.754   5.956  35.292 -0.4234 -0.0719 -0.2860
27991W        W34591  16.066   3.928   1.142 -0.2264 -0.0022  0.1120
27992W        W34592  12.559   5.763  33.125 -0.0013  0.2223  0.2382
27993W        W34593  10.229   0.559  26.944 -0.1100  0.2374 -0.2704
27994W        W34594   3.419   5.374  27.537 -0.0435  0.0344 -0.2199
27995W        W34595   3.012   5.404  24.725 -0.4074  0.0440 -0.0198
27996W        W34596  17.587   3.829  25.328  0.0825 -0.2578 -0.0249
27997W        W34597   8.091   4.863   1.694  0.3098 -0.0883  0.1084
27998W        W34598  20.981   5.099  24.071 -0.2175  0.2097 -0.0747
27999W        W34599   3.351   1.114  34.049 -0.2330  0.1262 -0.2279
28000W        W34600  14.092   5.465  11.309 -0.3223  0.2196 -0.1378
28001W        W34601  10.076   3.947   0.288 -0.3317 -0.2253 -0.2159
28002W        W34602   4.876   6.511   2.602 -0.0045  0.1770  0.1320
28003W        W34603  19.229   5.279  32.435  0.0101 -0.1014  0.1193
28004W        W34604  25.129   3.966   7.330 -0.2922  0.0896 -0.0335
28005W        W34605   0.136   4.036   7.992  0.0517  0.2212 -0.0452
28006W        W34606  10.746   0.120  13.037 -0.0702 -0.1721 -0.0203
28007W        W34607   1.129   2.825  22.904 -0.0695  0.0988  0.0018
28008W        W34608   5.791   2.022   0.848  0.0328  0.3932 -0.1307
28009W        W34609   4.011   6.583  29.675  0.1129 -0.1720 -0.3417
28010W        W34610  21.693   0.537  31.724 -0.2623  0.0371 -0.1037
28011W        W34611  13.636   2.302  12.327 -0.0381 -0.0524 -0.1251
28012W        W34612   4.033   6.593  13.814 -0.1888 -0.2049 -0.2020
28013W        W34613   3.718   6.203  26.002  0.0069  0.0626 -0.1531
28014W        W34614  19.696   2.089  13.217  0.2128 -0.0067  0.1279
28015W        W34615  25.011   5.603  33.482  0.1715 -0.0058  0.0121
28016W        W34616  13.126   1.819   3.759 -0.2926  0.3331 -0.0100
28017W        W34617  13.961   0.618  23.745 -0.2988 -0.0694 -0.0237
28018W        W34618  22.194   1.726  22.290  0.1837 -0.1976  0.0111
28019W        W34619   0.585   4.803  11.401  0.2328 -0.1451  0.1092
28020W        W34620   0.768   0.075  23.256 -0.0324  0.0364  0.0065
28021W        W34621  21.600   0.262   0.699 -0.2904  0.1896  0.0356
28022W        W34622  24.627   1.542  12.206 -0.0408 -0.0569 -0.3338
28023W        W34623  20.470   3.596  10.539 -0.2359 -0.1878  0.1437
28024W        W34624  21.136   0.157  32.149 -0.0473  0.1914  0.1439
28025W        W34625   8.356   2.863  13.313  0.3581  0.1147  0.1004
28026W        W34626   1.504   6.131  24.592  0.1134  0.1456 -0.0538
28027W        W34627   6.159   1.082   1.486 -0.1308  0.0105 -0.1942
28028W        W34628   2.023   3.624  26.030  0.0703  0.1000  0.3423
28029W        W34629  13.063   0.599  14.537 -0.0510  0.1803  0.0212
28030W        W34630  16.485   0.487   0.007  0.3277 -0.2732  0.0513
28031W        W34631   5.533   0.830   3.044  0.1821  0.0531 -0.2640
28032W        W34632  13.714   3.736  24.297 -0.1344  0.2289 -0.0223
28033W        W34633   8.629   2.942  35.830 -0.2432  0.4217 -0.0955
28034W        W34634   5.178   0.923   3.842  0.0341 -0.0611  0.0177
28035W        W34635  20.212   0.443  33.071  0.0223  0.1080 -0.1577
28036W        W34636   0.859   2.951   7.928 -0.3262 -0.2355  0.1558
28037W        W34637   5.831   4.225  35.423  0.0519  0.1839  0.0023
28038W        W34638   8.561   0.582   4.471  0.2442 -0.1375  0.0379
28039W        W34639  17.606   0.945  31.646  0.1591 -0.3382  0.1729
28040W        W34640  12.243   2.595   8.687  0.1453 -0.0482 -0.0587
28041W        W34641  19.446   0.839   0.406  0.0203 -0.0441  0.2267
28042W        W34642  13.169   6.340  29.833 -0.0527  0.0364  0.0347
28043W        W34643  18.050   6.276  27.066  0.1696  0.1522  0.0519
28044W        W34644  18.914   2.652  32.288 -0.0458  0.0136 -0.1180
28045W        W34645  10.842   1.093   7.115 -0.1888  0.0614  0.1003
28046W        W34646  23.356   0.115  25.792 -0.1792  0.0976  0.2770
28047W        W34647  19.726   4.689   2.820  0.0430 -0.0402  0.2212
28048W        W34648  24.762   1.096   4.055 -0.2271  0.1539  0.2231
28049W        W34649   3.416   3.447  14.438 -0.2834 -0.0287 -0.2664
28050W        W34650   8.081   0.898   7.950  0.1765  0.0100 -0.1279
28051W        W34651   4.986   2.604   7.832 -0.1886 -0.2014  0.1565
28052W        W34652   8.234   5.484  31.946  0.1445  0.0343 -0.1859
28053W        W34653  17.361   3.479  10.281  0.1562  0.0308 -0.1847
28054W        W34654  16.797   2.623   8.484 -0.0188  0.0480  0.0072
28055W        W34655  13.450   6.187  15.987 -0.1697  0.2272 -0.4200
28056W        W34656  19.933   1.056  13.314 -0.1558  0.3852 -0.1714
28057W        W34657   4.897   4.905   1.869  0.0318 -0.0207  0.2264
28058W        W34658  17.404   1.843   1.080 -0.0722 -0.1180  0.2070
28059W        W34659  13.251   3.190  29.246 -0.0357 -0.0331 -0.2374
28060W        W34660  14.669   4.304  29.524  0.1059 -0.1511  0.3970
28061W        W34661   2.347   1.780  31.866 -0.0567  0.2363 -0.0334
28062W        W34662  19.292   2.660  11.010  0.0973  0.4295 -0.1476
28063W        W34663   5.114   5.350  30.351 -0.0588 -0.2450  0.2972
28064W        W34664   1.194   2.002   0.932  0.2221  0.2507 -0.1485
28065W        W34665  10.421   4.411   1.613 -0.0560  0.2498 -0.2064
28066W        W34666  19.358   3.699   3.972 -0.1521 -0.2360  0.1104
28067W        W34667  22.484   6.016  33.869  0.1297  0.1077 -0.0199
28068W        W34668  26.217   3.233  14.352  0.1957 -0.2160  0.0386
28069W        W34669  14.131   1.206  21.747  0.0241 -0.1662  0.1433
28070W        W34670   2.294   2.219  25.958 -0.0268 -0.0744  0.0204
28071W        W34671  12.994   6.415   8.773 -0.0429  0.0961 -0.1244
28072W        W34672   7.728   1.896  14.860  0.0910 -0.1424 -0.2184
28073W        W34673   5.580   0.099  29.366 -0.1102  0.1975 -0.1982
28074W        W34674  20.125   0.945  12.072 -0.3355 -0.0447  0.1369
28075W        W34675   9.942   1.370   6.475  0.1598  0.1311 -0.1485
28076W        W34676  14.391   0.492  22.955  0.0660  0.1227 -0.3026
28077W        W34677  16.515   1.172  33.728  0.0291  0.3700 -0.0300
28078W        W34678   1.427   4.104   5.444 -0.0247  0.0842 -0.0702
28079W        W34679  23.530   0.223   2.234  0.1540  0.0640 -0.3715
28080W        W34680   5.578   4.189   2.834 -0.0468 -0.2337 -0.0521
28081W        W34681  15.660   1.187  25.144  0.0160  0.0966 -0.0655
28082W        W34682   0.436   5.363   0.651  0.0958 -0.1052  0.1110
28083W        W34683  23.819   2.794  32.206 -0.1293 -0.1047 -0.0023
28084W        W34684  22.183   0.085   8.095  0.2642  0.1529  0.2160
28085W        W34685   1.587   6.120  32.652  0.0948  0.0230 -0.2955
28086W        W34686  11.001   3.577   0.238 -0.0961 -0.1078 -0.2364
28087W        W34687  20.318   5.583  27.828  0.4652  0.0366  0.1823
28088W        W34688   1.591   1.697  27.938 -0.1056 -0.0238 -0.0714
28089W        W34689  19.839   6.370   7.390  0.1069 -0.2538  0.1948
28090W        W34690  17.623   2.733  21.300  0.0116  0.0289  0.0115
28091W        W34691  18.637   5.419  22.605  0.2210 -0.1970  0.0043
28092W        W34692   2.544   3.955   3.614  0.0133  0.0130  0.0704
28093W        W34693   6.633   5.575  14.171 -0.0440 -0.2111 -0.1794
28094W        W34694   6.595   3.325  30.440  0.1551 -0.2021  0.0843
28095W        W34695   6.911   6.527  10.060 -0.0025  0.1614  0.0428
28096W        W34696   9.070   2.408  22.733  0.1952 -0.1201  0.2597
28097W        W34697  15.179   4.401  14.933  0.0208 -0.3544  0.1195
28098W        W34698   2.068   1.139  22.951  0.3266 -0.1716  0.1063
28099W        W34699  21.232   1.837  26.221 -0.0451 -0.1931 -0.0279
28100W        W34700   6.507   4.534  12.925 -0.0520 -0.0996 -0.2808
28101W        W34701  11.892   5.475  27.566  0.0771  0.0056 -0.0289
28102W        W34702   9.588   3.252   2.496 -0.2636  0.1614  0.0519
28103W        W34703   1.169   1.455  10.449  0.1071  0.0152  0.1143
28104W        W34704  14.644   1.951  24.993  0.0156 -0.0828  0.3804
28105W        W34705   8.557   1.252  28.110  0.0443  0.2425 -0.0775
28106W        W34706  15.950   4.989  29.319 -0.2264 -0.0630 -0.1265
28107W        W34707   1.834   1.016  34.277  0.0806  0.1303 -0.0312
28108W        W34708  14.543   5.501   5.465  0.0627 -0.0654 -0.2770
28109W        W34709   4.847   6.061   8.981 -0.2744 -0.0521  0.1125
28110W        W34710  24.478   1.888  33.362 -0.1975  0.0900 -0.1416
28111W        W34711  25.867   3.148  29.334 -0.0717 -0.2394 -0.0872
28112W        W34712  16.216   2.757  24.380  0.0829  0.2019 -0.1305
28113W        W34713  14.976   5.491  21.479 -0.0783  0.2247  0.2435
28114W        W34714   4.178   3.799  13.230  0.0094  0.0951  0.0157
28115W        W34715   1.991   5.746  31.336 -0.1833  0.4238 -0.0280
28116W        W34716   3.732   3.827  21.150 -0.0222 -0.2391 -0.0919
28117W        W34717  19.329   4.851  25.164  0.0995 -0.2368 -0.0241
28118W        W34718  25.099   2.909  30.017 -0.0556 -0.0210 -0.0285
28119W        W34719  23.151   0.050   9.832 -0.1830  0.0750 -0.0658
28120W        W34720  23.129   5.266  10.164 -0.1084 -0.0335  0.1126
28121W        W34721  16.475   2.878  26.212 -0.1072 -0.1065  0.0530
28122W        W34722  18.980   5.001   3.835  0.1104  0.2716  0.0924
28123W        W34723   4.629   3.517  32.435 -0.0685 -0.2715 -0.1118
28124W        W34724   9.979   2.232   6.033  0.2495  0.2508 -0.0277
28125W        W34725  16.586   6.342  13.600 -0.1745  0.1122 -0.0671
28126W        W34726   4.536   5.663  28.675 -0.2073  0.1387 -0.0420
28127W        W34727  10.507   1.619  35.421 -0.1746 -0.0514  0.1867
28128W        W34728  24.612   1.117   9.944 -0.1812 -0.3366  0.0969
28129W        W34729  16.582   5.171  30.720 -0.2327 -0.4551 -0.1742
28130W        W34730  10.355   4.173  25.484 -0.1162 -0.0656 -0.2385
28131W        W34731  20.815   2.983  28.173 -0.0784  0.0679  0.1978
28132W        W34732   5.403   2.010  11.749 -0.0206 -0.1983  0.2944
28133W        W34733  14.345   5.511  28.106 -0.2923  0.0319  0.2094
28134W        W34734  17.101   3.177   4.314 -0.3302  0.1648 -0.1853
28135W        W34735   4.155   1.788   9.600  0.1697  0.1231  0.1560
28136W        W34736   4.635   6.297  25.378  0.0979  0.0757  0.1169
28137W        W34737   1.326   5.620   0.211  0.1737 -0.1054 -0.1002
28138W        W34738  12.058   3.657  10.352 -0.1769  0.0493 -0.0058
28139W        W34739  10.251   5.714   3.962  0.0947  0.0465  0.1620
28140W        W34740  24.260   3.972  26.715 -0.0180  0.1111 -0.0710
28141W        W34741  14.404   2.141  28.965  0.0081 -0.3034 -0.1351
28142W        W34742  24.372   2.027  21.665  0.1457  0.1005  0.4571
28143W        W34743  16.978   3.825  24.046  0.1027 -0.1801  0.0415
28144W        W34744  15.269   0.234   4.602  0.1131 -0.0215 -0.0373
28145W        W34745   4.915   3.934  32.573 -0.0659  0.1013  0.0127
28146W        W34746   8.497   1.474  24.774  0.0771  0.2494 -0.0846
28147W        W34747  21.992   2.475  29.007  0.0464 -0.0761  0.0553
28148W        W34748  16.574   6.561   9.115  0.3667 -0.2279 -0.1836
28149W        W34749   0.785   4.098   0.890 -0.1035 -0.2169 -0.1718
28150W        W34750  14.442   1.686  26.473 -0.1598 -0.0533 -0.1415
28151W        W34751   6.549   5.573  33.021  0.0700  0.3118 -0.2687
28152W        W34752  17.706   3.976  31.808 -0.1361  0.0988  0.0885
28153W        W34753  10.767   4.601   5.687  0.1045 -0.0209  0.0168
28154W        W34754  24.624   2.350   0.039  0.1099 -0.0943  0.1425
28155W        W34755  22.546   2.514   7.833  0.1025  0.2701 -0.2466
28156W        W34756  11.174   6.280  24.667  0.1019  0.2541  0.0750
28157W        W34757  19.354   6.400  23.808  0.0017 -0.0366 -0.5310
28158W        W34758  15.232   0.601   5.615  0.0694 -0.1513  0.1800
28159W        W34759  18.276   5.413  10.725  0.0341 -0.1120  0.0163
28160W        W34760  17.217   5.063  21.459  0.1980  0.1204 -0.2299
28161W        W34761   4.283   0.290  33.567  0.0042 -0.2203  0.0781
28162W        W34762   2.531   3.078   1.568  0.0429  0.0286 -0.0028
28163W        W34763  22.429   4.158  14.678 -0.1340 -0.0203 -0.2867
28164W        W34764   5.850   3.152  35.939 -0.0012  0.0037 -0.0812
28165W        W34765  15.416   5.067  35.047 -0.0346  0.0281 -0.0155
28166W        W34766   0.606   4.020   8.896 -0.2277 -0.3124  0.2641
28167W        W34767  23.746   0.652   9.812 -0.5138 -0.2727 -0.4517
28168W        W34768  11.467   5.583  34.023 -0.0602 -0.0594  0.1774
28169W        W34769  17.605   3.186  13.186  0.2961 -0.0254 -0.1088
28170W        W34770  12.552   2.394  11.241  0.0402 -0.0497  0.1285
28171W        W34771  14.064   4.866  22.855  0.0460 -0.2454 -0.0286
28172W        W34772   0.382   1.245   2.327 -0.0747 -0.1308  0.1089
28173W        W34773  12.956   5.922   7.387  0.0482 -0.3125  0.2940
28174W        W34774  10.607   1.030  21.987 -0.2859 -0.1503 -0.0405
28175W        W34775   4.268   6.503  31.586 -0.1443  0.1347  0.0891
28176W        W34776  17.962   3.016  12.825  0.2270  0.5632  0.0967
28177W        W34777  13.910   5.061  33.706  0.1612  0.1021  0.1855
28178W        W34778   4.650   6.393  21.137 -0.0679  0.0819  0.1873
28179W        W34779   0.073   1.153  27.969 -0.0553  0.2157  0.3877
28180W        W34780  21.862   1.662   2.072  0.2684  0.0403 -0.0883
28181W        W34781  16.385   2.223  10.266  0.1430  0.1523  0.0134
28182W        W34782   9.208   4.183  30.058  0.0096  0.2593 -0.1475
28183W        W34783  18.429   6.015  26.905 -0.2909  0.1039 -0.0139
28184W        W34784  10.409   1.611   6.395  0.0995 -0.0040 -0.2312
28185W        W34785   1.488   6.543  31.533  0.1441  0.0874 -0.0347
28186W        W34786   3.627   2.199   7.557 -0.2218 -0.1146 -0.3785
28187W        W34787  10.982   6.149  11.209 -0.0557 -0.2787  0.0653
28188W        W34788   3.971   1.973  30.537 -0.1028 -0.2146 -0.1465
28189W        W34789  20.048   2.780   9.332 -0.0881 -0.1824  0.0971
28190W        W34790  13.411   2.313  31.685 -0.0925 -0.1394 -0.0734
28191W        W34791  15.040   3.568  25.867 -0.0716  0.1024 -0.2213
28192W        W34792  21.156   0.191  11.391 -0.0998  0.0739 -0.1457
28193W        W34793   5.984   3.197  20.897 -0.0330 -0.0441 -0.0153
28194W        W34794   4.006   4.973  15.649 -0.1387  0.2016  0.0138
28195W        W34795  22.708   2.512  30.011 -0.1842 -0.2490 -0.3652
28196W        W34796  16.264   0.566  15.843 -0.0672 -0.1174  0.2408
28197W        W34797  16.426   1.777   8.222 -0.1640  0.1420 -0.0211
28198W        W34798  26.125   3.966   9.241 -0.2033 -0.1547 -0.1546
28199W        W34799  23.487   5.031  12.486  0.0646 -0.0537  0.3833
28200W        W34800  15.739   0.240  30.261 -0.0349  0.0081  0.2879
28201W        W34801   6.079   6.175   5.523  0.2193  0.2789  0.0625
28202W        W34802   7.325   3.606  21.159  0.0514  0.2086 -0.2890
28203W        W34803  20.016   1.900  30.342 -0.0387 -0.0783  0.2102
28204W        W34804  22.288   5.676   7.840 -0.1403  0.0560 -0.1388
28205W        W34805  18.551   0.371  25.284  0.0165 -0.0459 -0.0291
28206W        W34806   9.048   4.762  22.023 -0.2002 -0.0469 -0.0899
28207W        W34807   8.039   0.772  27.356 -0.2619  0.2900  0.0308
28208W        W34808  23.398   1.406  14.526 -0.1896 -0.2451 -0.1466
28209W        W34809  20.176   1.618   8.981 -0.1314  0.3098  0.0770
28210W        W34810  12.099   0.740  12.891 -0.0137 -0.0062 -0.1966
28211W        W34811   9.837   2.788  11.952  0.1274  0.2903  0.3138
28212W        W34812   1.747   6.331  13.124 -0.3163  0.0552 -0.2906
28213W        W34813  23.700   4.139  23.972 -0.1499  0.0012 -0.1201
28214W        W34814   7.967   2.863  21.217 -0.1970  0.0724  0.0737
28215W        W34815  19.546   6.538  14.273 -0.3641  0.1059  0.0174
28216W        W34816  24.735   1.824   2.524  0.2877  0.2004 -0.1395
28217W        W34817   1.880   6.127  15.204  0.0179 -0.2257 -0.1428
28218W        W34818  11.630   4.520  21.189 -0.0023 -0.1480  0.0190
28219W        W34819  18.865   0.697  14.236  0.1792 -0.1669  0.1288
28220W        W34820  17.083   4.466  30.767  0.1587 -0.0537 -0.1865
28221W        W34821   7.097   2.678   3.759 -0.1134 -0.1585  0.2039
28222W        W34822  10.207   0.584  28.831 -0.0814 -0.1638 -0.4700
28223W        W34823  15.740   6.053  13.035  0.0490  0.0094  0.1292
28224W        W34824   9.459   2.903   3.900 -0.3638 -0.0803 -0.2637
28225W        W34825  23.791   4.294  13.908  0.0812 -0.3004 -0.0653
28226W        W34826  16.169   1.107   5.748 -0.2016 -0.1276  0.0455
28227W        W34827  22.698   2.354  28.436  0.2415 -0.1337  0.1352
28228W        W34828   5.593   5.832  14.829  0.0429 -0.1445  0.1783
28229W        W34829   7.896   3.844  32.400  0.0280 -0.0157 -0.1308
28230W        W34830  21.196   4.454  10.953 -0.1788 -0.0418 -0.1833
28231W        W34831   7.781   2.161   8.249 -0.3251 -0.0789  0.0847
28232W        W34832  11.417   1.976  29.838 -0.1930 -0.0959 -0.1090
28233W        W34833  16.898   5.921  13.769  0.4076 -0.0546 -0.4466
28234W        W34834   7.520   2.316   7.118  0.0141  0.0585  0.1599
28235W        W34835  21.361   2.921  24.922 -0.3003  0.1211  0.2184
28236W        W34836  21.987   4.244  15.430  0.0610 -0.0560 -0.0410
28237W        W34837   3.156   0.913   4.754 -0.0676 -0.2717 -0.0888
28238W        W34838  23.368   2.798   1.381  0.0453  0.0500 -0.0670
28239W        W34839  18.457   0.702   0.019 -0.2941 -0.1830 -0.0269
28240W        W34840   2.422   3.440   9.076 -0.1077  0.1237 -0.3392
28241W        W34841  13.163   6.139  12.433  0.0182  0.1859  0.0578
28242W        W34842  14.517   0.291  11.551 -0.2943  0.0881 -0.1696
28243W        W34843   7.236   5.330   6.185  0.1427  0.2677  0.1340
28244W        W34844  20.773   3.668  27.027 -0.2918 -0.1110 -0.0450
28245W        W34845   9.924   5.763  26.325  0.0481  0.0135  0.1253
28246W        W34846  24.164   3.323  21.628  0.0661  0.2611  0.0063
28247W        W34847  26.282   4.621  32.631  0.1748  0.0413  0.1730
28248W        W34848  24.424   2.614  29.615  0.1228  0.1916 -0.1945
28249W        W34849  22.844   4.442   0.483  0.1566 -0.0192 -0.2559
28250W        W34850   5.938   5.162  12.372 -0.1335  0.1980 -0.0871
28251W        W34851  25.646   3.792  30.689 -0.0229  0.1681 -0.0942
28252W        W34852  17.943   2.436   0.090  0.2366 -0.0003  0.1673
28253W        W34853   4.877   3.243  14.522 -0.3930  0.1532 -0.4528
28254W        W34854  21.581   5.053   7.823  0.1517  0.0018 -0.0670
28255W        W34855   3.490   5.276  22.303  0.0740  0.0548 -0.1878
28256W        W34856   4.669   5.018   0.661 -0.0101 -0.1411 -0.1031
28257W        W34857  14.953   2.902  24.418 -0.1482 -0.2807 -0.0267
28258W        W34858  25.149   6.118  14.490 -0.0061  0.0020 -0.0108
28259W        W34859  14.926   1.795  33.634  0.1251 -0.1607 -0.2139
28260W        W34860   5.672   2.428  14.224  0.2906 -0.1679 -0.3551
28261W        W34861  18.293   5.986   6.123  0.0826 -0.0868  0.0196
28262W        W34862  15.212   3.699  28.480 -0.0178  0.2863  0.0770
28263W        W34863   2.110   1.486  24.210 -0.0582  0.0111 -0.2544
28264W        W34864  18.606   2.948  12.362 -0.1922 -0.0096  0.1557
28265W        W34865   8.941   5.680   5.197 -0.2680  0.2204 -0.1095
28266W        W34866   2.242   5.105  14.148  0.1282  0.0496  0.2923
28267W        W34867  16.077   0.250   7.984  0.2390 -0.0081 -0.1335
28268W        W34868  25.337   3.169  11.523  0.0392  0.2845  0.3129
28269W        W34869  10.107   5.109  14.914 -0.0362 -0.0231  0.0466
28270W        W34870  26.106   0.252  24.711 -0.1752  0.0460  0.0043
28271W        W34871   1.802   0.401  30.392 -0.1627 -0.0178  0.0350
28272W        W34872   0.596   3.834  22.698 -0.0291 -0.0268  0.2395
28273W        W34873   0.942   0.399  32.272 -0.1408 -0.1040 -0.1000
28274W        W34874  16.785   3.867  32.849 -0.1160  0.1322  0.0233
28275W        W34875  19.715   3.697   3.651  0.3881 -0.1888  0.0267
28276W        W34876  11.074   0.011  25.862 -0.0367  0.2103  0.3572
28277W        W34877  18.979   0.536   0.238 -0.0938 -0.0197 -0.2772
28278W        W34878  19.767   1.295   4.626  0.1758 -0.3264  0.0236
28279W        W34879   7.074   2.983   5.613 -0.2153 -0.1630 -0.0813
28280W        W34880  15.537   1.739  23.844  0.1204 -0.3054 -0.2932
28281W        W34881   7.026   4.848  29.295  0.2038  0.2160  0.2536
28282W        W34882   6.855   4.027  35.556 -0.0341 -0.0457  0.0452
28283W        W34883  25.485   1.636   5.820  0.2647 -0.1349  0.0717
28284W        W34884   8.646   2.277  33.605 -0.0720 -0.0342 -0.1344
28285W        W34885   5.800   2.856   3.820  0.0079 -0.1277 -0.2405
28286W        W34886  23.084   2.183  30.171  0.1056  0.1596  0.2417
28287W        W34887  11.453   5.541  15.021  0.0623  0.2686 -0.1474
28288W        W34888  22.834   3.535   8.459  0.1951 -0.0503 -0.0541
28289W        W34889  17.738   0.691  20.154 -0.1728 -0.1118 -0.1686
28290W        W34890  21.659   0.365  27.368 -0.2796 -0.2302 -0.1699
28291W        W34891  21.027   2.167  21.656 -0.0876 -0.0630  0.1696
28292W        W34892   6.195   6.601  11.870 -0.1626 -0.0804 -0.1344
28293W        W34893   2.403   1.221   7.182  0.0573  0.0227  0.0415
28294W        W34894  18.694   2.869  13.925 -0.0279  0.1825  0.0317
28295W        W34895   7.828   4.078  15.211  0.2765 -0.0385  0.1582
28296W        W34896   8.725   4.732   8.048  0.2042  0.2239 -0.0351
28297W        W34897  21.447   0.443   1.420  0.4311 -0.0800 -0.0837
28298W        W34898  19.170   3.906  24.907  0.0158 -0.1041  0.0894
28299W        W34899  23.781   3.782  32.073  0.0013 -0.2333  0.0309
28300W        W34900   7.408   1.407  11.638 -0.0444  0.0174  0.1106
28301W        W34901   8.654   2.619   6.568  0.1787 -0.2174 -0.0584
28302W        W34902  10.612   1.284  15.199 -0.1914  0.0329 -0.0184
28303W        W34903   4.602   1.365  14.928  0.0669  0.0486  0.0989
28304W        W34904  13.892   1.882  13.597  0.0058  0.0966  0.0909
28305W        W34905   1.365   3.819  27.792  0.1345  0.0932  0.2105
28306W        W34906   3.264   5.280   0.231  0.3046  0.1329  0.1198
28307W        W34907   3.725   1.299  14.433 -0.1304 -0.0654 -0.1066
28308W        W34908  17.801   2.351  11.239  0.0695  0.2548  0.0652
28309W        W34909   7.134   4.428   0.470 -0.2528 -0.2244 -0.0497
28310W        W34910  20.594   2.182  20.758  0.2504  0.1092 -0.0157
28311W        W34911   1.550   4.618   7.028 -0.0987 -0.1942  0.5477
28312W        W34912   9.715   4.822   9.181  0.0021 -0.0405 -0.2342
28313W        W34913  24.782   0.571   9.232  0.1409  0.2392  0.3060
28314W        W34914  23.392   6.352   5.388  0.1347  0.0135 -0.0144
28315W        W34915   0.898   2.309   6.547 -0.2682 -0.2313 -0.0495
28316W        W34916  19.976   4.988   3.779 -0.0797  0.2118 -0.0930
28317W        W34917   7.936   2.713  15.248  0.3407  0.0814 -0.2608
28318W        W34918  13.499   3.066  14.121  0.0681 -0.3041 -0.0005
28319W        W34919   5.341   4.831  32.388  0.3105  0.1339  0.1395
28320W        W34920  17.307   2.830  32.860 -0.2591 -0.0500 -0.3157
28321W        W34921  15.689   5.687  15.949  0.2586 -0.1733 -0.0614
28322W        W34922   9.712   2.456   0.738  0.0062 -0.2098 -0.0894
28323W        W34923   3.093   3.478  24.388  0.0886  0.0236 -0.1090
28324W        W34924   8.651   6.366  34.391  0.0803  0.0513  0.0921
28325W        W34925  25.925   0.542   6.791  0.0109  0.1516 -0.1391
28326W        W34926  19.566   5.091  10.185 -0.0216  0.1751 -0.0081
28327W        W34927   6.922   2.025   6.442 -0.1474  0.0020  0.0182
28328W        W34928  20.204   4.718   3.061  0.2690 -0.1786 -0.0078
28329W        W34929  22.309   5.954  30.180 -0.0898  0.0801  0.0187
28330W        W34930   7.103   3.337   6.623 -0.0901  0.3702  0.3011
28331W        W34931   1.221   1.727  35.924  0.1589  0.0250  0.0736
28332W        W34932  17.637   2.262   1.926 -0.0506  0.0229 -0.0087
28333W        W34933  11.360   4.922   9.514  0.0398  0.1715  0.0001
28334W        W34934  12.044   2.057   0.448  0.0824  0.0008  0.2792
28335W        W34935  25.536   0.063  11.438  0.1021 -0.0691  0.1617
28336W        W34936  16.118   5.855   3.978 -0.1325  0.1620  0.0503
28337W        W34937  19.856   5.600  14.297  0.2343  0.3157 -0.4065
28338W        W34938  16.610   4.229   5.674  0.0948 -0.0787 -0.1043
28339W        W34939  19.638   2.789  13.983  0.0393  0.0361  0.2686
28340W        W34940   9.332   5.759  25.997 -0.0093  0.0212 -0.1192
28341W        W34941   2.971   4.133   3.089 -0.2991 -0.1281 -0.3311
28342W        W34942  16.452   4.667  33.012  0.0095  0.1245 -0.2285
28343W        W34943  12.003   3.606  33.800  0.0442  0.0170 -0.2620
28344W        W34944  14.480   3.884   0.055 -0.1423 -0.5284 -0.0412
28345W        W34945  25.551   6.337  28.757  0.2872  0.2399  0.1334
28346W        W34946   8.074   5.034  11.762  0.0768 -0.1091 -0.1425
28347W        W34947   9.358   0.295  21.435  0.3152  0.2380 -0.0183
28348W        W34948   2.515   5.583  28.119 -0.0565  0.2423  0.3313
28349W        W34949  22.494   2.066  28.037  0.2270 -0.3931 -0.2117
28350W        W34950   3.428   3.683   0.846  0.0445  0.0010 -0.1523
28351W        W34951  21.004   4.341  35.242  0.0801  0.0011 -0.2021
28352W        W34952  15.424   3.400  24.048 -0.2755 -0.2516  0.2326
28353W        W34953   6.517   1.888  10.685  0.3730  0.0908 -0.0984
28354W        W34954  12.948   5.066  11.239  0.2255  0.2476 -0.2584
28355W        W34955  24.939   5.179  22.252 -0.1677  0.1190 -0.1648
28356W        W34956  23.780   6.291  13.362 -0.2471 -0.1933 -0.1709
28357W        W34957  18.876   6.449  28.404  0.1607 -0.0169 -0.0427
28358W        W34958   6.905   6.312  11.020  0.0199 -0.0641 -0.0261
28359W        W34959  12.923   6.359  13.997  0.1805  0.0021  0.1006
28360W        W34960   4.077   2.491  15.312  0.2914  0.1592  0.3419
28361W        W34961  11.372   6.531  13.748  0.1975  0.1116  0.0697
28362W        W34962  11.395   0.240  31.344 -0.0303 -0.2358  0.0473
28363W        W34963  13.861   1.543  20.798 -0.0033  0.1447 -0.2095
28364W        W34964  25.743   6.228  22.176 -0.0847 -0.0351  0.1258
28365W        W34965  16.423   2.495   0.795  0.0477 -0.3250  0.1598
28366W        W34966  17.647   2.212  21.551  0.0202  0.1947  0.0417
28367W        W34967  21.439   4.190  13.986  0.2084  0.1019 -0.0828
28368W        W34968   4.623   0.252  31.080 -0.1123  0.0258  0.1763
28369W        W34969  21.947   2.100  23.472 -0.0762  0.0363  0.0296
28370W        W34970  10.233   0.229   3.156  0.0807  0.2490  0.1180
28371W        W34971   0.264   0.682  35.116 -0.2190  0.3026  0.0115
28372W        W34972   7.838   3.904  27.184  0.1518  0.1333 -0.0439
28373W        W34973   7.579   6.158  33.932  0.0126 -0.0944  0.2247
28374W        W34974   2.536   5.988  28.451  0.3151  0.0452 -0.1952
28375W        W34975  22.005   4.797  31.775  0.0621  0.1089  0.0623
28376W        W34976  25.763   4.990  24.590 -0.1343 -0.0351 -0.0347
28377W        W34977  17.139   0.640  14.923 -0.0257  0.0706 -0.2017
28378W        W34978  17.852   6.108  25.720 -0.0765 -0.2513  0.1604
28379W        W34979  14.020   4.347  24.156 -0.0580 -0.0733 -0.1483
28380W        W34980   6.086   1.846  31.980 -0.0439  0.3216  0.3666
28381W        W34981   7.802   6.303  31.861 -0.0266  0.2415 -0.1897
28382W        W34982  18.560   0.194  25.736 -0.2494 -0.1077 -0.0339
28383W        W34983  17.141   0.136  15.849  0.0131 -0.2226 -0.2032
28384W        W34984   0.342   5.034  26.695 -0.1623  0.0387  0.1573
28385W        W34985  21.830   6.289  24.470 -0.0035  0.0143  0.1854
28386W        W34986  19.794   0.266  15.265 -0.0733  0.0513 -0.1028
28387W        W34987  12.272   5.834  29.151 -0.2454  0.1223  0.1034
28388W        W34988  18.102   3.037  24.039  0.0759  0.1689 -0.3253
28389W        W34989   1.969   4.769   6.777  0.2735  0.0353 -0.0869
28390W        W34990  14.434   3.899  35.124  0.1373  0.2558 -0.0033
28391W        W34991  22.949   5.170  32.217  0.0840  0.2897  0.0462
28392W        W34992  17.983   4.413   8.140 -0.0297  0.0321  0.0167
28393W        W34993  14.310   4.880   4.481  0.0660  0.1264 -0.0283
28394W        W34994   1.174   6.266  15.221  0.2203 -0.0000  0.0792
28395W        W34995   2.430   5.338  21.049  0.1985 -0.1497  0.2132
28396W        W34996   2.202   3.777   7.969 -0.1038 -0.0260  0.2729
28397W        W34997   1.616   0.803  11.918 -0.1035  0.1300 -0.0881
28398W        W34998   1.178   1.777  12.734  0.0563  0.1267 -0.1358
28399W        W34999   4.473   3.994  23.085  0.1441 -0.0867  0.1375
28400W        W35000  23.758   0.450  34.955 -0.1275 -0.1442 -0.4264
28401W        W35001  25.875   3.102  12.385  0.0234 -0.1866 -0.2228
28402W        W35002   2.817   5.532   1.502 -0.2090 -0.0001 -0.0084
28403W        W35003   5.799   4.103   9.653  0.1071  0.2234 -0.2901
28404W        W35004  26.127   2.910  34.718 -0.0106 -0.0284  0.2617
28405W        W35005  13.538   0.958  21.136  0.0664 -0.0683  0.0764
28406W        W35006  17.202   4.065  29.286  0.0470 -0.2861 -0.0263
28407W        W35007  26.322   0.715   8.571  0.1862  0.1070  0.0073
28408W        W35008   1.582   3.805  26.302 -0.0542  0.1357 -0.2477
28409W        W35009   3.190   4.620  35.729 -0.4016  0.4091 -0.2127
28410W        W35010  21.962   3.930  29.876 -0.3697 -0.2892  0.6127
28411W        W35011  25.421   0.240   4.455 -0.1106 -0.1837  0.2646
28412W        W35012  25.470   1.870  12.889 -0.4062 -0.2013  0.0206
28413W        W35013  12.986   6.188   3.403 -0.1275 -0.0559 -0.1659
28414W        W35014  11.833   2.966  32.323  0.1685  0.1193 -0.1016
28415W        W35015  13.575   2.076  33.888 -0.0059 -0.0930 -0.0707
28416W        W35016  22.684   4.019  22.973 -0.1455 -0.0359 -0.4023
28417W        W35017   6.722   2.853  30.604  0.1014 -0.2194 -0.1601
28418W        W35018   7.348   2.929  24.433  0.0713 -0.0823 -0.0844
28419W        W35019   1.737   4.315   5.880  0.3023  0.0727 -0.1274
28420W        W35020  20.454   3.702  33.114  0.0062 -0.1750  0.0532
28421W        W35021  12.921   2.632  10.470 -0.0440 -0.0693 -0.0552
28422W        W35022   2.071   0.097  10.975 -0.0914 -0.0338 -0.1318
28423W        W35023  25.856   5.470  35.302  0.0271  0.2675 -0.1910
28424W        W35024  12.891   4.376  33.320 -0.2720 -0.0926 -0.1412
28425W        W35025   7.976   6.141  25.504  0.0810  0.4540 -0.0817
28426W        W35026  15.422   2.334   6.588 -0.0974 -0.1880 -0.0327
28427W        W35027  18.001   4.876  11.986  0.1431  0.2970 -0.0059
28428W        W35028  16.091   2.093  11.990 -0.2277 -0.3823  0.1775
28429W        W35029  25.831   2.311   9.086 -0.1322 -0.1514  0.2326
28430W        W35030  16.496   6.351  26.962  0.0848  0.0167  0.0653
28431W        W35031  26.094   6.460   3.104  0.0735  0.2910  0.2447
28432W        W35032  19.042   1.249  13.848 -0.0688  0.1346  0.1152
28433W        W35033  22.933   0.075  12.912 -0.0097  0.0023  0.0605
28434W        W35034   4.667   0.846   6.361 -0.5228  0.2205 -0.3569
28435W        W35035   7.616   2.306  30.888  0.0406 -0.1354 -0.2923
28436W        W35036  19.184   0.038   6.618 -0.2062 -0.1129  0.0365
28437W        W35037  10.786   1.740  14.953  0.0703  0.2368 -0.5985
28438W        W35038  15.976   6.488   1.647  0.1354 -0.2241  0.3689
28439W        W35039  19.368   5.538   1.993 -0.1818  0.0509 -0.0158
28440W        W35040  15.652   4.079  13.278 -0.0035 -0.3971 -0.2038
28441W        W35041   5.605   6.216  24.847 -0.1333  0.1891  0.2280
28442W        W35042  13.635   0.402  34.907 -0.4858  0.0051 -0.0987
28443W        W35043   1.703   1.788  12.667  0.1059 -0.0818  0.2789
28444W        W35044  14.931   4.710  31.909  0.0298  0.1557  0.1411
28445W        W35045  17.107   5.548  25.012  0.3953 -0.0734 -0.2118
28446W        W35046  18.878   3.858   8.028 -0.1647  0.2780 -0.1375
28447W        W35047   7.066   0.897   4.334 -0.0892  0.1049 -0.1870
28448W        W35048   5.980   3.530  23.237  0.1296  0.0930  0.2209
28449W        W35049  16.137   5.010   1.390  0.0983 -0.0008 -0.0235
28450W        W35050  25.491   5.873   4.187  0.0882 -0.0602 -0.0777
28451W        W35051  20.090   0.047  25.795  0.1093  0.4235 -0.3448
28452W        W35052  21.253   4.700  15.008  0.2232  0.0751 -0.0306
28453W        W35053   3.069   2.483  32.804 -0.0085 -0.2574  0.1932
28454W        W35054   1.083   1.811   2.714  0.0738  0.2881 -0.2136
28455W        W35055  12.215   6.085   8.184 -0.0066  0.1689  0.1064
28456W        W35056  25.961   5.894  32.937 -0.0049  0.0305 -0.2142
28457W        W35057  18.251   3.558  27.097 -0.0705 -0.2585 -0.2262
28458W        W35058  25.583   3.624  26.484  0.1409  0.1463  0.3945
28459W        W35059  26.336   0.123  20.038 -0.1042 -0.0981 -0.1282
28460W        W35060  22.683   2.289  33.865 -0.1867 -0.1071 -0.0591
28461W        W35061  18.724   1.007  33.396 -0.2071  0.0612  0.0422
28462W        W35062  23.232   2.097  32.390  0.0073 -0.0028 -0.2037
28463W        W35063  13.121   3.692  32.863  0.1830 -0.2388 -0.0406
28464W        W35064  15.953   5.686   0.724  0.1590 -0.0897  0.0304
28465W        W35065   1.167   1.332  22.843 -0.1055  0.0089 -0.0913
28466W        W35066  18.132   3.445  10.207 -0.0517 -0.0779 -0.0392
28467W        W35067   3.189   0.495  26.111 -0.3685 -0.0822 -0.1651
28468W        W35068  16.156   4.124  13.224  0.4973  0.0742  0.0602
28469W        W35069   6.898   6.519   6.068 -0.2839 -0.1467 -0.1230
28470W        W35070  18.748   1.918  21.031 -0.0499 -0.0672  0.0714
28471W        W35071  26.269   1.299   0.299  0.1448  0.1415 -0.0928
28472W        W35072   9.221   3.557  21.515 -0.1591 -0.1385  0.0383
28473W        W35073   0.877   4.528  27.717 -0.0861 -0.2952  0.0165
28474W        W35074  21.282   6.530   9.882  0.0675 -0.2749  0.1086
28475W        W35075  17.062   4.226   6.851 -0.3113 -0.1462 -0.3133
28476W        W35076   4.985   0.761  28.711 -0.0406  0.0763 -0.0845
28477W        W35077  23.945   4.525   5.125  0.2249  0.0937  0.1196
28478W        W35078  21.812   5.606  32.919 -0.2856 -0.0239 -0.0371
28479W        W35079   7.921   1.634  23.087  0.1795  0.1346 -0.2279
28480W        W35080   9.920   4.147  24.136 -0.0441  0.3657 -0.0071
28481W        W35081  21.467   4.978  35.853  0.3068 -0.0658  0.0867
28482W        W35082   2.887   4.174   0.386 -0.3892  0.2673  0.2331
28483W        W35083   5.385   0.929  35.991 -0.2151  0.0582 -0.1938
28484W        W35084   2.504   1.154   5.320  0.2429 -0.2322  0.0946
28485W        W35085   4.501   2.217   1.989 -0.1039  0.0705 -0.0039
28486W        W35086  14.470   1.622  28.916 -0.1175  0.1927 -0.1021
28487W        W35087  23.892   2.751  31.300  0.1535  0.0419  0.0388
28488W        W35088  20.798   4.029   1.067  0.0962 -0.0229  0.2110
28489W        W35089   3.474   3.656   4.166  0.0240 -0.0254 -0.3920
28490W        W35090   6.683   4.996   4.301 -0.0065 -0.1306 -0.0099
28491W        W35091  14.292   5.123  29.729  0.0798  0.3096  0.2739
28492W        W35092   5.846   5.498   9.838  0.1705 -0.0320 -0.3038
28493W        W35093   9.714   2.966   3.386  0.2502  0.2955 -0.2360
28494W        W35094   6.092   0.867   1.940 -0.1646  0.1616  0.0311
28495W        W35095  20.312   2.601   6.847  0.3812  0.1499 -0.4199
28496W        W35096   7.075   5.097  22.602  0.0901  0.3833  0.0656
28497W        W35097  22.347   0.498   4.720  0.1523 -0.0063 -0.0480
28498W        W35098  24.983   1.749  27.086  0.2461  0.1164 -0.0063
28499W        W35099   9.896   0.341  10.438 -0.0762  0.1473  0.0502
28500W        W35100  16.859   4.124  10.006  0.0010  0.3426  0.0753
28501W        W35101  11.767   5.224   4.106 -0.1026 -0.0704  0.0136
28502W        W35102   9.277   5.730  25.011  0.1856 -0.1307 -0.3262
28503W        W35103  12.920   0.108  34.898 -0.3957  0.2680 -0.2532
28504W        W35104   5.501   6.545  22.891  0.0981 -0.0650 -0.3632
28505W        W35105  14.523   1.144  30.931 -0.1750 -0.1878 -0.0291
28506W        W35106  21.214   6.393  23.851 -0.0672  0.1073 -0.0122
28507W        W35107  10.596   1.594  25.032 -0.0083  0.2139 -0.0652
28508W        W35108  23.636   2.875  14.055 -0.1646  0.0879 -0.2635
28509W        W35109   3.963   6.182  25.498 -0.3269 -0.0963  0.2541
28510W        W35110  13.412   0.757  23.794  0.0051  0.0482 -0.0907
28511W        W35111  26.323   6.131  11.333 -0.2825 -0.1488 -0.0761
28512W        W35112  19.809   2.103  24.197  0.2969 -0.0872 -0.0164
28513W        W35113  15.684   6.413  34.937 -0.0256 -0.4833  0.1507
28514W        W35114  18.793   5.795  13.377  0.0551  0.1285 -0.1994
28515W        W35115   4.332   5.306  25.520  0.3030  0.1716 -0.1296
28516W        W35116  22.951   2.321  31.167 -0.0268  0.0653 -0.0293
28517W        W35117   9.606   3.735   8.482 -0.0530 -0.4622 -0.0481
28518W        W35118   8.985   1.950  30.132 -0.0932 -0.1460 -0.1279
28519W        W35119  19.549   5.078   9.638  0.0490 -0.3240 -0.2388
28520W        W35120  18.467   4.710   9.033 -0.0471  0.0440 -0.4161
28521W        W35121  13.611   1.229  34.476  0.1183  0.1330  0.2438
28522W        W35122   8.884   0.536   3.533  0.2265 -0.1911  0.0140
28523W        W35123   3.413   4.294  23.229  0.3716  0.1382 -0.0911
28524W        W35124  20.835   5.761  36.068 -0.1201 -0.0000 -0.2090
28525W        W35125  17.021   1.586   9.172 -0.0086 -0.1598  0.2108
28526W        W35126   5.068   2.207  23.519 -0.0852 -0.2179  0.0905
28527W        W35127  17.614   2.094  25.920  0.2934  0.0382 -0.2020
28528W        W35128  11.867   2.571  26.597  0.1323 -0.0540 -0.1031
28529W        W35129  14.646   1.459  35.346  0.1314  0.0456  0.1029
28530W        W35130  23.577   2.713  30.790 -0.0323  0.2752 -0.0624
28531W        W35131   4.829   2.568   3.918 -0.1906 -0.0662 -0.4181
28532W        W35132   9.617   6.383   5.371 -0.0724  0.0127  0.1988
28533W        W35133  15.470   6.418  20.848 -0.0783  0.1308  0.2823
28534W        W35134  11.270   2.083  28.126  0.1697 -0.2606 -0.0218
28535W        W35135  24.747   1.715  28.105 -0.2304  0.1514  0.1790
28536W        W35136  19.324   0.927  23.981  0.0970  0.0694  0.0176
28537W        W35137  18.070   6.243   0.754 -0.0487 -0.3015 -0.1419
28538W        W35138   1.772   5.032   6.402 -0.0205  0.1919  0.0453
28539W        W35139  13.539   3.091  35.958  0.1987 -0.1006  0.0197
28540W        W35140   4.753   5.399  21.248 -0.0872  0.2416 -0.4686
28541W        W35141  23.939   6.546   2.044  0.0808  0.0831 -0.0572
28542W        W35142  14.609   5.953  26.649 -0.1016 -0.2487  0.1002
28543W        W35143  12.930   4.928   1.183  0.0021 -0.1315 -0.2106
28544W        W35144  17.327   2.554   7.536 -0.0861 -0.1394  0.0987
28545W        W35145   7.713   2.152  26.947 -0.2953  0.1561 -0.0317
28546W        W35146  11.260   3.217   5.469 -0.6591  0.1936 -0.0446
28547W        W35147  25.006   2.401  26.240 -0.1601 -0.0903 -0.1501
28548W        W35148  17.101   4.186   2.415 -0.0950 -0.0772 -0.0910
28549W        W35149  23.187   3.610  30.506 -0.0515  0.1694  0.1329
28550W        W35150   7.390   5.084   3.785 -0.0414 -0.1878 -0.0457
28551W        W35151   0.562   3.771  14.459  0.0306  0.0876 -0.2582
28552W        W35152  21.859   5.011   9.395 -0.1081  0.1385  0.2767
28553W        W35153   9.008   6.569   7.787 -0.1140 -0.1893 -0.4560
28554W        W35154  24.141   5.556  35.917 -0.1916 -0.0932 -0.0758
28555W        W35155  22.661   0.448  10.584 -0.2389  0.1877  0.2264
28556W        W35156  24.280   5.352   8.868 -0.1796  0.1468  0.0823
28557W        W35157  24.314   3.215  10.421 -0.0660  0.0809 -0.2019
28558W        W35158  24.728   1.220  27.116  0.1124 -0.0669 -0.0958
28559W        W35159  14.562   5.124  28.349 -0.2234 -0.0624 -0.2190
28560W        W35160  10.048   2.491   7.673  0.1648  0.1080 -0.2107
28561W        W35161  11.605   2.951   9.754  0.2899 -0.0148 -0.1426
28562W        W35162  24.211   0.719  21.456  0.2142  0.2145 -0.2515
28563W        W35163  25.634   3.639  36.033  0.1809  0.0070 -0.0747
28564W        W35164  23.242   3.791  21.848 -0.2083 -0.0306 -0.2331
28565W        W35165  22.189   1.712  12.294  0.0767 -0.0197  0.2734
28566W        W35166   2.330   1.173   7.815 -0.0655 -0.2876 -0.1066
28567W        W35167   4.304   2.105   8.377 -0.0182 -0.0098  0.1639
28568W        W35168   8.726   0.075  23.690  0.2311  0.1217  0.1951
28569W        W35169  11.418   1.033   0.954 -0.1162  0.1168 -0.0229
28570W        W35170  24.949   3.022  30.995  0.1543  0.2027  0.2843
28571W        W35171  21.539   5.314   9.624 -0.1443  0.0806 -0.0838
28572W        W35172  20.759   4.693  25.409 -0.3131  0.0953 -0.3094
28573W        W35173   0.113   4.183  27.153 -0.0438  0.1444  0.2258
28574W        W35174  21.902   2.546  35.152  0.1416 -0.0556 -0.3137
28575W        W35175  25.719   5.497  15.173  0.1099  0.0061 -0.0984
28576W        W35176   3.880   0.838   9.303 -0.2754  0.0364  0.2350
28577W        W35177  12.209   5.823  15.571 -0.1623 -0.0389  0.0229
28578W        W35178  24.297   0.867  25.110  0.1317  0.1724 -0.2444
28579W        W35179  21.799   5.146   6.881  0.1794 -0.1119 -0.0964
28580W        W35180   8.983   2.480  27.575 -0.3159 -0.3123  0.0482
28581W        W35181  23.218   3.139  29.273 -0.1408  0.0689 -0.1370
28582W        W35182  15.381   5.706   4.434 -0.3681 -0.2771 -0.1802
28583W        W35183   4.163   0.995  13.685  0.1789 -0.1231 -0.1849
28584W        W35184   8.080   2.466   3.958 -0.1919  0.1512  0.1813
28585W        W35185  11.410   6.507  14.613  0.2441 -0.0850  0.4278
28586W        W35186  10.998   1.903  13.139 -0.1213  0.0376  0.3295
28587W        W35187  22.786   5.846  22.343 -0.0157 -0.0920  0.0114
28588W        W35188  18.687   5.618  34.298  0.0390  0.1582 -0.0179
28589W        W35189  23.483   3.026  24.965  0.1583  0.1983  0.2438
28590W        W35190  20.820   6.473  34.256 -0.1812  0.3101 -0.1870
28591W        W35191  15.224   5.826  29.867  0.0576  0.1024  0.2491
28592W        W35192   4.300   1.746  21.159  0.2658 -0.0556  0.0432
28593W        W35193  15.873   5.632   9.373  0.1830 -0.0976  0.3062
28594W        W35194  13.643   1.532  23.314  0.1441 -0.1086 -0.2657
28595W        W35195  18.991   3.131   5.244 -0.0451  0.1878 -0.2563
28596W        W35196  16.706   0.587  21.997  0.0273  0.0299 -0.4862
28597W        W35197  14.260   3.221  13.384 -0.3090 -0.2267  0.0379
28598W        W35198  11.491   4.998  21.167  0.1395 -0.2596 -0.1180
28599W        W35199   9.362   4.498  12.123 -0.1709  0.2653  0.3069
28600W        W35200   9.696   5.134  22.109  0.1941  0.0398  0.1179
28601W        W35201   0.418   4.025   0.496  0.0176 -0.0329  0.0091
28602W        W35202   1.073   4.478   3.099  0.1041  0.0923 -0.1294
28603W        W35203   0.052   4.156  21.660  0.2194  0.0754 -0.0833
28604W        W35204  21.120   4.128   3.895 -0.1283 -0.3030 -0.0706
28605W        W35205  20.830   5.159  29.281 -0.3046  0.0448 -0.0436
28606W        W35206  12.287   1.915  34.361  0.0852 -0.0307  0.0665
28607W        W35207   6.774   0.998   1.603  0.1528 -0.1168 -0.2362
28608W        W35208  12.532   3.767   3.955  0.4623  0.1068 -0.0901
28609W        W35209   3.616   1.381   3.573 -0.0089  0.1795  0.1214
28610W        W35210  10.539   3.906   8.900 -0.0290 -0.0357  0.2110
28611W        W35211   6.763   6.519   0.187 -0.0765  0.1493 -0.3602
28612W        W35212   1.564   3.034   1.240  0.2207  0.2942  0.0212
28613W        W35213  20.172   2.977  26.118 -0.1458 -0.0094  0.1667
28614W        W35214  16.500   1.090  29.393  0.1571  0.1138  0.0754
28615W        W35215   5.082   0.119   0.226  0.2722  0.1474 -0.0792
28616W        W35216  11.518   0.672   1.286 -0.2191 -0.1408 -0.1228
28617W        W35217  21.762   0.953  10.998  0.0610 -0.1167 -0.0026
28618W        W35218   0.162   6.094  25.690  0.2261 -0.2433  0.0538
28619W        W35219   7.911   2.203  34.289  0.0226 -0.0221 -0.0695
28620W        W35220   9.300   0.879   9.473  0.0840 -0.0173 -0.0340
28621W        W35221   4.739   5.477  33.514  0.0281 -0.1182  0.0517
28622W        W35222  10.569   0.797  24.919  0.3543 -0.1079  0.0225
28623W        W35223  20.387   0.748  20.998  0.0731 -0.4266 -0.2841
28624W        W35224   3.930   2.430   8.919 -0.2409 -0.0166 -0.0431
28625W        W35225  15.918   4.849  31.428  0.0575  0.2413  0.0003
28626W        W35226   1.347   3.241  13.172  0.0995 -0.0653 -0.3771
28627W        W35227  24.847   2.786  32.460 -0.0925  0.0041  0.3427
28628W        W35228  22.145   2.423  25.010 -0.2197  0.0422  0.0274
28629W        W35229   9.872   6.582  28.386  0.2102  0.2603  0.2718
28630W        W35230  15.269   2.049  20.861 -0.3809 -0.0980 -0.1087
28631W        W35231   8.693   2.057  27.476 -0.1569  0.1905 -0.1637
28632W        W35232   9.875   0.773  13.088  0.1487  0.0614 -0.1944
28633W        W35233  16.668   4.280  21.857 -0.1009 -0.0272 -0.3681
28634W        W35234   4.705   2.044  34.303 -0.1008 -0.1913 -0.0557
28635W        W35235  21.091   4.116  22.807 -0.2057 -0.1712  0.1006
28636W        W35236  18.199   5.946  35.805  0.0529 -0.0495 -0.1578
28637W        W35237   4.484   5.874  33.689 -0.0322 -0.0080  0.0941
28638W        W35238   1.713   5.420  23.064  0.0667 -0.2610  0.1511
28639W        W35239   5.307   2.969  20.980 -0.4746 -0.1217 -0.2771
28640W        W35240  13.172   4.141  26.028 -0.0491  0.0435  0.2079
28641W        W35241  13.495   0.945  26.513  0.0454 -0.1349  0.1892
28642W        W35242  13.145   2.573  11.387  0.0556 -0.2648 -0.1298
28643W        W35243  16.414   3.169   2.359  0.0302 -0.1620  0.0450
28644W        W35244   9.148   1.504  23.997 -0.0924 -0.0377 -0.0705
28645W        W35245  18.702   2.397  10.830 -0.2081  0.0089 -0.2783
28646W        W35246  17.306   5.753   9.790 -0.1400  0.1160  0.0347
28647W        W35247   9.799   2.054  34.552  0.1883 -0.0689 -0.2405
28648W        W35248  12.354   3.088   5.758 -0.3918  0.0381 -0.2970
28649W        W35249  23.292   3.873  30.014  0.1526  0.0478  0.1206
28650W        W35250  21.200   0.200  34.219 -0.1872  0.0100  0.3773
28651W        W35251   7.624   2.478  23.631 -0.1557  0.2555 -0.2444
28652W        W35252  12.532   5.928  22.281 -0.2382 -0.1147  0.1605
28653W        W35253   9.536   6.035  21.012  0.2625  0.0417 -0.0116
28654W        W35254  19.742   2.262  14.099  0.0889 -0.0990  0.1796
28655W        W35255   5.716   0.394  10.898  0.0446 -0.1477 -0.2184
28656W        W35256  11.975   5.338  26.367 -0.0487  0.0891  0.1870
28657W        W35257   6.766   0.313   4.962 -0.0642 -0.0378  0.2882
28658W        W35258  14.183   0.178   7.865  0.2603 -0.1430 -0.1190
28659W        W35259   7.084   5.107  15.486 -0.3835  0.1398  0.0336
28660W        W35260   9.284   1.730  33.640  0.2020  0.0413  0.0938
28661W        W35261   2.955   0.503  12.741  0.6208 -0.0540  0.0426
28662W        W35262   9.934   4.356  25.662 -0.1886  0.0409 -0.0483
28663W        W35263  23.607   4.823  22.930  0.1770  0.0598 -0.1047
28664W        W35264   8.660   4.705   0.690  0.1370 -0.0278  0.1268
28665W        W35265  20.096   2.419   2.700 -0.0045  0.1704 -0.0550
28666W        W35266   6.943   0.389  10.355  0.1476 -0.2147 -0.0471
28667W        W35267  12.708   0.145  10.665 -0.0143  0.0528  0.0026
28668W        W35268  16.403   3.978  32.487 -0.0395  0.0019 -0.0275
28669W        W35269   7.926   1.722   2.739  0.2745 -0.0485  0.0438
28670W        W35270  17.942   3.673  15.367 -0.1493  0.2310  0.0589
28671W        W35271   7.961   4.071  29.537 -0.2984  0.0599  0.2097
28672W        W35272  24.645   3.839  33.250  0.0882 -0.1521  0.2713
28673W        W35273  12.241   4.257  15.246  0.3103  0.1064 -0.0454
28674W        W35274  17.490   3.325   3.840  0.0097  0.2697  0.0352
28675W        W35275  19.242   3.821   7.693 -0.3854  0.0053  0.4727
28676W        W35276  10.622   4.960  20.696 -0.1304  0.1002  0.1604
28677W        W35277  19.926   3.629  28.546  0.1019 -0.3928  0.0568
28678W        W35278  18.724   4.579  34.184 -0.2749 -0.0984 -0.2517
28679W        W35279  18.240   4.625   0.156 -0.1970 -0.1458 -0.2626
28680W        W35280  10.744   5.541  25.717 -0.1367 -0.0201  0.0689
28681W        W35281  21.490   2.633  25.821  0.2734 -0.1191  0.0680
28682W        W35282  11.012   2.406  13.194  0.0589 -0.0564  0.5045
28683W        W35283  14.211   3.867  30.090 -0.0613 -0.0543 -0.0090
28684W        W35284   6.973   0.671   5.898 -0.0964 -0.0191  0.1740
28685W        W35285  17.413   2.688   1.496 -0.0034  0.2641  0.0933
28686W        W35286   3.018   3.679  33.204 -0.1459 -0.1434 -0.1751
28687W        W35287   7.001   1.421  24.238 -0.1706 -0.3896 -0.0496
28688W        W35288   3.429   1.317  24.636  0.1020 -0.0405 -0.1209
28689W        W35289   5.016   3.117  32.311  0.1456  0.0591 -0.1739
28690W        W35290  19.640   1.241   2.872 -0.0884 -0.0106  0.3903
28691W        W35291  23.171   5.682  22.053 -0.2279  0.2075  0.4826
28692W        W35292  16.905   2.947  27.713  0.3656  0.1837  0.0518
28693W        W35293  12.676   5.137   9.514 -0.3620  0.2778  0.1487
28694W        W35294  11.911   0.647   7.699  0.1882  0.0441 -0.2412
28695W        W35295  12.886   0.760  34.061 -0.1233 -0.2523  0.3010
28696W        W35296  15.143   4.688  32.857  0.0064  0.1202 -0.0259
28697W        W35297  11.209   2.565  28.210  0.0278 -0.3108 -0.3251
28698W        W35298  21.845   1.160  22.574  0.0160  0.0578 -0.2930
28699W        W35299  25.100   4.183  22.398  0.0208 -0.0471  0.1163
28700W        W35300  15.280   4.069  14.472  0.0656 -0.1232 -0.2338
28701W        W35301  15.110   3.099  21.779  0.2061 -0.0543 -0.0057
28702W        W35302  19.048   5.587   2.987 -0.1109  0.2433  0.0943
28703W        W35303   0.562   5.885   6.934 -0.2209  0.3918  0.0595
28704W        W35304   6.262   3.897   3.232  0.2423  0.1509  0.1379
28705W        W35305  18.247   4.131  33.685 -0.3599  0.1582  0.0241
28706W        W35306  23.186   5.398  30.435 -0.0955 -0.1028 -0.1512
28707W        W35307   1.777   2.765  30.748  0.1079  0.0229 -0.2490
28708W        W35308   8.312   6.307   6.652 -0.1068 -0.0817  0.2235
28709W        W35309  12.311   1.199  35.280 -0.1040  0.3018 -0.2219
28710W        W35310   6.018   4.878  22.821 -0.4135 -0.1115 -0.0982
28711W        W35311   6.022   3.094   1.315 -0.0675  0.1302  0.0200
28712W        W35312   6.041   4.712  28.012  0.0066  0.0262 -0.1794
28713W        W35313   2.020   3.261   5.384 -0.0119  0.0671  0.0941
28714W        W35314  21.123   0.405  33.052 -0.0238 -0.1003  0.1572
28715W        W35315   6.618   3.052  31.456  0.0738 -0.1106 -0.5416
28716W        W35316  16.179   4.072   2.657 -0.1681  0.2529  0.0175
28717W        W35317  11.281   2.546  14.237 -0.0458 -0.0577  0.0093
28718W        W35318  24.869   1.242   1.821  0.0879  0.0347  0.0494
28719W        W35319  11.064   1.700  16.336  0.0109 -0.1329 -0.1479
28720W        W35320  17.582   4.813  24.941 -0.1231 -0.0640 -0.3507
28721W        W35321  13.250   3.716  11.017 -0.0200 -0.1911 -0.1254
28722W        W35322  10.612   5.186  14.036 -0.0992 -0.3037  0.1252
28723W        W35323  19.487   4.363   9.257  0.0898 -0.0157 -0.0908
28724W        W35324   2.834   0.470  27.407 -0.4543 -0.1254  0.1881
28725W        W35325  23.191   1.088   4.658  0.2785  0.1052  0.0434
28726W        W35326  19.985   1.765  23.366 -0.0058  0.1286 -0.0837
28727W        W35327  18.870   2.532   9.080 -0.2882 -0.2331  0.0126
28728W        W35328   8.574   4.350  14.491 -0.0069 -0.0848  0.3734
28729W        W35329  24.778   4.359   1.257  0.2060 -0.0288 -0.1804
28730W        W35330   5.322   3.482  32.192 -0.0640  0.0326 -0.2191
28731W        W35331  12.705   2.994  12.128 -0.1053  0.2293  0.0426
28732W        W35332   6.750   2.135  12.821 -0.2380 -0.0962  0.2191
28733W        W35333  20.286   4.505  24.432 -0.2421  0.0262 -0.1592
28734W        W35334   1.267   1.541  28.733 -0.1222  0.0084 -0.0085
28735W        W35335   1.919   6.435   6.338  0.3207 -0.0407  0.2415
28736W        W35336  21.921   3.966  27.638 -0.1884 -0.0891  0.1973
28737W        W35337   1.091   1.750  10.039  0.0507  0.3139 -0.1209
28738W        W35338  16.876   0.046  24.285 -0.0373 -0.0457  0.0286
28739W        W35339  23.571   0.947   1.728  0.2977  0.2797 -0.1018
28740W        W35340  14.154   0.129  15.185  0.4840  0.1307 -0.0123
28741W        W35341  10.738   1.815   8.105 -0.0889 -0.0982 -0.2509
28742W        W35342  23.594   2.881   6.804  0.1091  0.0085 -0.1825
28743W        W35343   6.659   3.862   8.044  0.0194  0.0404 -0.1962
28744W        W35344  18.424   5.626  13.142 -0.0074  0.3293 -0.1891
28745W        W35345  13.428   5.017   6.477  0.0264  0.4312 -0.1110
28746W        W35346  20.802   0.042  12.863 -0.1826 -0.0371 -0.1582
28747W        W35347   0.364   4.491   0.225  0.0547 -0.5335 -0.0092
28748W        W35348   0.615   5.608  29.222  0.0298 -0.2899  0.2964
28749W        W35349   9.977   3.913   6.684 -0.0760 -0.1878  0.1828
28750W        W35350  17.570   4.035  32.278  0.0781  0.2587 -0.0025
28751W        W35351   4.235   2.218  23.206  0.1711  0.0915  0.1215
28752W        W35352  23.398   4.720   6.871 -0.2228  0.1470  0.1944
28753W        W35353  10.585   2.334  27.619 -0.2749  0.2281  0.3614
28754W        W35354   7.791   2.641  24.224 -0.0851 -0.2651  0.1059
28755W        W35355  12.998   2.917  30.434  0.1631 -0.2044  0.1012
28756W        W35356  25.807   2.341  34.503  0.4107 -0.0032 -0.0509
28757W        W35357   2.950   4.273   6.741 -0.0568 -0.1339  0.0643
28758W        W35358  15.916   1.377  15.354  0.2661 -0.0757  0.2013
28759W        W35359   6.394   6.253   3.220 -0.2208  0.0849 -0.1486
28760W        W35360  26.183   6.039  25.302 -0.5572 -0.1577 -0.2878
28761W        W35361  24.792   6.388  20.205  0.0733 -0.0560  0.0743
28762W        W35362  25.543   1.408  26.016 -0.0275  0.1323 -0.1571
28763W        W35363  10.806   1.807  12.050 -0.1383 -0.1276 -0.1788
28764W        W35364   4.995   5.245   9.935 -0.3033 -0.0443 -0.2345
28765W        W35365  12.179   0.051  29.726 -0.2609 -0.0643 -0.0497
28766W        W35366  11.033   0.819  35.571 -0.1458  0.0684  0.1119
28767W        W35367  25.578   2.611  14.488 -0.1187  0.3844  0.0660
28768W        W35368  12.957   5.913  33.693  0.1973 -0.3486 -0.0241
28769W        W35369  24.331   3.496  32.728 -0.1355 -0.1494  0.0215
28770W        W35370   9.792   4.952  34.495 -0.0790 -0.0076 -0.1393
28771W        W35371   3.875   6.095  15.925 -0.3540  0.0143  0.2488
28772W        W35372  25.834   1.178  22.483 -0.2012  0.1865 -0.0595
28773W        W35373  14.365   1.863  23.658  0.0835  0.0942  0.0321
28774W        W35374  25.360   3.410  29.238 -0.1723 -0.0008  0.0365
28775W        W35375   3.942   1.241  31.859 -0.1032  0.1836 -0.3470
28776W        W35376   9.417   4.453  35.492 -0.0483  0.0213 -0.2100
28777W        W35377  15.484   1.684  22.682 -0.2609 -0.1768  0.0947
28778W        W35378  16.617   4.112  25.795  0.2586  0.0819  0.0639
28779W        W35379   2.163   6.435   1.419 -0.0665  0.1696 -0.0505
28780W        W35380  19.323   0.742  11.243 -0.2082 -0.0670  0.1274
28781W        W35381   4.415   4.759  11.300  0.1796  0.2096 -0.2214
28782W        W35382   9.512   5.000  34.967 -0.3815 -0.2104  0.2823
28783W        W35383  15.224   0.147  22.294 -0.0239  0.0647  0.0732
28784W        W35384  20.259   2.817  32.849 -0.1009  0.1264 -0.2983
28785W        W35385   2.101   6.387  11.419  0.1122  0.0438  0.2666
28786W        W35386   2.279   2.096  15.221  0.0106 -0.0256 -0.1904
28787W        W35387  25.886   3.223  33.991  0.2197  0.2973 -0.3555
28788W        W35388   0.319   0.725   3.521 -0.1241  0.2425  0.0117
28789W        W35389  15.790   6.416   8.221 -0.0943  0.0946 -0.0448
28790W        W35390  19.487   0.959  28.176  0.1878 -0.0577  0.1206
28791W        W35391  20.002   5.509   0.397  0.1593 -0.0578 -0.0979
28792W        W35392  19.841   2.472  35.343 -0.0130 -0.1604 -0.0350
28793W        W35393  25.141   2.972   1.043 -0.0401  0.0759  0.1583
28794W        W35394  21.961   0.152  33.089 -0.0991 -0.1678  0.2095
28795W        W35395  17.461   6.554  33.929 -0.0517 -0.2955  0.0242
28796W        W35396  13.601   3.886   3.359 -0.3612  0.1839 -0.1607
28797W        W35397  18.657   1.436  24.249  0.1349 -0.2770  0.0857
28798W        W35398   2.418   0.715  31.243 -0.3303 -0.0502 -0.0669
28799W        W35399  11.782   4.714  28.601 -0.4873 -0.1299  0.0651
28800W        W35400  22.708   3.700  11.934  0.0149 -0.2088  0.2690
28801W        W35401  10.680   1.747  27.558 -0.0316  0.0311 -0.2061
28802W        W35402   1.807   2.518  14.211  0.1524 -0.0213  0.0067
28803W        W35403   6.173   2.564   1.562 -0.1051 -0.1185 -0.0444
28804W        W35404   3.504   4.693  24.606  0.0378 -0.1263 -0.0877
28805W        W35405   0.408   3.785   9.818  0.0400 -0.1885  0.2375
28806W        W35406  23.980   5.387  28.387  0.0791  0.3724 -0.2525
28807W        W35407   3.864   2.545   3.039 -0.1798 -0.1763  0.0111
28808W        W35408  11.581   6.131  23.170 -0.0873  0.0726  0.0607
28809W        W35409  26.185   3.423  10.264 -0.2198 -0.2373  0.0748
28810W        W35410  15.082   3.042  23.480  0.1657  0.1704  0.0581
28811W        W35411   5.162   1.736  26.801  0.0638  0.1998  0.3357
28812W        W35412  16.425   6.109  26.076 -0.2209 -0.0015 -0.0470
28813W        W35413  20.806   5.388   0.807 -0.2240  0.0599  0.0862
28814W        W35414  21.007   1.952   5.030  0.1604 -0.0346 -0.0522
28815W        W35415  18.713   3.902  26.111 -0.1506  0.1982  0.3864
28816W        W35416  24.325   1.316   8.676 -0.2945 -0.3232 -0.1138
28817W        W35417   3.316   0.186   7.634 -0.2030 -0.3669 -0.1458
28818W        W35418  23.789   5.722   1.620 -0.3338  0.0710  0.2083
28819W        W35419  10.841   0.164  34.458 -0.1067  0.3721  0.0226
28820W        W35420   1.332   6.040  25.237 -0.0901  0.0923  0.0676
28821W        W35421  14.293   5.984   5.008 -0.0046 -0.1505 -0.0124
28822W        W35422  11.024   2.121   6.134 -0.1073 -0.0203 -0.0503
28823W        W35423  23.202   0.416   6.123 -0.0366 -0.0050  0.2493
28824W        W35424  21.672   6.045   5.699  0.5028  0.1785  0.3470
28825W        W35425  18.561   5.546   3.170  0.2243 -0.1140 -0.4662
28826W        W35426  23.896   3.843   0.925  0.0067 -0.0448 -0.3295
28827W        W35427  13.529   5.928   1.723 -0.0869  0.0702 -0.1519
28828W        W35428   5.481   1.016   8.209 -0.0143 -0.0817 -0.1015
28829W        W35429  14.819   5.121  26.040  0.1348 -0.1022  0.0062
28830W        W35430   2.926   4.284  33.007  0.2029  0.1175  0.0393
28831W        W35431   6.751   0.335  32.392 -0.2299  0.1138  0.2026
28832W        W35432   3.671   5.673   8.185 -0.0312  0.0369  0.1038
28833W        W35433  25.400   1.462  24.990  0.1610  0.1337  0.3420
28834W        W35434  17.071   0.427   4.835  0.2100  0.1810  0.0484
28835W        W35435   2.631   2.238  24.641 -0.1449  0.2221  0.0697
28836W        W35436  10.140   2.571  12.246 -0.1199  0.1772  0.0809
28837W        W35437  21.606   0.614  31.250 -0.2922  0.1405 -0.0797
28838W        W35438   3.831   0.041  21.869 -0.1120  0.2317 -0.0815
28839W        W35439   5.889   1.195  22.120 -0.2257  0.0241 -0.2628
28840W        W35440   6.045   2.745   5.547  0.1404  0.0600  0.1721
28841W        W35441   5.583   6.292  34.850  0.0354 -0.0097 -0.1146
28842W        W35442  22.231   2.226   9.977  0.3728 -0.1955  0.0947
28843W        W35443  25.305   1.152  34.136 -0.0121  0.0750  0.1319
28844W        W35444  19.509   0.364  23.947  0.1978  0.1033  0.1276
28845W        W35445  24.063   5.856  28.701  0.4572 -0.2845 -0.1050
28846W        W35446  25.340   1.908  23.183 -0.2461 -0.2264 -0.0689
28847W        W35447  19.147   4.780  32.448 -0.1881 -0.0901  0.2249
28848W        W35448  15.066   0.204  23.425 -0.0407  0.0526 -0.0099
28849W        W35449   6.733   2.720  35.021 -0.0551  0.0971  0.0907
28850W        W35450  20.832   0.350   2.999 -0.0262 -0.0167 -0.0974
28851W        W35451  10.164   2.173  22.494  0.0174 -0.0732  0.0215
28852W        W35452   1.048   4.818  10.154  0.0198  0.2364  0.0563
28853W        W35453  24.107   1.070  35.581 -0.2614 -0.0835  0.2157
28854W        W35454   3.926   4.202  14.661  0.3104 -0.1073  0.0792
28855W        W35455  17.056   2.546  12.635 -0.0900 -0.1154 -0.4315
28856W        W35456  17.022   5.161  23.719 -0.2564  0.2150 -0.3662
28857W        W35457  13.021   2.883  28.910 -0.1638  0.0369 -0.1700
28858W        W35458   1.709   0.508   6.410  0.2063 -0.1257 -0.2171
28859W        W35459  10.732   3.374  26.266  0.0706 -0.0051  0.0430
28860W        W35460  12.338   5.508  31.258  0.0878 -0.0365  0.0526
28861W        W35461   5.312   1.227  30.002  0.0696  0.0466 -0.0852
28862W        W35462   3.698   4.923  21.126 -0.1576 -0.0482  0.2050
28863W        W35463   0.102   5.900   3.110 -0.2816  0.1088 -0.1022
28864W        W35464  15.181   4.942  22.315  0.0821 -0.0639 -0.1496
28865W        W35465   4.651   1.090  25.109 -0.2258  0.2011  0.2285
28866W        W35466  18.922   3.828  27.810  0.0526  0.0119 -0.2803
28867W        W35467  12.531   6.239   7.354 -0.0273 -0.0071  0.1885
28868W        W35468   3.696   3.237   0.790 -0.1178 -0.1003  0.0662
28869W        W35469  21.326   6.357  28.786  0.2483  0.1839 -0.1347
28870W        W35470   7.231   0.523   4.642  0.0453 -0.0189 -0.0312
28871W        W35471  15.383   2.340   2.715 -0.0825  0.2779 -0.5069
28872W        W35472   8.540   0.368   4.950 -0.2232  0.0797 -0.0826
28873W        W35473  20.563   4.126   1.922 -0.0685  0.0883  0.1393
28874W        W35474  18.445   4.670   6.551  0.2287 -0.0436 -0.0963
28875W        W35475  14.773   6.338  25.817 -0.1293  0.1421  0.4551
28876W        W35476  20.442   1.348  33.570  0.0558 -0.0452  0.0480
28877W        W35477   3.382   3.664  30.673  0.0734 -0.1147 -0.3474
28878W        W35478  18.825   5.814  14.901  0.0275 -0.0049  0.3734
28879W        W35479   9.255   3.357  15.275 -0.1601  0.0919  0.5093
28880W        W35480   2.381   4.203  30.757 -0.0732  0.1790 -0.0343
28881W        W35481  15.661   2.129  29.565 -0.0867  0.1062 -0.0643
28882W        W35482   7.742   2.364   9.527 -0.0997  0.2272 -0.4040
28883W        W35483  19.682   5.114   8.159 -0.1191 -0.0974 -0.1084
28884W        W35484  22.726   0.606  22.423  0.2272 -0.3311 -0.0006
28885W        W35485   6.720   5.623   0.682 -0.0217  0.1014  0.0543
28886W        W35486  23.018   5.692  11.094  0.0709 -0.0093 -0.1810
28887W        W35487  16.242   5.031   5.546  0.2150 -0.1430 -0.1036
28888W        W35488   0.041   3.817   0.749 -0.2229  0.0089  0.0847
28889W        W35489   4.271   4.787  35.803 -0.0490  0.0493 -0.4407
28890W        W35490  23.557   4.277  23.441 -0.0668  0.1388 -0.1722
28891W        W35491  21.353   1.260  12.904  0.0527  0.2417  0.0424
28892W        W35492   7.574   1.383   5.383  0.0602  0.0690  0.0475
28893W        W35493  18.541   3.430   9.771  0.0832  0.5338 -0.0032
28894W        W35494  17.158   1.497  34.921 -0.0431  0.0624  0.1658
28895W        W35495   0.144   3.111  34.566 -0.2651  0.0793  0.2811
28896W        W35496  25.241   4.673   1.814 -0.1145  0.0955  0.2707
28897W        W35497  24.490   4.949  31.740 -0.1510 -0.1386  0.1509
28898W        W35498  22.160   1.833  34.139  0.1230 -0.1339 -0.0973
28899W        W35499  12.624   4.107  34.162  0.0604 -0.0917  0.1051
28900W        W35500   2.838   0.452  25.669 -0.0495  0.3736 -0.1490
28901W        W35501  12.828   2.285  30.877  0.1000  0.0136 -0.4200
28902W        W35502   2.660   5.756  21.322 -0.0376 -0.2053 -0.1597
28903W        W35503  19.547   4.335   0.975  0.4959 -0.0125 -0.1493
28904W        W35504  11.596   3.475   2.924  0.0720  0.0228  0.0272
28905W        W35505   3.195   1.505   3.853 -0.0227  0.0243 -0.3315
28906W        W35506  17.502   1.645  24.945  0.0910 -0.0653  0.1151
28907W        W35507   3.811   6.515  11.587 -0.0320  0.0599 -0.0425
28908W        W35508  24.596   2.151   3.832 -0.2616  0.1105  0.0841
28909W        W35509  19.027   4.394  10.564  0.2104 -0.1475 -0.0517
28910W        W35510   8.800   6.105   7.793 -0.1549 -0.0413 -0.1980
28911W        W35511   1.643   5.285  14.195  0.1667 -0.1670 -0.3336
28912W        W35512  11.660   0.131   4.257  0.0766 -0.1453  0.0734
28913W        W35513   3.537   0.761  29.008  0.0996 -0.1042  0.1031
28914W        W35514   0.636   3.585   7.042 -0.0933 -0.1197  0.2645
28915W        W35515  11.317   5.568   3.380  0.2517 -0.0794  0.0494
28916W        W35516  10.840   2.680  33.943 -0.0405  0.0053  0.0587
28917W        W35517  21.995   3.912   7.865 -0.1045  0.0337 -0.1347
28918W        W35518  21.312   3.123  12.902  0.2305  0.0599  0.3974
28919W        W35519  11.773   0.392   5.320  0.0337  0.1171  0.2869
28920W        W35520  13.279   5.386  29.306  0.0310  0.2308  0.2924
28921W        W35521   3.285   4.481  31.867  0.1901 -0.1776  0.1954
28922W        W35522  10.814   5.739  22.168 -0.0767  0.0029  0.0593
28923W        W35523  18.637   3.075  13.249 -0.0175  0.2349 -0.3489
28924W        W35524  10.839   2.185  36.037  0.1682 -0.0835  0.0506
28925W        W35525   6.172   5.642   9.056  0.3999 -0.2235 -0.1603
28926W        W35526   3.844   1.100  31.234 -0.1726 -0.0029 -0.0434
28927W        W35527  25.504   1.367   3.558 -0.1221  0.0803 -0.0686
28928W        W35528  10.310   0.771  20.631 -0.2773  0.0196  0.2070
28929W        W35529   6.499   4.917  20.790  0.0692 -0.0339  0.0378
28930W        W35530   0.868   1.308  27.166  0.3738  0.0071  0.0954
28931W        W35531   4.383   5.378   9.200 -0.0988  0.2168 -0.1375
28932W        W35532  11.907   1.015  22.575  0.0577 -0.1264 -0.0854
28933W        W35533  12.839   4.905  10.321  0.1283  0.3312  0.1182
28934W        W35534   6.767   1.451  28.710 -0.2952 -0.2185  0.1157
28935W        W35535  11.080   0.199  13.425  0.2709  0.1612 -0.0359
28936W        W35536   3.494   2.551  35.477 -0.1407  0.0986  0.1934
28937W        W35537  12.809   4.528  28.955 -0.2534 -0.1875 -0.1645
28938W        W35538   6.232   2.088  21.185 -0.0775 -0.0348 -0.1721
28939W        W35539  18.347   2.576  26.388  0.1920 -0.0736  0.0650
28940W        W35540  13.248   6.238   0.015 -0.0814 -0.0805  0.2567
28941W        W35541   8.790   4.059  11.403 -0.2226  0.0302 -0.1594
28942W        W35542  18.716   3.238  22.661 -0.1196  0.1168  0.1655
28943W        W35543  14.028   2.816   8.965 -0.2293 -0.0336 -0.2298
28944W        W35544  19.358   2.246   7.014  0.0636 -0.3201  0.0944
28945W        W35545  21.475   4.690  14.052 -0.2092  0.4287  0.1138
28946W        W35546  17.222   4.727  31.247  0.1361  0.1159 -0.0770
28947W        W35547   2.729   3.404  11.568 -0.2623  0.0828 -0.0393
28948W        W35548   1.381   5.083   0.533 -0.0395  0.0073 -0.1557
28949W        W35549   9.201   4.500  24.656  0.1280  0.0473 -0.1490
28950W        W35550  21.953   6.020   7.466 -0.2280  0.0992 -0.1053
28951W        W35551  10.615   4.988   9.777 -0.0939 -0.1411 -0.0974
28952W        W35552   8.439   5.503  30.437  0.1444  0.3485  0.1027
28953W        W35553  17.295   3.197  27.271 -0.1123  0.0246 -0.0647
28954W        W35554  18.997   4.192   8.967  0.0292  0.1227  0.1969
28955W        W35555   7.304   2.592  24.875 -0.0471 -0.0349 -0.1290
28956W        W35556  22.819   0.756   6.222  0.1255  0.0260  0.0020
28957W        W35557  21.565   2.164  20.588  0.1025 -0.1442 -0.1703
28958W        W35558   6.431   2.690   2.076  0.0402  0.1471  0.0326
28959W        W35559  15.551   0.273  29.643 -0.1899 -0.1846 -0.0292
28960W        W35560  19.243   5.904   6.294 -0.1879  0.0137  0.1740
28961W        W35561  10.329   6.040  34.684 -0.1408 -0.0172 -0.0416
28962W        W35562  14.828   5.279  24.724 -0.0892  0.0236  0.2366
28963W        W35563  11.304   4.223  12.891  0.1820 -0.0595  0.0109
28964W        W35564  16.112   2.206   0.514 -0.0802  0.0434  0.1531
28965W        W35565   4.499   0.504   8.226 -0.0417  0.1895 -0.1091
28966W        W35566  16.469   1.278  23.477 -0.0718  0.0461  0.0001
28967W        W35567  21.197   5.469  21.098  0.1323  0.3462 -0.1169
28968W        W35568  16.386   1.647  34.741 -0.0168 -0.1175  0.3232
28969W        W35569  24.747   4.568  22.451  0.0254 -0.2906 -0.0980
28970W        W35570  15.806   4.339   6.648  0.1082  0.1688  0.2406
28971W        W35571  25.002   5.418  23.398  0.1097 -0.1903 -0.0340
28972W        W35572  10.616   6.544  23.279  0.1655  0.0936 -0.0272
28973W        W35573   7.845   1.081  10.445  0.2347 -0.0107  0.2268
28974W        W35574  10.461   1.823  29.215  0.0776 -0.1134  0.0442
28975W        W35575  20.349   0.028  14.145  0.1171  0.1572 -0.0862
28976W        W35576  24.815   2.008  20.670  0.2419 -0.0197  0.3973
28977W        W35577  21.162   0.749  35.706  0.1188  0.1926  0.3317
28978W        W35578  10.546   6.396   9.363 -0.1716 -0.2871  0.0617
28979W        W35579   5.688   3.788  31.369 -0.1104  0.1375 -0.3267
28980W        W35580  12.222   0.564  20.975 -0.0208  0.4020 -0.0664
28981W        W35581  10.999   1.738  10.482 -0.0531  0.3669 -0.0804
28982W        W35582  19.861   3.216  31.609 -0.2457 -0.4037 -0.0346
28983W        W35583  22.147   1.236   7.820 -0.2814  0.1415  0.1685
28984W        W35584  20.797   0.136   9.758  0.0212 -0.1568  0.0456
28985W        W35585  10.763   5.770  32.859  0.0925  0.0313  0.1249
28986W        W35586  26.247   0.170  15.110 -0.0881 -0.2796 -0.1107
28987W        W35587   4.530   0.853  27.831 -0.0847  0.1043  0.0494
28988W        W35588  21.003   4.057   3.112  0.1637 -0.0180  0.2151
28989W        W35589   1.913   0.949  33.787 -0.0603 -0.1336 -0.2228
28990W        W35590   2.638   2.268   9.216 -0.1482  0.1609 -0.2008
28991W        W35591  18.691   1.911  14.206 -0.2492  0.0440  0.0921
28992W        W35592   7.929   0.027  28.941 -0.3078  0.0668 -0.1242
28993W        W35593   5.380   1.135  31.352  0.1318 -0.0303  0.0393
28994W        W35594   1.688   1.730  24.074 -0.0191  0.0296  0.4466
28995W        W35595   2.026   3.711   5.830 -0.0062 -0.1380  0.3034
28996W        W35596   0.298   2.484  10.432  0.0351  0.3656 -0.2712
28997W        W35597  17.779   3.613   3.521  0.0607 -0.0486  0.3674
28998W        W35598   6.960   5.219  31.686 -0.4324 -0.2613 -0.0074
28999W        W35599  26.179   0.645  34.254 -0.0699  0.0362 -0.2380
29000W        W35600  10.771   4.260  25.685  0.0907 -0.1001 -0.0428
29001W        W35601  23.889   5.270   0.239 -0.1988 -0.1930  0.0648
29002W        W35602   9.352   0.966  34.979 -0.3113 -0.0362 -0.1929
29003W        W35603  22.691   3.031  20.846 -0.4418 -0.0771 -0.0771
29004W        W35604  16.519   2.894  35.042  0.2715 -0.1194  0.0339
29005W        W35605   1.159   1.025  21.809 -0.1809 -0.1014 -0.0503
29006W        W35606   6.441   6.587  11.421 -0.0706 -0.1125 -0.0468
29007W        W35607   8.157   5.601  21.101 -0.1773  0.0849 -0.0207
29008W        W35608   8.196   0.371  28.117 -0.3005 -0.2613  0.3062
29009W        W35609  18.551   5.546  32.998 -0.1385 -0.3400  0.0762
29010W        W35610  12.246   4.905  15.909  0.0095  0.1110  0.2968
29011W        W35611  18.090   1.489  28.492  0.2315 -0.0806  0.1036
29012W        W35612  25.842   2.090  10.506  0.1979  0.0137 -0.0909
29013W        W35613   8.246   2.084   9.470  0.2614 -0.0977 -0.1209
29014W        W35614  17.771   5.898   1.099  0.1505  0.4174  0.2026
29015W        W35615   6.579   6.527   2.802  0.0098  0.1116 -0.1315
29016W        W35616  24.899   3.472  12.188 -0.4290  0.0375  0.1226
29017W        W35617   1.103   5.709  12.551  0.3129 -0.3539 -0.0936
29018W        W35618  24.527   2.271  11.289  0.0242  0.0219  0.1332
29019W        W35619   6.855   4.411  31.367  0.0547  0.0960  0.2290
29020W        W35620  12.235   6.267  11.391  0.1959 -0.1077 -0.0753
29021W        W35621  11.443   4.230  23.708 -0.1240  0.1064  0.0245
29022W        W35622   6.865   0.481  13.013  0.0319  0.2753  0.0305
29023W        W35623  22.115   3.291  34.562  0.0843 -0.0931 -0.1855
29024W        W35624   0.995   6.041  22.758 -0.2128 -0.0277 -0.0138
29025W        W35625   6.545   6.472   4.767 -0.0189 -0.0576 -0.0495
29026W        W35626   6.002   1.178  31.365  0.1525  0.2036 -0.0646
29027W        W35627   2.811   1.308   6.857 -0.1715  0.3256  0.2492
29028W        W35628  23.165   2.072  30.703  0.3127 -0.0780  0.3751
29029W        W35629  17.109   2.355  11.708 -0.1624  0.1396 -0.0896
29030W        W35630  26.328   0.483  14.301  0.1196  0.0680 -0.1897
29031W        W35631  14.410   1.356  31.880 -0.1862 -0.0165 -0.1196
29032W        W35632   9.339   5.592   2.184 -0.0668 -0.0235  0.1273
29033W        W35633   0.839   5.363   3.416 -0.3439  0.1485 -0.0703
29034W        W35634  17.845   0.907  23.351  0.1584  0.3135  0.4417
29035W        W35635   1.159   6.263   3.159  0.3826  0.4437  0.2319
29036W        W35636  23.641   1.983  28.569  0.0114  0.0881  0.0743
29037W        W35637  25.419   4.936   5.524  0.1115 -0.0136 -0.0663
29038W        W35638   9.200   5.088  27.366  0.1036  0.1865  0.0164
29039W        W35639  21.240   2.802  10.762  0.1970  0.0331 -0.0181
29040W        W35640  18.915   4.087  28.810  0.2526 -0.6296 -0.0973
29041W        W35641  19.138   5.992  34.383 -0.2358 -0.2141  0.3713
29042W        W35642  10.394   6.148  35.140 -0.0021  0.0646  0.1258
29043W        W35643  25.387   2.880   9.141 -0.1861  0.1025 -0.0303
29044W        W35644  15.374   2.067  24.637 -0.1592 -0.2865 -0.0812
29045W        W35645   3.284   3.147  13.120 -0.0988  0.1087  0.2379
29046W        W35646   4.634   1.830  10.120  0.1316 -0.1540  0.0268
29047W        W35647  17.390   1.201   5.035  0.3124 -0.0842  0.2106
29048W        W35648   2.000   5.622   7.230  0.1059 -0.0685  0.1817
29049W        W35649   5.284   5.039  31.355 -0.1802  0.1650 -0.1197
29050W        W35650   7.071   1.665  33.320 -0.1190  0.1327 -0.0373
29051W        W35651   9.840   2.093  12.463  0.1166  0.3256  0.2811
29052W        W35652  22.616   2.038  15.254 -0.2128 -0.0583 -0.1408
29053W        W35653   8.364   6.584  24.640 -0.1789  0.1044  0.1008
29054W        W35654   4.455   4.748  22.413  0.1404  0.1563 -0.1358
29055W        W35655   2.747   0.097  14.343  0.1176 -0.1324  0.2050
29056W        W35656   9.550   1.327  12.188  0.1649 -0.1413 -0.0741
29057W        W35657  26.284   5.032  32.935  0.0807  0.0518  0.1625
29058W        W35658  12.652   5.284  32.026  0.2232  0.1274  0.1459
29059W        W35659   1.710   5.749   5.801 -0.0372 -0.2945  0.4987
29060W        W35660  11.785   0.846   6.132 -0.2959 -0.3321 -0.1784
29061W        W35661  21.141   1.579  26.663  0.2271 -0.2378  0.0437
29062W        W35662   7.702   4.880  14.277 -0.1143 -0.2076 -0.0332
29063W        W35663   8.271   6.087  24.737  0.2878 -0.1135 -0.1915
29064W        W35664  13.927   5.465   3.799 -0.0079 -0.0946  0.2112
29065W        W35665  20.224   4.728   0.655  0.0482 -0.1839  0.0486
29066W        W35666  18.660   2.420   8.179 -0.1892  0.2402  0.1273
29067W        W35667  15.326   6.415  35.335 -0.2729 -0.1106  0.0461
29068W        W35668  10.044   3.029  21.376  0.1237  0.1062  0.3069
29069W        W35669  23.512   5.028  31.474 -0.1158  0.1166  0.0881
29070W        W35670  20.423   5.224  35.199  0.0176 -0.2026 -0.2808
29071W        W35671  13.286   1.078  26.065  0.0555 -0.0450  0.4036
29072W        W35672  23.066   3.276   8.011 -0.2121 -0.2707  0.1924
29073W        W35673  12.267   5.097  10.363  0.0770  0.3262 -0.0174
29074W        W35674   4.359   1.599   8.426  0.2676 -0.1743  0.0810
29075W        W35675   8.681   0.808  25.727  0.1715  0.2108 -0.0510
29076W        W35676  26.177   2.957  10.335  0.0944 -0.2323  0.1350
29077W        W35677  20.969   4.024   0.635 -0.0591  0.1212  0.0376
29078W        W35678  23.478   2.683  20.763  0.0121 -0.0935 -0.2828
29079W        W35679  13.356   0.953  12.654  0.1431 -0.1129  0.2195
29080W        W35680   7.454   1.086   7.245 -0.1573  0.0732  0.3252
29081W        W35681  26.250   4.694   1.723  0.1153  0.1865 -0.1956
29082W        W35682  22.163   5.388  26.387 -0.1930  0.3086  0.0020
29083W        W35683  25.683   4.655  28.174  0.1578 -0.0334  0.1221
29084W        W35684   5.234   4.417   8.648  0.0218  0.2103 -0.0971
29085W        W35685  19.859   6.493  10.014 -0.1703  0.0854  0.2201
29086W        W35686  10.841   2.454  27.172 -0.1632 -0.0681  0.1560
29087W        W35687  16.592   6.318  13.139 -0.2232  0.0709  0.0901
29088W        W35688  23.663   6.038  31.642 -0.0933 -0.4562  0.0082
29089W        W35689   7.862   0.028  28.369  0.0027  0.0019 -0.0561
29090W        W35690  16.654   0.326   4.105 -0.1010 -0.1555 -0.0632
29091W        W35691   8.469   3.424  30.389 -0.1597  0.2036 -0.0063
29092W        W35692  11.585   4.070  10.325  0.0378  0.1792  0.1883
29093W        W35693   2.816   4.311   0.861 -0.1517 -0.0788 -0.0462
29094W        W35694   4.732   5.364  32.545 -0.1998  0.0996 -0.0761
29095W        W35695  17.500   4.668  34.170  0.4147  0.2039  0.2195
29096W        W35696  23.593   3.089   8.619 -0.0869  0.2154  0.0626
29097W        W35697  21.559   2.230  20.115  0.2160  0.1205  0.0994
29098W        W35698   7.382   5.613  30.710 -0.2144 -0.0484 -0.0780
29099W        W35699   2.476   3.798  26.422 -0.0624 -0.1225  0.1498
29100W        W35700  15.969   2.401   1.541 -0.1885  0.1869 -0.0078
29101W        W35701  20.703   4.718  28.363  0.1439  0.2602 -0.1405
29102W        W35702   6.773   6.536  13.077 -0.0293 -0.1388 -0.0151
29103W        W35703   7.646   3.457  28.134  0.0698 -0.1165 -0.2296
29104W        W35704   2.147   6.496   8.472  0.1585 -0.2360 -0.1509
29105W        W35705  10.689   1.026  27.477  0.1628  0.0921 -0.0651
29106W        W35706   5.191   1.304  30.959  0.0020 -0.0858  0.0885
29107W        W35707  24.357   1.912  27.650  0.2439 -0.2432 -0.1716
29108W        W35708  14.239   3.517   1.372 -0.3440  0.1571  0.4497
29109W        W35709   2.957   4.474  23.501  0.0729 -0.1117 -0.1034
29110W        W35710  18.709   5.046  34.328  0.0865  0.2243  0.1210
29111W        W35711   7.643   0.696  27.114  0.0287  0.0875 -0.0958
29112W        W35712   6.036   0.676  10.570  0.0999  0.0873  0.2474
29113W        W35713   3.863   3.499   5.407  0.1559  0.1317  0.2364
29114W        W35714   7.891   1.924   7.107  0.4869 -0.0016  0.0702
29115W        W35715  23.910   2.132  34.575 -0.4256 -0.1985  0.1513
29116W        W35716  21.793   3.567  31.619 -0.0517  0.4340 -0.1622
29117W        W35717  26.378   3.579  13.493 -0.0709 -0.0748 -0.0310
29118W        W35718  15.299   6.464  15.053 -0.1524 -0.0272 -0.2015
29119W        W35719  20.527   5.344  12.316  0.0837 -0.1226 -0.0362
29120W        W35720  12.397   2.377   7.897  0.1030 -0.2107 -0.1280
29121W        W35721   6.969   6.132  24.482 -0.1262  0.1156 -0.2393
29122W        W35722   3.072   5.451   1.935  0.0227 -0.0266 -0.0245
29123W        W35723   5.900   1.538   2.776 -0.0079  0.2600  0.1176
29124W        W35724   1.391   5.547  20.122 -0.0042 -0.0488  0.1525
29125W        W35725  24.074   4.206  29.647 -0.2577 -0.1007 -0.0565
29126W        W35726   4.759   4.405  24.092 -0.1599 -0.1667  0.2624
29127W        W35727   6.996   0.393  30.720 -0.1202 -0.1102  0.3285
29128W        W35728   3.380   3.929  11.347 -0.3305  0.1438  0.0273
29129W        W35729   7.950   2.599  26.710  0.1536 -0.1319 -0.3081
29130W        W35730  20.897   0.111  26.225  0.0816 -0.0437 -0.0129
29131W        W35731   0.169   1.082  15.835  0.1785 -0.0446 -0.0402
29132W        W35732  19.274   6.167  14.828 -0.1397  0.2765  0.5488
29133W        W35733   2.957   3.080   8.381 -0.3717 -0.0102  0.2519
29134W        W35734   1.294   0.959   5.814 -0.3016  0.2021  0.1152
29135W        W35735  19.336   3.153   0.855  0.3390 -0.1666  0.3097
29136W        W35736   4.325   3.283  12.127 -0.0048  0.0567  0.0664
29137W        W35737  25.517   6.517  12.379  0.0133 -0.1083  0.0664
29138W        W35738  23.389   0.549   0.307 -0.0332 -0.0128  0.0131
29139W        W35739   5.898   0.516   3.297  0.0742  0.0238  0.1407
29140W        W35740  24.520   2.158  33.837  0.1128  0.2566  0.1244
29141W        W35741  19.686   5.402   3.892 -0.2449  0.2087  0.1430
29142W        W35742  21.947   5.096  35.506 -0.0198  0.0326 -0.0714
29143W        W35743   0.596   5.852   6.104  0.0449 -0.2069 -0.0460
29144W        W35744  25.181   2.512  10.778  0.0332 -0.0556 -0.1590
29145W        W35745  10.217   1.337  22.746  0.1575 -0.1983 -0.0918
29146W        W35746  22.872   3.650   3.346 -0.1509  0.2875  0.2392
29147W        W35747  24.228   2.344  25.616 -0.3278 -0.2478  0.0044
29148W        W35748  24.181   3.834   4.580 -0.0301 -0.0418  0.1938
29149W        W35749  10.871   2.421  12.709 -0.1825 -0.0869  0.1910
29150W        W35750   5.921   0.171  35.692  0.2828 -0.0342 -0.1324
29151W        W35751  21.915   1.640  22.720 -0.2116 -0.0425 -0.0013
29152W        W35752  10.519   6.138   0.073 -0.2437 -0.2232 -0.0442
29153W        W35753  23.909   2.614  14.403 -0.3207  0.1907 -0.1110
29154W        W35754  24.640   1.119  15.478  0.1452  0.3093  0.2312
29155W        W35755  17.294   4.998   2.707 -0.1800  0.0527  0.1985
29156W        W35756  18.858   5.899  33.036  0.1365 -0.1664  0.3316
29157W        W35757   3.995   2.486  33.727 -0.0811  0.0220 -0.0088
29158W        W35758  25.097   0.626   4.921  0.4512 -0.0308  0.0363
29159W        W35759  19.961   1.741  35.965  0.0903 -0.1267 -0.1215
29160W        W35760   9.036   1.491  13.448  0.1774 -0.1416  0.1905
29161W        W35761   4.464   5.787   1.428  0.0042 -0.1069  0.0311
29162W        W35762  25.180   4.505  15.230  0.1629  0.2250 -0.2989
29163W        W35763  24.424   2.554  26.013  0.1294 -0.1826 -0.2465
29164W        W35764   0.758   1.702  22.581  0.0337  0.1363  0.0125
29165W        W35765  10.239   3.052  29.076  0.0296  0.1580 -0.0393
29166W        W35766  14.547   0.224   2.889  0.0914  0.1778  0.0395
29167W        W35767  17.988   1.895  21.767 -0.2643  0.3468  0.1122
29168W        W35768   2.447   2.019  27.628  0.2730 -0.2340 -0.1990
29169W        W35769   7.130   5.702  29.292  0.0866  0.0443  0.0688
29170W        W35770  13.979   6.464   7.203  0.2759  0.0906 -0.1352
29171W        W35771  18.763   4.916  27.723 -0.0098  0.0296  0.2227
29172W        W35772  20.073   0.840  15.846 -0.1440 -0.2506 -0.1256
29173W        W35773  22.821   6.512  35.891  0.1378  0.1044 -0.1711
29174W        W35774  21.907   2.598   1.298 -0.0475  0.0194  0.0244
29175W        W35775  25.305   4.914  24.289  0.1218  0.1289 -0.0488
29176W        W35776  21.324   1.374  32.885  0.0189  0.2772 -0.0649
29177W        W35777  22.373   5.322  22.372 -0.2289  0.2087 -0.1975
29178W        W35778  22.455   2.762  24.086 -0.1020 -0.3088  0.0850
29179W        W35779  24.953   3.114  29.160  0.0821 -0.0690  0.1714
29180W        W35780  11.129   5.290  35.585 -0.0331 -0.1720 -0.1414
29181W        W35781  13.992   5.744   2.008 -0.0289 -0.3022  0.0903
29182W        W35782   4.031   2.089   0.276 -0.0784  0.2600  0.0522
29183W        W35783   7.424   6.573  13.763  0.2026  0.3602  0.0348
29184W        W35784   6.320   2.500  35.926  0.1449  0.0150 -0.0256
29185W        W35785   0.110   1.430  26.070  0.0340  0.0450 -0.4113
29186W        W35786  20.381   0.555  21.888 -0.3243  0.1785 -0.2364
29187W        W35787  26.293   5.648  21.126  0.0488 -0.0706 -0.3783
29188W        W35788  20.968   3.813  29.640  0.0718 -0.2214  0.0729
29189W        W35789  11.447   3.034   7.820  0.1205 -0.2992  0.0291
29190W        W35790  17.065   3.056   0.634  0.0579  0.1273  0.0519
29191W        W35791  13.415   3.313  33.701 -0.0474  0.1522  0.1042
29192W        W35792  23.075   2.391   1.205  0.2631 -0.2449  0.0675
29193W        W35793  14.515   1.236  23.153 -0.0306 -0.2484  0.3401
29194W        W35794  23.710   4.520  11.649  0.2141  0.1314  0.2075
29195W        W35795   3.672   4.036  30.329  0.0784  0.2559 -0.0222
29196W        W35796   7.869   1.413   0.853  0.2803 -0.4010 -0.3024
29197W        W35797  26.323   6.342  21.782 -0.0991 -0.0207  0.1632
29198W        W35798   6.928   2.787  33.630 -0.3055 -0.2090 -0.0338
29199W        W35799  24.708   5.073  33.610 -0.1124 -0.1129 -0.0879
29200W        W35800  24.268   3.930  30.024 -0.0243  0.3800 -0.0465
29201W        W35801   4.989   3.553  13.950  0.1858 -0.1913  0.0613
29202W        W35802  20.883   6.085   4.596 -0.1234 -0.0702  0.0455
29203W        W35803  25.844   3.588   5.506 -0.0162  0.0072 -0.0109
29204W        W35804  12.802   3.495  15.750  0.4056  0.1030 -0.2034
29205W        W35805   6.467   4.153  26.018  0.1310 -0.2375  0.0132
29206W        W35806  19.034   4.352  31.634  0.1032 -0.2618  0.0826
29207W        W35807   5.768   5.844  10.677 -0.3157 -0.0674  0.0606
29208W        W35808  18.470   4.091  23.794 -0.1644  0.1359  0.1029
29209W        W35809  21.851   2.355  24.036 -0.2422 -0.2385 -0.1115
29210W        W35810  25.294   2.202   5.865 -0.3635  0.1693  0.2063
29211W        W35811   4.359   5.574   4.055  0.2015  0.1529 -0.0038
29212W        W35812  16.652   1.320   7.062  0.1483 -0.0291 -0.0579
29213W        W35813  19.061   5.876  29.109  0.3121 -0.3304  0.1078
29214W        W35814   4.212   0.290   4.273 -0.0875 -0.0920 -0.0463
29215W        W35815  19.367   4.938   3.101  0.4063  0.3705  0.0587
29216W        W35816  14.317   4.639  21.453  0.0822 -0.1198  0.2603
29217W        W35817  17.549   3.847  23.877  0.0233 -0.0567 -0.2736
29218W        W35818  18.002   1.672  10.205 -0.0368  0.1415 -0.2425
29219W        W35819   2.500   3.506   5.621  0.1623 -0.1697 -0.2848
29220W        W35820  23.262   5.906  19.997 -0.0528 -0.0896  0.0684
29221W        W35821   7.714   3.133  10.385 -0.1058  0.0605 -0.0936
29222W        W35822  16.930   5.121   1.058  0.0145 -0.1635  0.2267
29223W        W35823  10.648   5.532  24.823 -0.0637 -0.0012 -0.0467
29224W        W35824  14.681   5.868  34.199 -0.0122 -0.2924  0.1766
29225W        W35825   8.669   2.752  22.638  0.1810 -0.0922  0.0866
29226W        W35826  17.285   4.047  10.209 -0.0055 -0.2964 -0.0099
29227W        W35827   6.135   3.388  31.491  0.0532 -0.4345  0.1311
29228W        W35828   1.654   1.440  26.564 -0.0771 -0.2401  0.0038
29229W        W35829   3.635   4.241  13.497 -0.0953  0.0076  0.0926
29230W        W35830  11.077   0.625  10.433  0.1473 -0.0749  0.0135
29231W        W35831  26.301   1.532   9.301  0.0311 -0.0549 -0.1800
29232W        W35832  21.491   3.387   5.252 -0.1081  0.0597  0.2515
29233W        W35833  20.852   5.069  21.214  0.3041 -0.0101  0.2420
29234W        W35834  16.726   5.544  23.953 -0.0860  0.1633  0.1187
29235W        W35835  22.681   3.597  10.685  0.0002  0.1624 -0.0453
29236W        W35836   7.037   1.501  10.685  0.2118  0.0591 -0.3639
29237W        W35837  12.108   2.907   9.909  0.1564  0.0570  0.0252
29238W        W35838   4.130   6.473  32.138  0.2198 -0.0694 -0.0738
29239W        W35839  11.366   4.173  11.539  0.2428  0.1216 -0.4176
29240W        W35840   7.224   1.276   8.098  0.0073 -0.0889  0.0923
29241W        W35841  26.360   5.169  27.534 -0.1632  0.3592  0.0973
29242W        W35842  10.174   0.672  14.370  0.3400  0.1325 -0.1144
29243W        W35843  13.882   2.911  11.088  0.2304  0.0255  0.2087
29244W        W35844   4.460   0.323   2.483  0.2209  0.0610  0.1672
29245W        W35845  17.024   6.599   5.139  0.2217  0.0950 -0.2811
29246W        W35846   3.565   3.785  11.856  0.1556 -0.1164 -0.3027
29247W        W35847   8.625   5.533  32.574  0.0707 -0.4818  0.0770
29248W        W35848  15.447   4.087  33.982 -0.1258  0.1001 -0.0605
29249W        W35849   8.762   0.883  22.464 -0.0820  0.0391  0.0249
29250W        W35850   2.801   0.186  14.996  0.0889 -0.1874 -0.1906
29251W        W35851  13.733   1.998  35.628 -0.2408  0.0786  0.0382
29252W        W35852   4.192   4.642  23.419 -0.1302 -0.2683 -0.1929
29253W        W35853  10.606   3.345   1.452 -0.2000 -0.1477  0.0295
29254W        W35854   5.131   4.247  23.843 -0.2627  0.1829  0.1136
29255W        W35855   1.759   2.878  13.223  0.2284  0.2380  0.1473
29256W        W35856  18.896   1.778  13.724  0.0941  0.0613  0.0057
29257W        W35857  20.515   3.423   4.298  0.0241 -0.1443 -0.3781
29258W        W35858   4.857   1.099  23.687 -0.0822  0.1118 -0.1807
29259W        W35859  20.317   4.554   4.201  0.0467  0.3159 -0.1949
29260W        W35860  13.109   2.861  25.149 -0.1043  0.1625 -0.1330
29261W        W35861  17.718   4.520  35.187  0.0466 -0.2993  0.0134
29262W        W35862  17.542   1.033   7.032  0.3809 -0.2817  0.0547
29263W        W35863  25.292   4.882   7.060  0.2474 -0.1928  0.2374
29264W        W35864   0.637   6.400  30.561  0.0555 -0.2258  0.1790
29265W        W35865   8.144   0.248   4.758 -0.1306  0.0474  0.2203
29266W        W35866  21.068   6.054   8.622 -0.0550 -0.0163  0.0683
29267W        W35867   7.287   1.586  29.469 -0.2942 -0.1939  0.2762
29268W        W35868  16.774   0.539  27.951  0.3553 -0.3837 -0.1041
29269W        W35869  23.772   6.505  34.886  0.0489 -0.1493  0.1140
29270W        W35870  24.590   5.536  30.602 -0.1561 -0.0436 -0.4824
29271W        W35871   5.962   5.885   2.244  0.0564  0.0629  0.1091
29272W        W35872  24.647   2.288  22.340 -0.2874  0.0415  0.1305
29273W        W35873  19.092   4.915   4.681  0.0946 -0.1784 -0.0520
29274W        W35874   6.054   5.123   5.652  0.0614 -0.2170  0.0324
29275W        W35875  17.295   4.805   8.176 -0.1463 -0.0795 -0.0900
29276W        W35876  19.107   3.457   8.211 -0.2399  0.1250 -0.2404
29277W        W35877  17.076   3.775  35.004  0.2113 -0.1769 -0.1845
29278W        W35878  12.929   5.186   0.743 -0.1807  0.0242 -0.0958
29279W        W35879   9.760   6.403  24.961  0.3099 -0.0482 -0.0079
29280W        W35880  20.445   5.908  32.453 -0.0665 -0.2474  0.3268
29281W        W35881  19.232   0.632  12.918 -0.4771  0.1620 -0.0597
29282W        W35882  21.189   0.284  12.585  0.1872  0.0541  0.0213
29283W        W35883  20.405   0.591   0.065 -0.1245  0.4070 -0.0362
29284W        W35884   3.144   2.828  28.969 -0.1560 -0.0534  0.1650
29285W        W35885   8.266   4.341   6.880 -0.0364  0.1829 -0.0686
29286W        W35886   7.138   0.328   7.628  0.3593  0.0774  0.2759
29287W        W35887  13.288   1.107  23.379  0.0045  0.1075 -0.0693
29288W        W35888   7.448   0.834  31.406  0.1950 -0.0729 -0.0859
29289W        W35889   5.405   6.187  11.645 -0.1013  0.3934  0.1857
29290W        W35890   3.228   4.562  11.988  0.1478 -0.0589  0.1498
29291W        W35891  26.325   1.986  28.039  0.3463  0.0727  0.1181
29292W        W35892   8.272   0.343  27.172 -0.1370 -0.1308 -0.1797
29293W        W35893  15.207   6.051  14.766  0.0052  0.0840 -0.3074
29294W        W35894  19.859   3.486  23.977  0.0642  0.1664 -0.0035
29295W        W35895  13.416   6.513  10.017  0.1303 -0.2550  0.1686
29296W        W35896   6.418   4.881  13.703  0.2015 -0.3956  0.1816
29297W        W35897  17.105   5.511  28.173 -0.2486 -0.0256  0.0133
29298W        W35898  22.008   2.346  27.304 -0.2543  0.0096 -0.0737
29299W        W35899  19.895   4.574   8.184  0.0929 -0.0634 -0.1669
29300W        W35900   5.802   3.033   3.223  0.2059  0.1882 -0.0020
29301W        W35901  11.615   4.956   2.832 -0.0264 -0.0147  0.0161
29302W        W35902   6.990   6.117  32.331  0.0765  0.0150 -0.2669
29303W        W35903   8.285   5.382   8.532  0.1819 -0.1170  0.0768
29304W        W35904   2.016   2.166  11.220 -0.0169 -0.2436 -0.1509
29305W        W35905  22.971   2.632   9.378  0.3665 -0.1913  0.0366
29306W        W35906  20.196   6.391   9.217 -0.3694 -0.0471 -0.1244
29307W        W35907  19.189   0.102  26.973  0.0486  0.2834 -0.0467
29308W        W35908  16.573   3.657  24.283  0.2073  0.0974  0.0172
29309W        W35909  17.796   5.451  27.529  0.2159  0.2060  0.0048
29310W        W35910  15.827   0.671   8.814 -0.0543 -0.0904 -0.2604
29311W        W35911  18.356   2.318  23.555 -0.0692  0.0692 -0.2373
29312W        W35912  10.763   2.960   3.450  0.0244  0.1421 -0.0055
29313W        W35913   0.111   6.232   4.055 -0.0352 -0.0351 -0.2260
29314W        W35914   1.885   1.299  23.783  0.0483  0.1018  0.1019
29315W        W35915  24.402   3.308  31.821  0.1957  0.0643  0.1621
29316W        W35916  15.170   3.012  23.967 -0.0903 -0.1050 -0.0136
29317W        W35917  11.501   1.733  31.560 -0.1650  0.5271  0.1442
29318W        W35918  22.423   2.625  20.547 -0.1062 -0.2391 -0.2351
29319W        W35919   4.412   5.318  27.929 -0.1929 -0.0674 -0.2192
29320W        W35920  14.253   0.781  21.932 -0.1151 -0.3228  0.3765
29321W        W35921   0.205   3.285  35.089 -0.0412  0.0890  0.0056
29322W        W35922   7.149   1.532  34.932 -0.2530  0.1827  0.2761
29323W        W35923  19.101   3.697  10.460  0.0937 -0.1775  0.1567
29324W        W35924   6.462   2.364   8.806 -0.2323 -0.0609 -0.2194
29325W        W35925   0.931   1.612  13.750 -0.2075  0.0196 -0.1226
29326W        W35926  21.781   4.504  13.686 -0.2755  0.3165  0.1438
29327W        W35927   6.721   4.456   5.765 -0.2246 -0.2653 -0.1136
29328W        W35928   3.753   5.553  35.417  0.0711  0.2181  0.1456
29329W        W35929   1.589   6.409  23.220 -0.0060 -0.2070  0.0394
29330W        W35930   7.643   5.319  11.854 -0.0340 -0.0072 -0.0767
29331W        W35931  21.788   6.372  25.117 -0.0098  0.2285  0.4967
29332W        W35932   9.540   5.987  32.316 -0.0803  0.1846  0.1829
29333W        W35933   5.471   5.062   9.751  0.0002  0.2302 -0.1736
29334W        W35934  21.589   6.013  24.795 -0.0491 -0.0082 -0.1012
29335W        W35935   9.114   5.765   8.005  0.1180 -0.0776 -0.1244
29336W        W35936  17.517   3.221  27.852 -0.0210  0.2328 -0.0976
29337W        W35937   5.331   1.206   4.312  0.0906  0.2724  0.0909
29338W        W35938   2.529   3.996   6.912 -0.0188 -0.2856 -0.3679
29339W        W35939  22.104   1.130  24.391 -0.2764 -0.0122  0.0369
29340W        W35940  13.625   5.499  33.126  0.1938  0.1285 -0.1647
29341W        W35941  18.591   3.515  29.080 -0.1966  0.1468 -0.3179
29342W        W35942   1.868   5.728  21.258 -0.1700  0.3971  0.0390
29343W        W35943  16.197   2.779   0.512  0.0549  0.0470 -0.0727
29344W        W35944  20.057   4.996   9.570 -0.1364 -0.2119 -0.0129
29345W        W35945   4.798   5.468   6.096  0.0406 -0.4123 -0.2638
29346W        W35946  14.405   5.968  14.629 -0.0028  0.1427 -0.2468
29347W        W35947   0.580   2.552   2.528 -0.2432 -0.1006 -0.1111
29348W        W35948  16.172   1.967  21.959  0.2023  0.4519  0.2348
29349W        W35949  26.022   3.829   8.418 -0.2842  0.1136  0.0173
29350W        W35950   3.775   4.866   0.852  0.1334 -0.2001 -0.3508
29351W        W35951   1.356   2.327   4.106  0.0559 -0.2619  0.0221
29352W        W35952  17.133   1.773  34.129 -0.2336  0.1597  0.0005
29353W        W35953   9.753   5.368  35.310  0.1961 -0.4042 -0.0582
29354W        W35954  23.057   3.405  28.903  0.1427  0.0525 -0.1008
29355W        W35955   7.105   0.795   8.096  0.0824  0.0526 -0.1448
29356W        W35956  21.947   6.477   1.905 -0.0617  0.0162  0.0605
29357W        W35957  24.026   0.080  15.040 -0.0466  0.1225  0.0787
29358W        W35958  20.774   5.673  29.135  0.1167 -0.1276 -0.0358
29359W        W35959   4.891   4.736  24.516  0.1358 -0.3714  0.1154
29360W        W35960  16.538   3.260  31.618  0.0380 -0.2196  0.2783
29361W        W35961  10.937   0.301  33.602 -0.0768  0.1244 -0.0695
29362W        W35962  19.494   4.786  28.394 -0.0681 -0.1522  0.2062
29363W        W35963   0.485   1.944   9.662 -0.1021  0.1514 -0.1447
29364W        W35964   9.548   1.224  35.413  0.0842  0.1687 -0.2661
29365W        W35965  13.129   5.644  33.079  0.3011 -0.0289 -0.1596
29366W        W35966   0.269   6.002  34.246 -0.0169 -0.1750  0.1557
29367W        W35967   1.217   4.623   6.447  0.1239 -0.0194  0.1465
29368W        W35968   6.038   4.899  10.341 -0.0516  0.0638  0.0985
29369W        W35969   2.860   0.989   9.497 -0.0661  0.1452 -0.0391
29370W        W35970   4.419   0.612  24.307  0.0261  0.1937  0.0458
29371W        W35971   0.813   6.128   0.537 -0.1034  0.1695  0.2636
29372W        W35972   5.028   0.209   6.491 -0.0694 -0.3437  0.0504
29373W        W35973  24.022   0.345  22.565 -0.0585 -0.1210  0.0988
29374W        W35974  12.500   4.815  11.794 -0.0543  0.0785  0.0024
29375W        W35975   3.046   5.425   9.729  0.3221 -0.0526  0.1670
29376W        W35976   2.444   4.630  23.789  0.0554  0.0004  0.3744
29377W        W35977  16.240   3.601  22.020  0.0579 -0.0156 -0.0660
29378W        W35978   1.037   4.397  12.629 -0.3032 -0.1450  0.2135
29379W        W35979   1.861   1.463  22.273 -0.0402 -0.3071 -0.0711
29380W        W35980  10.852   1.633   3.019  0.0478 -0.2474  0.3301
29381W        W35981  17.906   3.565   0.931  0.0031 -0.0240  0.2353
29382W        W35982  23.542   3.516  22.708  0.4026  0.1335 -0.1169
29383W        W35983   8.863   4.789  33.194 -0.2611 -0.0429  0.5266
29384W        W35984  16.458   1.647  31.925  0.2142 -0.2454  0.2242
29385W        W35985   3.992   6.492  22.346  0.1911 -0.1821  0.0124
29386W        W35986   6.573   5.921  31.229  0.1167 -0.1036  0.1916
29387W        W35987   2.870   0.593   2.759 -0.0708  0.1808  0.1612
29388W        W35988  17.123   4.503   8.668  0.0911 -0.2745  0.0008
29389W        W35989   7.198   3.947  15.091  0.0242 -0.0946  0.0561
29390W        W35990   8.973   0.577  13.584  0.0787  0.2090 -0.2436
29391W        W35991   9.889   0.523  26.116  0.0168  0.0004  0.0705
29392W        W35992  19.643   6.508  14.867  0.1767 -0.0168  0.0035
29393W        W35993  16.907   2.538   0.631  0.2077  0.0416  0.0675
29394W        W35994   9.290   4.626  32.624  0.0794  0.0366  0.0200
29395W        W35995  18.256   3.624  25.976 -0.1070 -0.0642  0.2298
29396W        W35996  26.161   6.326  32.415 -0.2419 -0.0294 -0.0001
29397W        W35997  19.042   2.376   1.490 -0.1993  0.3061  0.2485
29398W        W35998   4.198   3.628  22.844 -0.1884  0.1929 -0.2600
29399W        W35999   1.029   5.652  11.787 -0.0410  0.0678  0.0279
29400W        W36000  24.665   6.427  26.041 -0.2455  0.0027  0.0713
29401W        W36001   5.761   3.393  13.497  0.2085 -0.1185 -0.1687
29402W        W36002  22.235   6.396   5.235  0.0565  0.0223 -0.0626
29403W        W36003  15.191   1.132  24.434 -0.2062  0.1503 -0.1755
29404W        W36004   2.086   2.981  29.280 -0.2399 -0.3521 -0.0157
29405W        W36005  10.939   5.140   1.859  0.4185  0.0854 -0.3215
29406W        W36006  16.847   4.686  23.910 -0.2264  0.1341 -0.0951
29407W        W36007  11.873   6.588  12.800 -0.1994  0.1194 -0.1491
29408W        W36008   8.988   0.845   9.857  0.2384 -0.2519  0.2463
29409W        W36009  21.085   4.165   8.703 -0.1532  0.0035 -0.0175
29410W        W36010  12.058   1.075  29.420  0.0825 -0.1463  0.0104
29411W        W36011   6.349   2.300  26.275 -0.0658  0.0136 -0.1606
29412W        W36012   1.543   5.076  29.066  0.0235  0.0555  0.1201
29413W        W36013   1.189   6.487   0.436  0.1638  0.2149  0.1193
29414W        W36014  12.402   5.108  14.448  0.0579  0.2185 -0.1723
29415W        W36015  19.338   3.109  14.257  0.0406 -0.0075 -0.0047
29416W        W36016   9.790   1.626  13.410 -0.1450  0.2530  0.2175
29417W        W36017  25.695   3.121  26.213 -0.1676 -0.1788 -0.0691
29418W        W36018   1.495   4.248  29.427 -0.0957  0.2701  0.1163
29419W        W36019   2.776   0.700  35.492  0.3936  0.1574  0.2339
29420W        W36020   7.501   0.661  28.746 -0.1442 -0.0537 -0.0290
29421W        W36021   4.840   5.941   8.461  0.1103  0.1107 -0.0736
29422W        W36022  11.298   1.596  32.553  0.0811  0.0053  0.1207
29423W        W36023   1.032   2.157  33.754  0.1419 -0.1556 -0.0055
29424W        W36024  16.304   4.176   8.640 -0.2708 -0.2331 -0.1305
29425W        W36025  14.584   2.538  13.889  0.1476  0.0596 -0.1516
29426W        W36026   6.991   0.960   1.191  0.2227  0.2331  0.3195
29427W        W36027   5.962   0.575   7.075 -0.2223  0.0254  0.0777
29428W        W36028   5.757   0.874  27.205 -0.0529 -0.1033 -0.0593
29429W        W36029  13.300   0.244  14.842  0.0404  0.3302  0.0548
29430W        W36030   6.850   5.376  15.134 -0.3056  0.1876 -0.1891
29431W        W36031  23.920   2.208  31.308  0.0236  0.0929 -0.0501
29432W        W36032   1.235   5.218  13.200  0.0263 -0.3106 -0.0962
29433W        W36033   1.729   4.563  29.081 -0.3023 -0.1354 -0.0498
29434W        W36034  12.355   2.977  13.708  0.0267  0.1417 -0.0465
29435W        W36035   9.828   2.848  28.904  0.1253  0.1319 -0.0799
29436W        W36036  25.480   5.664  11.239  0.1828 -0.1038 -0.3117
29437W        W36037  23.090   5.314  14.656 -0.0480  0.0625  0.2591
29438W        W36038  22.838   0.619  29.557 -0.0853 -0.0961 -0.0789
29439W        W36039   3.852   5.732  29.436 -0.0084  0.0142 -0.0091
29440W        W36040   9.815   5.701  27.371  0.0851 -0.0450 -0.0321
29441W        W36041   4.274   3.949  26.043 -0.0003 -0.3317  0.3012
29442W        W36042  13.845   4.715  34.185  0.1543  0.1180  0.2825
29443W        W36043   4.331   0.304   0.566  0.0998  0.0428 -0.1968
29444W        W36044   2.284   2.581  11.111  0.1002  0.0132  0.1664
29445W        W36045  21.766   1.684  13.518 -0.0900 -0.2888 -0.0870
29446W        W36046  14.735   0.948   7.814  0.2981  0.4064  0.2117
29447W        W36047   1.320   4.832  24.793 -0.3260  0.0223 -0.2197
29448W        W36048  13.360   0.857  20.569  0.0549 -0.1774 -0.1810
29449W        W36049   7.424   5.781   5.971  0.0755  0.1344  0.2511
29450W        W36050  11.102   0.910  25.510 -0.2212 -0.2373  0.0680
29451W        W36051   8.737   2.091   6.397 -0.0709 -0.2330 -0.2282
29452W        W36052  25.800   5.795  34.000  0.3036  0.1051 -0.1117
29453W        W36053  10.208   5.649  13.689  0.0098 -0.0356  0.1906
29454W        W36054  20.930   2.619  14.696  0.0447 -0.1338  0.3005
29455W        W36055   5.742   2.315  22.533 -0.3437  0.0949  0.1703
29456W        W36056   0.105   3.831  33.362 -0.0531 -0.2061 -0.0127
29457W        W36057   4.792   6.453  31.404  0.0661 -0.0612 -0.2394
29458W        W36058   1.451   1.557   8.275  0.1201 -0.1016  0.0023
29459W        W36059  15.644   6.314   8.680 -0.0733  0.1623 -0.2605
29460W        W36060  16.733   1.233  10.776  0.2981  0.0072  0.2511
29461W        W36061  20.707   3.642  24.469 -0.2414  0.2432  0.0923
29462W        W36062  21.649   0.825  21.494  0.3579  0.0317 -0.1259
29463W        W36063  20.101   0.080  10.440 -0.2917  0.2504 -0.0863
29464W        W36064  15.833   0.643  33.929  0.2130 -0.0017  0.0646
29465W        W36065  21.056   1.387   8.402 -0.1471  0.1018 -0.1233
29466W        W36066   5.137   6.394   0.597  0.1027  0.0198 -0.1312
29467W        W36067  16.664   4.144   7.121 -0.1665  0.0963  0.0635
29468W        W36068   4.463   5.038  33.404 -0.0114 -0.1106  0.0822
29469W        W36069   5.959   5.391  28.741  0.1518 -0.1009 -0.0219
29470W        W36070   0.710   4.601  27.272  0.1641  0.1122  0.1521
29471W        W36071  19.275   2.557   5.092 -0.0417 -0.0942 -0.2364
29472W        W36072  13.836   3.830  28.437  0.0322  0.0041  0.1276
29473W        W36073  17.274   3.739  32.006 -0.2383  0.0957 -0.1538
29474W        W36074  24.141   2.359   7.438 -0.1621 -0.0200 -0.1250
29475W        W36075  10.230   5.826  28.250  0.2548 -0.2100 -0.0531
29476W        W36076   7.075   3.269  30.589 -0.2201 -0.0540  0.0676
29477W        W36077  16.352   5.882  13.299  0.0947  0.1658  0.2165
29478W        W36078  13.144   4.932  10.792 -0.0099 -0.3581 -0.2295
29479W        W36079   6.552   5.286   1.811 -0.0545  0.2575 -0.0804
29480W        W36080  13.141   1.127  33.776  0.2455  0.1349 -0.0615
29481W        W36081  20.290   2.808  29.216 -0.0188  0.0591  0.1568
29482W        W36082  12.776   2.496  35.590 -0.2012 -0.1629  0.1083
29483W        W36083  12.770   4.191   0.078  0.2134  0.1113 -0.0467
29484W        W36084   8.795   3.724   4.159 -0.1619 -0.2884 -0.0193
29485W        W36085  23.192   1.188   1.337 -0.0220 -0.0299  0.0189
29486W        W36086  25.856   3.635  31.886  0.0523  0.1029  0.2304
29487W        W36087  17.260   0.707   0.373 -0.0074 -0.1157 -0.0361
29488W        W36088   8.751   1.627   5.506 -0.0432 -0.0393 -0.0454
29489W        W36089   5.545   5.247  25.557 -0.1851 -0.0970 -0.0302
29490W        W36090   6.994   1.081  32.089  0.1071  0.1590  0.1243
29491W        W36091   8.516   0.570   1.103  0.0350  0.1328  0.1461
29492W        W36092  15.609   3.106  33.103 -0.0154 -0.0343  0.0735
29493W        W36093  13.547   5.940  26.954 -0.0325  0.3703  0.3707
29494W        W36094  22.464   0.578  21.213 -0.0326  0.0827 -0.5632
29495W        W36095  16.976   4.199  32.512 -0.0818  0.0428  0.0536
29496W        W36096  14.166   4.472   7.109 -0.0408  0.1458  0.2189
29497W        W36097  13.449   4.307   4.236  0.0736  0.0865  0.0069
29498W        W36098  11.917   3.423   4.642  0.1909 -0.0387  0.0530
29499W        W36099  10.497   5.231  12.208  0.2024  0.0247 -0.0132
29500W        W36100  15.864   5.144  14.639  0.1979 -0.2268  0.1421
29501W        W36101  25.620   3.063   4.582  0.1095  0.1407 -0.1388
29502W        W36102   2.329   0.563  32.548  0.1271  0.2792 -0.3850
29503W        W36103  14.647   6.593  28.465 -0.0384 -0.4032  0.0385
29504W        W36104  13.357   2.429  12.749 -0.1371  0.0127  0.3270
29505W        W36105  20.317   4.668  12.181  0.3878  0.0392  0.0989
29506W        W36106  25.488   5.705  35.605  0.1120 -0.5579  0.0838
29507W        W36107  14.154   2.916  34.381  0.0304 -0.0325  0.0825
29508W        W36108   9.972   1.827  31.140  0.1783  0.1889  0.1106
29509W        W36109   3.409   4.980  28.969  0.2353  0.2192  0.2878
29510W        W36110  10.845   5.389  11.788 -0.0607  0.1737 -0.0651
29511W        W36111  15.918   6.565  29.861  0.0463  0.2713  0.0937
29512W        W36112  17.942   1.255  30.343 -0.1406 -0.1969 -0.0017
29513W        W36113  24.507   5.968  10.150  0.3956 -0.0036  0.1385
29514W        W36114  22.529   0.147  23.596 -0.1411  0.0234 -0.1159
29515W        W36115  25.226   1.033  32.564 -0.1850 -0.2773 -0.1965
29516W        W36116  14.670   5.599   6.322 -0.1405  0.2130 -0.3797
29517W        W36117  25.857   1.511  29.817  0.1941 -0.2284 -0.1306
29518W        W36118  19.926   5.756  29.893 -0.3029 -0.2460  0.0974
29519W        W36119  14.893   0.653  35.594 -0.0912  0.0518  0.1605
29520W        W36120  21.839   4.038  34.049 -0.2402  0.0955 -0.0961
29521W        W36121   2.164   0.056  12.562 -0.3346 -0.1759  0.3096
29522W        W36122  21.492   4.460  10.531 -0.0270  0.1459  0.1303
29523W        W36123  20.700   6.140   5.548  0.0642  0.0304 -0.2278
29524W        W36124   5.190   4.091  22.252 -0.0903 -0.4198  0.2306
29525W        W36125  12.692   1.450  22.168  0.1238 -0.1415  0.0504
29526W        W36126  21.534   4.035   8.164  0.3122  0.1537 -0.0997
29527W        W36127   2.073   5.474  25.941  0.1009 -0.0749 -0.1004
29528W        W36128  10.488   2.235   0.845 -0.0407  0.1796 -0.1470
29529W        W36129   8.497   0.709   0.002 -0.1670 -0.0892  0.1491
29530W        W36130  13.017   2.500   5.813  0.1384 -0.0098  0.0278
29531W        W36131  13.993   2.653   2.870  0.1127 -0.1178 -0.1009
29532W        W36132   0.576   3.128  27.965  0.2080  0.2329 -0.0238
29533W        W36133  15.699   3.046   8.381  0.4103  0.2076 -0.0599
29534W        W36134  15.806   3.681  21.815  0.0622  0.1284  0.0929
29535W        W36135   5.268   0.044  35.388  0.2209 -0.0314  0.0399
29536W        W36136  19.800   2.301   3.733  0.1304 -0.2436 -0.0863
29537W        W36137  25.340   6.018  12.432 -0.3171 -0.0609  0.0189
29538W        W36138  21.300   1.886   1.152  0.1638 -0.1334  0.0371
29539W        W36139   9.041   2.967  24.329  0.0389  0.1716  0.0427
29540W        W36140   7.193   4.244  27.989 -0.1259 -0.2461  0.0366
29541W        W36141  22.000   4.262  11.861 -0.0917  0.1137 -0.1061
29542W        W36142   4.668   0.502  10.914  0.1301  0.0799 -0.3813
29543W        W36143   0.534   2.927  21.419  0.3836 -0.0732 -0.4026
29544W        W36144  22.031   0.424  23.473 -0.3502  0.0540  0.0396
29545W        W36145   7.778   5.579  23.047 -0.4246 -0.0653  0.0621
29546W        W36146  13.951   4.805   1.382  0.3262 -0.1498 -0.2551
29547W        W36147  17.234   6.474  28.198 -0.2541  0.1918 -0.2139
29548W        W36148  24.791   1.059   7.554 -0.1163  0.2713  0.0163
29549W        W36149   6.840   6.367  22.580 -0.4923  0.0717  0.0195
29550W        W36150  24.765   2.474  29.989  0.1232 -0.0021 -0.0205
29551W        W36151  25.844   2.070   7.173 -0.0062  0.2510  0.0912
29552W        W36152   8.717   2.233  11.830  0.2145 -0.1178 -0.3597
29553W        W36153   5.994   2.959  24.251  0.3163 -0.0596 -0.1542
29554W        W36154  23.879   3.541  12.140  0.0739  0.1042 -0.2193
29555W        W36155  20.236   2.794  13.041 -0.0552  0.1027  0.1205
29556W        W36156  21.558   4.521  25.810 -0.0041  0.0572 -0.0627
29557W        W36157  15.883   4.432  25.366 -0.0667 -0.2504 -0.1371
29558W        W36158  23.123   1.062  21.794  0.1510  0.0330 -0.2003
29559W        W36159  16.112   1.976   1.349 -0.1297 -0.0539 -0.0451
29560W        W36160  12.782   5.612  34.093  0.1985 -0.1629  0.0780
29561W        W36161  11.362   5.356  35.162  0.0548 -0.0758  0.0478
29562W        W36162  21.133   5.182   6.396 -0.0813 -0.0891  0.5422
29563W        W36163   0.145   1.009  29.780 -0.1604 -0.0667 -0.0297
29564W        W36164  26.099   1.512   8.855 -0.0147 -0.0274 -0.2487
29565W        W36165  20.539   3.177  32.493 -0.2106 -0.2875  0.0033
29566W        W36166   9.716   1.242  24.736  0.2437  0.1633 -0.1993
29567W        W36167   2.827   4.084  13.963 -0.0965 -0.0058  0.1812
29568W        W36168  17.570   5.494  34.201 -0.4766 -0.1149  0.1499
29569W        W36169   8.242   5.613  12.522 -0.1324  0.0221 -0.1688
29570W        W36170  23.236   1.410   8.973 -0.1429 -0.2203  0.2493
29571W        W36171  22.066   3.647  15.322  0.0515  0.0070  0.4195
29572W        W36172  23.863   6.472  32.355  0.2194 -0.3246 -0.0751
29573W        W36173   2.754   5.338   3.489 -0.0104 -0.2118 -0.0754
29574W        W36174   2.580   6.028  23.503  0.0993  0.0508 -0.0548
29575W        W36175   1.721   2.264  30.996 -0.2951 -0.2995  0.0561
29576W        W36176  22.983   0.401  23.021 -0.0687 -0.1164 -0.0351
29577W        W36177  19.673   1.216  28.914 -0.0145  0.5033  0.2953
29578W        W36178   2.468   3.923  20.802 -0.0702 -0.4041 -0.1520
29579W        W36179  25.928   6.265  13.983  0.0253 -0.0716  0.0039
29580W        W36180  23.027   5.814  33.080  0.0596  0.0984  0.0351
29581W        W36181   2.456   2.710  32.022 -0.0416  0.1130  0.0189
29582W        W36182  24.499   2.296  30.389  0.2071  0.0754  0.0228
29583W        W36183   1.869   5.613  13.873  0.3499 -0.2446  0.1187
29584W        W36184  18.285   1.400  14.789 -0.0420 -0.0179 -0.3109
29585W        W36185  23.272   2.435  10.310  0.1325  0.2612  0.0192
29586W        W36186   6.952   6.364   7.488  0.1276 -0.0150  0.0081
29587W        W36187   3.140   4.878  16.034  0.2377 -0.1373  0.3775
29588W        W36188  21.861   0.237  27.878  0.1150  0.2374  0.3486
29589W        W36189  21.507   3.020   9.937  0.2929 -0.0678  0.1891
29590W        W36190  14.290   2.785  30.502 -0.1850 -0.0892 -0.1244
29591W        W36191   6.247   0.034   1.801  0.0018 -0.2240  0.0580
29592W        W36192  22.374   4.917   2.302  0.0702 -0.0536  0.1891
29593W        W36193   6.728   1.054  14.912 -0.2889 -0.2190  0.0633
29594W        W36194  14.719   2.307   9.256 -0.0842  0.1015 -0.0356
29595W        W36195   1.386   5.001   2.624  0.0352 -0.2249  0.0809
29596W        W36196  18.935   1.802  24.146 -0.0407 -0.0389  0.3354
29597W        W36197  24.257   4.093  25.222 -0.6194  0.1741  0.3014
29598W        W36198   4.122   2.185  23.807 -0.2196  0.0213  0.2512
29599W        W36199  22.055   0.196  23.956  0.2933  0.1316  0.3368
29600W        W36200  25.693   2.468   7.980  0.4575  0.0570 -0.1873
29601W        W36201   5.038   4.043  10.161  0.1647  0.0901  0.0961
29602W        W36202  12.791   5.972  32.620  0.0383  0.1345  0.1190
29603W        W36203  11.995   6.144  22.512 -0.2438 -0.0275  0.1753
29604W        W36204  11.627   1.813  13.738 -0.0196 -0.2247  0.1804
29605W        W36205  16.906   5.988   3.566  0.0059 -0.1548 -0.4797
29606W        W36206  16.021   0.005  32.615 -0.1643  0.0509  0.1659
29607W        W36207  19.360   2.993  26.284  0.2342 -0.1212 -0.0607
29608W        W36208  20.246   6.553  25.344  0.4020 -0.0411 -0.0425
29609W        W36209  17.640   0.278  14.209  0.2641 -0.0419  0.2817
29610W        W36210   4.918   2.003  15.397  0.1269  0.1584 -0.0640
29611W        W36211  19.116   5.970   9.766  0.2082  0.0931  0.3062
29612W        W36212   4.187   4.442  32.790 -0.0006 -0.0603 -0.0720
29613W        W36213  14.613   2.057   4.325  0.1215  0.1086  0.2476
29614W        W36214  11.992   6.230  35.139 -0.0546 -0.1150 -0.1572
29615W        W36215  25.952   5.008  35.460 -0.0170  0.0867 -0.0926
29616W        W36216   4.709   5.432  14.040  0.1848 -0.0704 -0.1200
29617W        W36217   5.695   5.581   7.736  0.1100 -0.1775 -0.0203
29618W        W36218  11.716   5.697   2.508 -0.0505  0.1341  0.1497
29619W        W36219   2.136   6.157  22.538  0.1669  0.3404  0.2588
29620W        W36220  25.896   3.350   6.875 -0.0940  0.0427  0.0167
29621W        W36221  13.548   0.854   1.307 -0.0395 -0.1377 -0.2600
29622W        W36222   4.845   3.434  30.470  0.1320  0.1731  0.0180
29623W        W36223  23.301   1.687  11.701  0.5582 -0.0235 -0.0702
29624W        W36224   9.908   6.491  10.878  0.0767  0.0880  0.2894
29625W        W36225   4.158   4.760  26.715 -0.0751  0.1332 -0.3293
29626W        W36226  11.771   5.089   6.728  0.2763 -0.0392  0.0149
29627W        W36227  10.644   1.410   3.690  0.0275  0.3467 -0.1320
29628W        W36228   7.156   4.518  27.625 -0.3362  0.3175 -0.1812
29629W        W36229  14.104   4.846  20.963 -0.1673 -0.2184  0.0672
29630W        W36230  14.949   5.277   0.205 -0.2305  0.0115 -0.0840
29631W        W36231  25.365   1.236   9.324  0.2417  0.1640 -0.0201
29632W        W36232  14.429   5.074   5.134  0.5048  0.0759 -0.0026
29633W        W36233  11.825   3.849  31.302 -0.0537  0.0695  0.0355
29634W        W36234   1.467   3.198  28.528  0.1565  0.0165 -0.5136
29635W        W36235   8.876   5.137  28.791  0.1355  0.0919 -0.0623
29636W        W36236  14.996   1.942  29.277  0.3370 -0.0039  0.3470
29637W        W36237   5.991   2.325   5.238 -0.1383  0.0134  0.0280
29638W        W36238  10.695   5.975   4.731 -0.2176 -0.1748 -0.2054
29639W        W36239  10.934   0.624   4.244 -0.2017  0.2092  0.0623
29640W        W36240  23.792   5.491   6.575 -0.2781 -0.3702 -0.5523
29641W        W36241  18.550   5.094  27.062  0.0513  0.3742  0.2533
29642W        W36242  25.356   0.717   9.884 -0.1317  0.0839  0.1359
29643W        W36243  14.499   5.559  24.506 -0.1332  0.2066 -0.2981
29644W        W36244  21.242   4.654  10.082 -0.0365  0.2266  0.0052
29645W        W36245   8.928   5.794  24.669  0.2411  0.2078  0.0826
29646W        W36246  15.377   0.564  27.326  0.1326  0.0186  0.0806
29647W        W36247  20.914   5.905  28.116 -0.0818 -0.0914  0.0479
29648W        W36248  15.406   5.346  13.465 -0.2011  0.0168  0.1848
29649W        W36249  12.067   5.113  30.946  0.0691  0.3498  0.1031
29650W        W36250  11.022   6.360   4.908 -0.0687  0.2052  0.0039
29651W        W36251   8.269   4.571  13.741  0.0530  0.3750 -0.1591
29652W        W36252  15.636   2.424   7.842  0.0147  0.0769  0.2045
29653W        W36253  13.522   1.315  25.092 -0.1700  0.0353 -0.0161
29654W        W36254  18.242   6.581   2.422  0.3784 -0.3607  0.2013
29655W        W36255  11.009   5.295  26.961 -0.0193  0.0541 -0.0118
29656W        W36256  13.948   2.413  34.312 -0.2882 -0.3330  0.0388
29657W        W36257   6.130   4.356   5.546  0.2691 -0.0129 -0.2157
29658W        W36258   3.083   4.846  34.562  0.2650 -0.0243 -0.3910
29659W        W36259   6.718   4.764  15.427  0.1065 -0.1011  0.1225
29660W        W36260  17.638   5.645  28.003 -0.4063  0.3469 -0.0865
29661W        W36261  23.883   3.086   7.164 -0.1129  0.1207 -0.3927
29662W        W36262   2.525   0.222  35.489 -0.2172 -0.0958  0.0209
29663W        W36263   7.613   6.267  27.484  0.0986  0.0510  0.1873
29664W        W36264  16.759   0.123   2.010 -0.1888 -0.1229  0.0050
29665W        W36265  17.996   1.747  26.093 -0.2818 -0.2626  0.0012
29666W        W36266  14.685   4.736   8.280 -0.0910  0.0449  0.1374
29667W        W36267  22.717   1.503  24.992 -0.2107  0.0436 -0.0459
29668W        W36268  23.304   3.788  32.308 -0.0412  0.0347 -0.0421
29669W        W36269   5.774   1.253   0.299 -0.1009 -0.1348  0.1180
29670W        W36270  20.984   2.151  29.950 -0.3149 -0.0750  0.1402
29671W        W36271   2.222   2.213  10.721 -0.0470 -0.5062  0.0785
29672W        W36272  21.268   3.270  35.067  0.0625 -0.3828  0.2105
29673W        W36273   0.843   0.409  28.828 -0.1500  0.1019 -0.0833
29674W        W36274  23.538   4.488   9.700 -0.1483 -0.2358 -0.1939
29675W        W36275   2.903   0.551  24.418 -0.3565 -0.1441  0.0496
29676W        W36276  12.411   4.826  24.785  0.1968 -0.1815  0.0650
29677W        W36277  15.927   1.153   7.106 -0.0348  0.0508 -0.1519
29678W        W36278  25.378   0.444  31.497 -0.2288  0.1126  0.2553
29679W        W36279   4.901   0.529  12.184 -0.3739  0.0840 -0.0128
29680W        W36280  21.113   5.314   9.306  0.1205 -0.0321  0.1787
29681W        W36281  16.940   2.492   5.032  0.0513  0.0680 -0.0883
29682W        W36282  16.757   1.328  11.487 -0.1620  0.0819  0.0340
29683W        W36283  25.944   3.850  21.678 -0.2586  0.2872  0.0339
29684W        W36284   1.023   1.381  20.785  0.3038  0.1082  0.1150
29685W        W36285  12.752   1.175   5.784  0.1941 -0.1283  0.1624
29686W        W36286  19.258   0.065  30.361  0.0403  0.1144  0.2870
29687W        W36287  11.531   2.629  34.552 -0.0254  0.1396  0.0702
29688W        W36288   5.118   5.472   2.555  0.3623 -0.1257 -0.0333
29689W        W36289  15.368   4.838  11.985 -0.1889 -0.0354  0.1575
29690W        W36290  15.682   3.328  31.982 -0.2065 -0.2856 -0.0569
29691W        W36291  24.173   3.404  35.875  0.0004  0.0368  0.1574
29692W        W36292   0.172   4.433  15.228 -0.1415  0.0957 -0.0088
29693W        W36293   9.456   1.187  21.149 -0.0804  0.0311 -0.1571
29694W        W36294  14.732   3.514  35.047  0.2777 -0.3625 -0.2550
29695W        W36295  13.542   1.717  30.683  0.3616  0.0167  0.2434
29696W        W36296   4.353   3.447  10.534 -0.0637  0.1750 -0.0594
29697W        W36297   5.052   1.443  10.963  0.0447 -0.0574 -0.1920
29698W        W36298  13.502   3.090  32.336 -0.1782 -0.3451 -0.3106
29699W        W36299  14.525   5.709  28.937 -0.0740 -0.2818  0.0359
29700W        W36300  10.991   3.230  27.583 -0.0648 -0.3418 -0.1326
29701W        W36301  14.836   3.221  11.162  0.1328  0.1371 -0.0308
29702W        W36302  19.223   2.473  24.780  0.0923 -0.0745  0.0858
29703W        W36303  22.106   1.958   3.210 -0.0370  0.1351 -0.1262
29704W        W36304  11.733   5.231  32.076  0.1002 -0.0305 -0.0951
29705W        W36305  10.534   2.631  25.781  0.2396 -0.3747 -0.2219
29706W        W36306   6.471   4.452  14.005 -0.1275  0.0890 -0.2239
29707W        W36307   4.100   3.315  29.188 -0.0042  0.0438  0.0108
29708W        W36308   7.441   2.907  11.224 -0.1602  0.0596 -0.0661
29709W        W36309   3.543   2.302  11.063  0.1026  0.1057  0.0943
29710W        W36310  17.902   3.228  14.343 -0.2778  0.1495 -0.1342
29711W        W36311   8.854   1.211  21.298  0.3332 -0.1568 -0.2062
29712W        W36312  18.766   3.942   4.423  0.0174 -0.0104  0.0166
29713W        W36313  16.666   3.845  22.770  0.1072 -0.0696 -0.1699
29714W        W36314  26.234   2.202  25.125  0.0295  0.2131  0.1337
29715W        W36315   8.368   3.454   1.127 -0.2273  0.0090  0.0831
29716W        W36316   6.278   1.436   3.831  0.0716 -0.1710  0.1440
29717W        W36317  24.296   3.559   0.802 -0.0978 -0.1366 -0.0409
29718W        W36318   1.465   2.107  33.498  0.0031  0.1109 -0.2323
29719W        W36319  17.295   4.745  30.396  0.0195  0.2575  0.1544
29720W        W36320   3.023   6.023  29.563 -0.0880 -0.1149 -0.0879
29721W        W36321   2.314   0.940  28.742  0.1524  0.0729  0.1590
29722W        W36322  12.248   3.046  30.668 -0.0854 -0.0150  0.2297
29723W        W36323   2.581   1.285  28.590  0.1934 -0.2957 -0.2111
29724W        W36324   0.325   1.865  30.273 -0.1534 -0.0750  0.3095
29725W        W36325   0.348   0.496   0.432  0.0489 -0.0767  0.4854
29726W        W36326  20.941   0.419  33.566 -0.1140  0.1483  0.2130
29727W        W36327   4.161   4.057  33.106  0.0601  0.2003  0.0797
29728W        W36328  20.510   4.258   0.514 -0.2695 -0.3353 -0.1796
29729W        W36329   8.531   2.869  29.643  0.0140 -0.1614  0.1210
29730W        W36330  19.190   5.533   3.933  0.1075 -0.1324  0.0110
29731W        W36331   6.605   4.775  31.603 -0.2264  0.5355  0.3735
29732W        W36332  16.530   0.115  12.228 -0.0840  0.1188 -0.0087
29733W        W36333   7.116   2.184  21.404 -0.0920 -0.0546  0.1665
29734W        W36334  22.538   6.002   5.098  0.1189 -0.0734  0.1799
29735W        W36335   7.752   3.908  29.953  0.3794  0.0031 -0.2028
29736W        W36336   6.398   3.871  28.461 -0.0786  0.0490  0.0282
29737W        W36337  10.135   3.581  34.590  0.0464 -0.0388  0.3800
29738W        W36338  18.545   4.560  22.081  0.0023 -0.0202  0.0617
29739W        W36339  10.467   3.186  30.099 -0.2001 -0.4275 -0.1508
29740W        W36340  18.530   4.132  35.641 -0.1328  0.3601  0.3642
29741W        W36341  25.441   2.100   6.919  0.2462  0.2691 -0.0703
29742W        W36342  21.791   4.949  20.690  0.0388 -0.4072 -0.0577
29743W        W36343  15.962   3.326   2.652  0.1816 -0.0826  0.0481
29744W        W36344  13.703   0.476  31.229 -0.1002 -0.2375 -0.0244
29745W        W36345  19.205   1.273  15.150  0.1790 -0.0899 -0.0553
29746W        W36346   0.080   3.320   0.855  0.0881 -0.0373  0.0644
29747W        W36347  20.449   5.136  20.870  0.0044  0.2867 -0.2137
29748W        W36348   6.623   2.566  22.485  0.3025  0.4591 -0.1024
29749W        W36349  22.381   5.226  20.551  0.3813 -0.1438 -0.0259
29750W        W36350   4.395   3.770   2.486  0.2097  0.2168 -0.1736
29751W        W36351  20.619   1.678  31.550 -0.2714 -0.0454  0.0054
29752W        W36352   8.763   4.216   5.587  0.0333  0.1928  0.0701
29753W        W36353  21.112   6.003   1.577  0.1917 -0.0874  0.1377
29754W        W36354   4.344   0.217  27.725 -0.1033 -0.3154  0.1368
29755W        W36355   1.101   0.830   2.790  0.2928 -0.2139  0.1342
29756W        W36356   4.505   6.537   7.824  0.0300 -0.1258  0.0365
29757W        W36357  10.204   5.138  10.934  0.4019 -0.0037  0.0519
29758W        W36358  17.804   6.065   7.704 -0.1017  0.1402  0.0129
29759W        W36359  13.165   4.792   6.146  0.1277  0.0003  0.2142
29760W        W36360   9.473   3.544   8.921 -0.1983  0.1719 -0.1056
29761W        W36361   7.452   1.920   6.727  0.0548  0.1493  0.3785
29762W        W36362   6.417   2.142  24.277  0.0851  0.0535  0.0590
29763W        W36363   2.805   5.017  23.783  0.0530 -0.1273 -0.0555
29764W        W36364   7.279   4.320  32.124 -0.0538 -0.0762  0.2637
29765W        W36365   6.208   5.374  13.235 -0.0421  0.0255  0.1508
29766W        W36366   9.520   1.969  28.952 -0.4408  0.2508  0.2108
29767W        W36367  24.536   4.362  22.009 -0.0113 -0.0469 -0.0180
29768W        W36368  20.009   2.932  24.788 -0.1544  0.0321  0.2346
29769W        W36369   0.339   5.817  12.981  0.1191 -0.0912  0.1737
29770W        W36370  21.477   6.440  32.435  0.2362 -0.2927 -0.2766
29771W        W36371  15.891   5.950   5.607  0.2232  0.1723  0.0023
29772W        W36372  20.493   3.771  20.861  0.0443 -0.0207  0.1380
29773W        W36373  15.144   0.326  14.937  0.2403 -0.0283 -0.0144
29774W        W36374   7.577   2.937  36.071 -0.0580 -0.0557 -0.0348
29775W        W36375   9.361   3.259  27.668  0.1774 -0.1160  0.2640
29776W        W36376  21.207   2.368   8.701  0.2341 -0.1808 -0.3384
29777W        W36377  19.979   5.431  34.062 -0.0960  0.1782  0.0260
29778W        W36378  17.227   2.845  21.733 -0.2867 -0.0960 -0.3110
29779W        W36379  10.455   5.224   2.507  0.1535  0.1665 -0.0817
29780W        W36380  12.949   0.140   0.640 -0.2660 -0.1543 -0.2578
29781W        W36381  21.745   1.785   9.029  0.1921  0.1483  0.1812
29782W        W36382  19.092   0.995  20.932  0.1098 -0.1536 -0.0792
29783W        W36383   9.258   3.884  14.157 -0.2323  0.1997  0.1667
29784W        W36384  18.593   2.871  30.318  0.2315  0.1152  0.3787
29785W        W36385  24.663   5.924   6.957 -0.0205 -0.1572  0.0960
29786W        W36386   3.809   5.770   7.760 -0.4579  0.3365  0.2285
29787W        W36387   2.613   4.802   2.330  0.0763  0.3850  0.0025
29788W        W36388   4.006   3.464   2.603 -0.1122  0.2129  0.0534
29789W        W36389   2.463   4.505   9.005  0.1756 -0.1974 -0.3606
29790W        W36390   3.624   1.800   2.746  0.0567  0.2330 -0.1762
29791W        W36391  14.851   4.063   6.490  0.3848 -0.0219  0.0328
29792W        W36392   7.024   0.355   0.069 -0.3077 -0.2637  0.1771
29793W        W36393   0.533   3.603  35.845  0.2289 -0.0949  0.0850
29794W        W36394  21.802   0.836   1.468  0.0409 -0.0648 -0.0324
29795W        W36395  18.361   1.038  11.031 -0.3108  0.1500 -0.2188
29796W        W36396  23.224   5.924   1.696  0.4902 -0.2087  0.0187
29797W        W36397  15.394   0.729  35.301  0.0791 -0.0724 -0.0403
29798W        W36398  16.887   3.457   6.044  0.0225  0.2343 -0.0814
29799W        W36399  26.234   2.095   8.870  0.1758 -0.2120  0.0411
29800W        W36400  10.859   2.451  13.922  0.1902 -0.0511 -0.0800
29801W        W36401  10.263   3.411  12.021  0.3915  0.0572 -0.0973
29802W        W36402   4.652   1.774  13.841 -0.0953 -0.0833 -0.1337
29803W        W36403   8.832   3.296  16.121 -0.0577 -0.1271  0.1608
29804W        W36404   9.734   5.436  34.701 -0.1670  0.3716  0.0094
29805W        W36405   5.691   0.503  26.409 -0.0612  0.3171  0.0865
29806W        W36406  16.368   1.956  35.149  0.1678  0.2661 -0.2661
29807W        W36407  23.906   6.377  23.365  0.0535 -0.0031 -0.0105
29808W        W36408  11.552   2.994  11.409 -0.0546 -0.1835  0.1983
29809W        W36409   8.405   1.334  21.029  0.1486 -0.0656 -0.2579
29810W        W36410   8.674   3.375  32.723  0.0401  0.1004 -0.0889
29811W        W36411  20.320   1.010  28.292 -0.0832  0.1636 -0.2536
29812W        W36412   1.045   4.493  13.775  0.1515 -0.0576  0.3661
29813W        W36413  14.674   2.697   8.044 -0.0701  0.0252 -0.0490
29814W        W36414  10.842   0.338  31.223 -0.2923 -0.1574 -0.0233
29815W        W36415  24.828   0.122   5.004 -0.2207  0.0701 -0.0464
29816W        W36416  18.902   0.701   7.652 -0.1933  0.0438  0.0488
29817W        W36417  19.535   1.956  30.576  0.0552 -0.0717 -0.1757
29818W        W36418  14.300   1.630  27.627 -0.2460 -0.2916 -0.4068
29819W        W36419   0.699   6.184  32.009  0.1739  0.0350  0.2775
29820W        W36420  13.966   3.031   8.160  0.3000 -0.0244  0.0560
29821W        W36421  22.503   0.056  29.095  0.1823 -0.0212 -0.1387
29822W        W36422   0.445   3.803  11.118  0.0360 -0.0795 -0.0621
29823W        W36423  21.183   5.069  21.637 -0.1243  0.2410  0.1822
29824W        W36424  13.397   4.496  34.361 -0.1034  0.1718  0.4099
29825W        W36425   3.761   3.782  31.267 -0.2433  0.2451  0.3374
29826W        W36426   7.298   1.620   1.886 -0.0404 -0.0964  0.0512
29827W        W36427  18.065   4.786  23.927  0.1917 -0.1330 -0.0363
29828W        W36428  12.513   2.254  32.374  0.1611  0.2791  0.0452
29829W        W36429  25.327   5.595  31.599 -0.2242 -0.0803 -0.1615
29830W        W36430   5.794   3.714  20.988 -0.1545  0.0095  0.1525
29831W        W36431  10.482   1.425   0.683  0.2327 -0.2852 -0.0226
29832W        W36432   0.308   3.738   4.510  0.0341 -0.1097 -0.1302
29833W        W36433   9.747   1.880  13.877 -0.0786  0.1358  0.0555
29834W        W36434  21.633   5.074  19.929 -0.3708 -0.4518  0.0197
29835W        W36435  21.907   1.955  33.229 -0.0762  0.0902  0.2046
29836W        W36436   2.693   5.829  26.067 -0.1940  0.0838 -0.1188
29837W        W36437  15.780   1.175  24.637  0.2513 -0.1641 -0.1404
29838W        W36438  12.918   5.776  35.451  0.0107  0.0280 -0.1238
29839W        W36439  10.459   5.236   3.371 -0.1783 -0.0457 -0.2914
29840W        W36440  14.542   6.208   4.061  0.1409  0.0059  0.2651
29841W        W36441   2.374   4.351  14.068  0.0033  0.0857 -0.1177
29842W        W36442  19.818   1.660  20.994 -0.2316  0.1055  0.1647
29843W        W36443  23.002   0.619  23.830 -0.4061 -0.0829 -0.2139
29844W        W36444  12.590   1.119  30.735  0.4387  0.0017 -0.0696
29845W        W36445  21.602   2.333   4.710  0.0756 -0.0735  0.2651
29846W        W36446  21.253   4.485   9.079  0.0369 -0.1419 -0.1231
29847W        W36447  22.881   6.436  24.364  0.0067  0.1953  0.0015
29848W        W36448   5.282   1.275   0.276  0.0982  0.1944  0.1382
29849W        W36449  17.659   1.712  30.572 -0.0922  0.1649 -0.2576
29850W        W36450  22.589   3.155  11.039  0.2417  0.0118  0.1036
29851W        W36451   1.930   0.689  10.940  0.3241 -0.1583  0.2257
29852W        W36452   7.420   1.522  22.968  0.0259 -0.0793 -0.1561
29853W        W36453  16.126   6.033   1.628  0.0703  0.1805 -0.0111
29854W        W36454   5.382   4.130  29.445  0.0156  0.1293 -0.0880
29855W        W36455   9.711   0.241  30.604 -0.1835 -0.1377 -0.0195
29856W        W36456  13.341   0.355  25.453 -0.2471 -0.1557  0.1206
29857W        W36457  25.833   2.621  10.210  0.3324  0.3560  0.2579
29858W        W36458  16.167   2.576  15.148  0.1698  0.1308 -0.0787
29859W        W36459  25.131   4.194  29.008  0.0568  0.1209  0.1227
29860W        W36460   4.733   5.407  14.901  0.0840 -0.0259  0.2827
29861W        W36461  22.383   5.806  35.694  0.2052 -0.1303  0.2850
29862W        W36462   6.148   5.430  35.932  0.2230 -0.2432  0.1519
29863W        W36463  15.268   0.780  33.880 -0.0906 -0.1355  0.2855
29864W        W36464  16.722   3.682  13.021  0.0312 -0.1479 -0.1417
29865W        W36465  20.421   2.160   5.534 -0.2756  0.0540 -0.0922
29866W        W36466   7.723   5.526  28.413 -0.0232  0.1543 -0.0054
29867W        W36467   5.029   4.209  28.357 -0.1297  0.0913  0.1417
29868W        W36468   1.778   1.935   8.199  0.2770 -0.0393 -0.0917
29869W        W36469  17.884   5.929  13.646  0.2131 -0.2142  0.0136
29870W        W36470  10.344   3.610  28.191  0.3429 -0.0337 -0.2734
29871W        W36471  16.876   0.227  34.994  0.1587 -0.2480 -0.2213
29872W        W36472  23.904   0.830  32.715  0.2181  0.0762 -0.0828
29873W        W36473  19.045   3.052   1.997 -0.6300 -0.0455 -0.3370
29874W        W36474  19.750   5.534  11.738  0.0204 -0.2234  0.1463
29875W        W36475  26.259   1.903  35.467  0.0159  0.0476  0.0354
29876W        W36476  20.295   5.856  24.131  0.0510  0.2700  0.0444
29877W        W36477  20.832   5.419  31.892 -0.0032 -0.1079 -0.1453
29878W        W36478  21.913   5.400  20.620  0.2550 -0.5150  0.2727
29879W        W36479  20.830   4.635  13.375 -0.0406 -0.4440 -0.0269
29880W        W36480  19.958   4.601  25.776 -0.0895 -0.0690 -0.0865
29881W        W36481  25.539   3.125   8.451  0.2564 -0.1644 -0.0692
29882W        W36482  19.823   4.312  10.243  0.1786  0.0662  0.1962
29883W        W36483  24.927   5.753   0.936  0.1464 -0.1283 -0.2522
29884W        W36484  14.680   3.688  27.725  0.0727 -0.0123  0.0302
29885W        W36485   9.813   5.224  23.148  0.2508  0.1950  0.1067
29886W        W36486  13.891   3.548  14.966  0.3375  0.2603 -0.1610
29887W        W36487   5.466   3.079  35.595  0.2766  0.0762  0.0276
29888W        W36488  11.432   0.213   7.109 -0.0089 -0.1198  0.2794
29889W        W36489   6.947   3.519  27.016 -0.1709  0.2827 -0.1027
29890W        W36490   8.648   3.406   6.122  0.2070  0.0571  0.2637
29891W        W36491   2.148   0.865  22.544  0.0890 -0.0120  0.0052
29892W        W36492  15.988   3.574  15.152  0.1790 -0.1394 -0.0274
29893W        W36493   5.269   2.248  29.943 -0.0204  0.0927 -0.3094
29894W        W36494   0.783   3.750  10.675  0.0949  0.0377 -0.0825
29895W        W36495  21.146   1.810   9.874 -0.0632 -0.3208 -0.1780
29896W        W36496   5.630   5.199  24.560 -0.1319  0.1407  0.1115
29897W        W36497  15.312   0.014   6.380  0.2417  0.3162 -0.0369
29898W        W36498  13.274   5.792  26.525  0.2268  0.2743  0.0285
29899W        W36499  25.931   5.755   4.496  0.0248  0.0943  0.1699
29900W        W36500  20.336   5.174  27.033  0.0057  0.0601  0.1542
29901W        W36501  16.493   2.034  23.198 -0.0203  0.0565 -0.0020
29902W        W36502  18.628   3.045  32.511 -0.0411 -0.0013 -0.0005
29903W        W36503  17.880   2.974  31.614  0.1491 -0.0679  0.0040
29904W        W36504   2.392   3.158  14.320  0.0197  0.1418  0.0153
29905W        W36505  12.161   1.242  20.714 -0.2336 -0.1063  0.0709
29906W        W36506   5.177   1.786   0.166 -0.0338 -0.1419 -0.0775
29907W        W36507   7.905   1.567   7.435 -0.1143  0.3223  0.1384
29908W        W36508  25.640   5.862  12.784 -0.0322 -0.0190 -0.1253
29909W        W36509   4.520   1.764  15.205  0.0519  0.1003 -0.0706
29910W        W36510   7.187   5.421   8.914  0.0603 -0.1181 -0.0884
29911W        W36511  24.484   2.473  27.386  0.2045 -0.0360 -0.0203
29912W        W36512  10.897   1.384  13.811 -0.0754 -0.1470  0.1243
29913W        W36513  23.404   2.464  33.295  0.0843  0.1449  0.1391
29914W        W36514  17.001   5.837   4.126  0.2028  0.2766  0.1671
29915W        W36515  20.953   5.007  35.920  0.2889  0.2225  0.0603
29916W        W36516   3.349   4.565   2.888  0.1097  0.0807 -0.1903
29917W        W36517  19.195   0.421  10.837  0.2838 -0.2646  0.2763
29918W        W36518   1.997   0.190   7.692  0.2759  0.0959  0.1353
29919W        W36519   5.264   0.145  10.060 -0.3397 -0.2164 -0.0624
29920W        W36520  11.475   2.778  15.164 -0.1375  0.1614  0.2180
29921W        W36521   1.747   5.303  33.448 -0.1671  0.2359 -0.0730
29922W        W36522  23.226   2.106   6.297 -0.0917  0.1326  0.2607
29923W        W36523  24.937   0.328  15.486  0.0357 -0.1681 -0.2755
29924W        W36524  13.113   1.813  30.851  0.1234  0.1340  0.0802
29925W        W36525   7.138   6.442   2.017  0.0524 -0.5781 -0.0366
29926W        W36526   1.780   5.037  25.733 -0.2551 -0.4336  0.0269
29927W        W36527  21.680   4.668   5.298  0.0211 -0.0832  0.0221
29928W        W36528  11.226   0.425  20.231  0.1562 -0.1377 -0.1244
29929W        W36529  18.493   0.603  30.603  0.1308  0.3350  0.1060
29930W        W36530  10.819   2.603  10.992 -0.0437  0.4262 -0.1686
29931W        W36531   8.613   5.370  36.045  0.2253 -0.1295  0.0377
29932W        W36532   2.638   3.094  24.694  0.2523 -0.1522  0.1979
29933W        W36533  23.988   5.967  22.035  0.1161  0.2113 -0.1449
29934W        W36534  14.215   6.577  15.665  0.0516  0.2466 -0.0350
29935W        W36535  14.701   3.157  25.280  0.2054  0.2375  0.0082
29936W        W36536   0.179   3.105  30.257  0.0709  0.0356  0.0489
29937W        W36537  17.324   5.994   2.822  0.0824 -0.0162 -0.0944
29938W        W36538  21.350   1.877  14.922 -0.2219 -0.1638 -0.0983
29939W        W36539  15.992   3.137  14.736  0.1649 -0.2313 -0.2363
29940W        W36540  22.962   4.717   9.942 -0.2499 -0.1810  0.0222
29941W        W36541  24.217   1.867   4.273 -0.0077  0.0927 -0.1067
29942W        W36542  16.466   1.990   0.036 -0.1105 -0.1699 -0.0797
29943W        W36543  20.652   1.403  30.088 -0.2189  0.0845  0.0979
29944W        W36544   2.866   4.379  35.312  0.0840  0.0388  0.0574
29945W        W36545  19.812   3.776  13.951 -0.1168  0.0444  0.1695
29946W        W36546  14.039   6.197  22.596  0.0145  0.0639 -0.2627
29947W        W36547  21.622   4.497  20.548  0.1848  0.3038  0.0871
29948W        W36548  17.878   4.663  10.819 -0.2423  0.1184 -0.0233
29949W        W36549   5.585   4.986   9.208  0.1042  0.0408 -0.1432
29950W        W36550  23.868   2.501  23.865  0.1678 -0.5091 -0.0339
29951W        W36551  19.144   5.350  34.425  0.3059 -0.2399  0.1073
29952W        W36552  19.479   5.379   2.883  0.0608  0.0496  0.0026
29953W        W36553  25.119   1.015   2.397  0.3564  0.3182 -0.1842
29954W        W36554  25.926   0.642   1.576  0.1144 -0.4075  0.0516
29955W        W36555  13.093   5.072  30.238 -0.0456 -0.0894 -0.1205
29956W        W36556   1.905   3.305  29.738  0.0461  0.2052  0.1217
29957W        W36557  14.227   2.295  27.800  0.3210  0.0773  0.0504
29958W        W36558  19.771   3.978  23.265 -0.1111 -0.0584 -0.1897
29959W        W36559   7.203   3.263   7.955  0.2207 -0.4564 -0.1358
29960W        W36560  17.749   5.607  21.585 -0.2139 -0.2788 -0.2834
29961W        W36561  19.444   6.542   8.357  0.0799 -0.0231  0.0516
29962W        W36562   2.676   5.083  33.420  0.2065 -0.1789  0.0512
29963W        W36563  21.307   0.172   0.001 -0.0875 -0.0272 -0.2344
29964W        W36564  19.426   1.793   2.039 -0.1161 -0.0949 -0.2045
29965W        W36565  16.947   5.628  11.671 -0.0514  0.1524  0.2642
29966W        W36566  25.203   5.536  15.235  0.0673  0.1271 -0.1277
29967W        W36567   4.053   0.094   6.901  0.1653 -0.0544  0.1414
29968W        W36568  20.352   1.541  27.143 -0.2214 -0.0757 -0.3977
29969W        W36569  18.811   1.672  33.775 -0.1371 -0.0190  0.1340
29970W        W36570   1.943   2.437  12.037  0.1301 -0.0609  0.1574
29971W        W36571  18.460   0.508   7.458 -0.2740  0.1622 -0.0302
29972W        W36572   5.993   0.240  24.620 -0.0562 -0.0260 -0.1678
29973W        W36573  16.933   5.409   4.380 -0.3070 -0.0095 -0.1550
29974W        W36574  16.429   2.826  27.961  0.0357 -0.0898  0.2014
29975W        W36575  17.777   4.765  32.940  0.1742  0.2149  0.0960
29976W        W36576  16.767   3.843  26.748 -0.1900 -0.5022 -0.1583
29977W        W36577   7.244   0.641  26.181 -0.0266 -0.1459 -0.0062
29978W        W36578   0.883   4.968   3.735 -0.0422 -0.2147  0.0998
29979W        W36579  15.675   3.691   2.919 -0.0957 -0.0420 -0.1205
29980W        W36580  11.640   2.726  35.917  0.2699  0.1116 -0.1131
29981W        W36581   4.645   4.172   7.380  0.0335 -0.1585 -0.0635
29982W        W36582   7.128   2.493  15.057  0.4240 -0.1979  0.2533
29983W        W36583  19.934   0.267   2.808  0.1872  0.0076  0.0710
29984W        W36584  24.878   0.425  12.690  0.0535  0.0294  0.1119
29985W        W36585  18.785   1.071  10.127 -0.0189 -0.3341  0.0698
29986W        W36586  15.934   3.583  31.037  0.2383 -0.2516  0.1191
29987W        W36587  19.521   5.152  15.918  0.0046 -0.1072  0.1501
29988W        W36588  20.418   6.289  33.780  0.1183  0.1780 -0.0343
29989W        W36589  16.748   3.243  22.624 -0.2462 -0.0146  0.1561
29990W        W36590   9.973   2.450   7.200 -0.1778  0.0749  0.1366
29991W        W36591  14.946   1.062  31.469 -0.1600 -0.0405 -0.0852
29992W        W36592  23.141   0.110   2.791 -0.0935  0.0760  0.0563
29993W        W36593  18.713   4.166  34.479  0.1700 -0.3851  0.0677
29994W        W36594  11.549   4.258  27.185 -0.0719  0.0168  0.0412
29995W        W36595  25.292   6.026  31.927 -0.0163  0.1137  0.1571
29996W        W36596  14.524   1.881  13.391  0.1034  0.2160 -0.2521
29997W        W36597  18.537   3.913  23.354 -0.1177  0.0085 -0.0609
29998W        W36598  21.529   3.148  35.512 -0.0495 -0.1656 -0.0677
29999W        W36599  11.508   4.039   8.755  0.0187 -0.0130 -0.0186
30000W        W36600  16.110   4.166   3.240  0.1060 -0.2268 -0.1756
30001W        W36601  10.081   2.772   6.841 -0.1962 -0.1015 -0.0792
30002W        W36602  18.440   3.749   4.040 -0.1469 -0.0541 -0.1475
30003W        W36603  18.815   1.532   4.421 -0.2102  0.3006 -0.2516
30004W        W36604  10.803   3.481  35.338 -0.1412  0.0908 -0.3369
30005W        W36605  10.710   3.530  27.244 -0.0633  0.0090 -0.1126
30006W        W36606  19.054   4.290  25.851 -0.0508  0.2104  0.2320
30007W        W36607  20.621   0.458  23.687 -0.1930 -0.1762 -0.1373
30008W        W36608   3.038   6.369  20.700 -0.0639 -0.0304  0.0072
30009W        W36609  18.911   6.051  27.046  0.1004  0.5277  0.0666
30010W        W36610   3.232   4.217  34.914  0.1251  0.0402  0.1585
30011W        W36611  14.360   4.856  32.727  0.0350  0.3343 -0.2277
30012W        W36612  25.684   1.863  34.266 -0.0616 -0.1245 -0.0016
30013W        W36613  18.254   0.296   9.274  0.2000  0.1346  0.2253
30014W        W36614   9.539   0.479   1.574 -0.1628 -0.3463 -0.0229
30015W        W36615   4.747   5.883  32.724 -0.2464 -0.1726  0.0166
30016W        W36616   5.516   3.964   8.462 -0.0824  0.2753  0.1945
30017W        W36617   2.867   5.517  29.805 -0.1389 -0.4469 -0.1480
30018W        W36618   9.269   4.582  15.684  0.1894  0.1781  0.0559
30019W        W36619  25.916   3.354  34.546 -0.0425 -0.2516  0.0329
30020W        W36620   9.471   1.036   4.436 -0.0942 -0.1878  0.1437
30021W        W36621   4.924   6.531   7.499 -0.1718  0.0666 -0.3336
30022W        W36622  20.161   5.513  28.299 -0.3413  0.1504  0.0960
30023W        W36623  24.510   2.708  22.699 -0.0185  0.3384 -0.1665
30024W        W36624  19.732   4.071  11.068  0.4445  0.2264 -0.2515
30025W        W36625   8.148   2.861  12.158 -0.2403  0.2139 -0.0009
30026W        W36626  10.239   1.023   7.114  0.1701  0.2840  0.1071
30027W        W36627  20.725   2.321   6.946 -0.2517  0.0128  0.2734
30028W        W36628  10.111   0.892  24.564 -0.0950  0.0358 -0.0803
30029W        W36629   2.706   4.358  27.675 -0.0995  0.3020  0.2656
30030W        W36630  12.642   3.641  34.866 -0.0180 -0.0062  0.4797
30031W        W36631  24.540   3.740   6.713 -0.2204 -0.0301 -0.1934
30032W        W36632  16.518   1.391  13.964 -0.1570 -0.0873 -0.2160
30033W        W36633  16.616   2.098   1.492 -0.0173 -0.2389  0.0361
30034W        W36634  10.345   1.654  30.829  0.0861  0.0106 -0.1957
30035W        W36635  12.862   2.709  11.020  0.0104  0.0117 -0.0271
30036W        W36636   3.331   5.193   4.387  0.0290  0.0915  0.1817
30037W        W36637  24.505   0.663  26.013  0.0708 -0.0485 -0.0232
30038W        W36638  18.018   3.413  29.631 -0.0992 -0.1547  0.0831
30039W        W36639  17.957   5.542  13.366 -0.0868  0.2380  0.0814
30040W        W36640  23.582   4.505  35.065 -0.1086  0.0996  0.0370
30041W        W36641   4.950   5.038   5.853  0.0536 -0.2483 -0.0260
30042W        W36642  12.251   1.426  15.314  0.2595 -0.1442  0.0499
30043W        W36643  14.872   4.338  13.115 -0.0288 -0.2339 -0.0756
30044W        W36644  23.007   0.193  13.816  0.2077 -0.1031  0.0071
30045W        W36645  20.619   5.932  22.477  0.1177 -0.1719 -0.1715
30046W        W36646  25.529   3.776   0.486  0.2627 -0.0120 -0.1203
30047W        W36647   7.048   3.261   1.130  0.2452 -0.1362 -0.0392
30048W        W36648  17.274   5.058  31.745  0.3235 -0.1554 -0.0544
30049W        W36649  14.071   0.923   6.220 -0.1347  0.0340  0.0811
30050W        W36650   2.418   0.641   8.674  0.2002  0.1287  0.2139
30051W        W36651  14.834   2.911   3.994 -0.1412  0.0517 -0.0406
30052W        W36652  19.239   2.428  14.951  0.1396  0.1226  0.3568
30053W        W36653  23.228   0.709  11.756  0.1343  0.0884 -0.2209
30054W        W36654   2.196   0.862  13.162  0.0918 -0.0405 -0.2413
30055W        W36655  19.407   5.727  21.126 -0.0312 -0.0409 -0.1417
30056W        W36656   1.311   3.177   0.800  0.3082  0.0899  0.1668
30057W        W36657   2.918   3.951  15.114 -0.0120  0.0049  0.4458
30058W        W36658  20.902   1.712  13.115 -0.2555 -0.0197 -0.0270
30059W        W36659  21.040   0.985  29.425 -0.2089 -0.0331 -0.1742
30060W        W36660   5.260   0.562  10.804 -0.1098 -0.0252  0.0674
30061W        W36661   5.859   6.331   3.353 -0.2539  0.0065  0.2167
30062W        W36662  24.725   0.197  23.818 -0.3994  0.0342  0.3155
30063W        W36663   2.523   4.844  24.274 -0.0073  0.0312 -0.2532
30064W        W36664   4.927   6.191  28.167 -0.1603  0.1572  0.0443
30065W        W36665  21.614   1.038   4.732 -0.0221  0.2946 -0.0078
30066W        W36666  12.569   4.093   8.190  0.2206 -0.1412  0.0516
30067W        W36667   9.074   4.380   0.874  0.1784 -0.0105 -0.0373
30068W        W36668  15.124   6.035  26.564 -0.1087  0.1646 -0.0748
30069W        W36669  23.202   3.257   2.270 -0.0867 -0.1658  0.2034
30070W        W36670   3.971   0.579  35.076  0.0203 -0.2522 -0.1874
30071W        W36671  14.585   6.350   6.464  0.0762  0.0977  0.2659
30072W        W36672   9.799   2.414  29.142  0.4204  0.0817 -0.2038
30073W        W36673  13.054   0.350  12.206 -0.0584  0.0185  0.1827
30074W        W36674  11.007   5.888  13.287 -0.1882 -0.1339  0.0831
30075W        W36675  17.200   6.329  34.321  0.2088  0.0233 -0.1490
30076W        W36676  24.705   3.622  33.874  0.0776  0.1455  0.0821
30077W        W36677  26.242   4.814  12.445 -0.0889 -0.2390 -0.1540
30078W        W36678  15.629   3.241   4.799  0.2309  0.1408 -0.2093
30079W        W36679   6.071   6.281  28.833  0.0539  0.2086 -0.3458
30080W        W36680  21.225   4.442  31.831 -0.2042  0.1308 -0.1482
30081W        W36681  15.573   3.219  12.127  0.2095 -0.0164  0.0468
30082W        W36682  10.694   0.864  11.371 -0.0035  0.2103 -0.0658
30083W        W36683  16.289   6.575  25.234 -0.1050  0.0375  0.1107
30084W        W36684  25.930   0.692  22.396 -0.0690  0.0810 -0.0390
30085W        W36685   3.854   1.815  28.244  0.3473 -0.0488  0.0008
30086W        W36686   2.241   5.926   4.903  0.0461 -0.0589  0.1238
30087W        W36687   3.697   2.489  12.103  0.2206  0.0966 -0.2553
30088W        W36688  22.058   1.830  25.625  0.1321 -0.2716 -0.0115
30089W        W36689  14.325   6.563  11.867 -0.0145 -0.0022  0.1862
30090W        W36690  12.372   1.966  13.370 -0.0242  0.1630 -0.0906
30091W        W36691  16.078   0.513   7.167  0.3782  0.0184  0.0906
30092W        W36692   5.301   2.936  12.077 -0.2447 -0.3361  0.3003
30093W        W36693   5.776   4.624  11.128 -0.0621  0.0652  0.0938
30094W        W36694   4.483   5.263   4.920  0.0664  0.2705  0.1231
30095W        W36695  24.718   5.958  30.174  0.1601 -0.1432 -0.0487
30096W        W36696   9.099   1.853  12.733  0.2578  0.1129  0.1216
30097W        W36697  17.037   0.882  27.650  0.0430  0.0440  0.0752
30098W        W36698  17.123   6.281  32.301 -0.1618 -0.0213  0.2312
30099W        W36699  23.870   3.631   7.768  0.2419 -0.0036 -0.1183
30100W        W36700  14.637   2.888  32.177 -0.0584  0.3390 -0.2506
30101W        W36701  12.679   2.530   2.394  0.1055  0.3172  0.4898
30102W        W36702   2.081   3.404  33.579  0.2351  0.3159 -0.0921
30103W        W36703  16.629   4.152   4.686  0.1887  0.3214 -0.0145
30104W        W36704   8.586   3.104   0.257 -0.0087  0.2869 -0.0367
30105W        W36705  21.366   4.576  19.836 -0.1671 -0.3807  0.0392
30106W        W36706   0.949   1.843  23.593  0.2321  0.2351  0.0967
30107W        W36707   9.297   3.716  30.201 -0.0753  0.1801 -0.0237
30108W        W36708  11.663   0.044  10.616 -0.1698  0.3168 -0.0217
30109W        W36709   9.541   1.376  25.231  0.2681  0.0467  0.1659
30110W        W36710   3.327   1.051  15.852  0.1027 -0.1967  0.2981
30111W        W36711  14.726   5.768  10.256  0.1010 -0.0617  0.0055
30112W        W36712   1.229   4.166  32.135  0.0607 -0.3279  0.1774
30113W        W36713   1.138   2.926   0.043  0.2125  0.0121  0.0770
30114W        W36714  22.425   3.756  30.105 -0.1521  0.2519 -0.1685
30115W        W36715  25.130   0.379  13.204  0.0983 -0.0047 -0.3119
30116W        W36716  24.353   2.872  12.448 -0.1934  0.0613  0.1395
30117W        W36717  22.202   5.233   9.784  0.1820 -0.3447 -0.1415
30118W        W36718  22.635   4.532   8.645  0.0893  0.0860 -0.0939
30119W        W36719  18.811   4.168  21.588 -0.1957 -0.0589 -0.0559
30120W        W36720  20.063   5.493  29.504  0.2529  0.0221 -0.3163
30121W        W36721  10.183   5.821   0.268  0.1213  0.3069 -0.1236
30122W        W36722  25.748   0.237  20.973  0.0548 -0.1948  0.1989
30123W        W36723   5.460   2.762   2.937  0.0470  0.2841  0.1602
30124W        W36724  18.549   6.439   1.417  0.0964 -0.0023  0.0283
30125W        W36725  14.899   1.603   1.638 -0.1689  0.1438  0.1862
30126W        W36726  19.783   0.880  35.062 -0.1132  0.1898  0.0784
30127W        W36727  14.769   2.233   7.890  0.1932 -0.1786 -0.2546
30128W        W36728  25.837   5.010   7.167 -0.2355 -0.0616  0.0857
30129W        W36729  17.299   1.280  11.349  0.3246 -0.2371  0.0195
30130W        W36730  11.570   6.517  24.024  0.1239 -0.1079  0.1002
30131W        W36731   5.819   5.023  11.851  0.0789 -0.2944 -0.1984
30132W        W36732  22.991   4.407  32.881 -0.2862  0.0892 -0.0867
30133W        W36733  24.912   4.959  28.481  0.1199  0.1425 -0.1160
30134W        W36734   9.435   2.591   5.381  0.0568 -0.0314  0.5574
30135W        W36735  12.006   3.687   3.900  0.0413 -0.1167 -0.1624
30136W        W36736  24.145   2.480  33.159  0.2241  0.0376 -0.3639
30137W        W36737  20.295   5.402  33.692  0.1305 -0.2223 -0.1545
30138W        W36738   1.186   4.436  23.195 -0.5557  0.2774  0.0178
30139W        W36739   1.677   6.455  14.458  0.1692 -0.0530 -0.1511
30140W        W36740  22.528   0.976  24.596 -0.0342  0.0037  0.2857
30141W        W36741  15.309   2.040  31.012 -0.4939  0.1431  0.1076
30142W        W36742  21.625   1.747   9.933 -0.1161  0.0106 -0.2704
30143W        W36743  18.473   1.767  24.790 -0.1975 -0.3825  0.3293
30144W        W36744  20.270   1.680   5.647  0.0056  0.2323 -0.0218
30145W        W36745  13.671   3.730  21.777  0.0817  0.0974 -0.1347
30146W        W36746  18.741   6.528   2.759  0.4384  0.4259 -0.2412
30147W        W36747  15.303   0.614  22.578 -0.1651  0.2786  0.0106
30148W        W36748   3.010   5.977  14.811  0.2281  0.1968  0.1669
30149W        W36749  16.395   1.791  34.243  0.0041  0.0203 -0.3770
30150W        W36750   2.453   0.919  32.179 -0.1547 -0.4217  0.0653
30151W        W36751  17.071   3.578   5.239 -0.0203  0.0030  0.0982
30152W        W36752   5.776   3.545   4.016 -0.2453 -0.1200 -0.1362
30153W        W36753   5.902   3.813   1.819  0.0695  0.1609 -0.2585
30154W        W36754  19.238   3.322  29.804  0.1994 -0.1222  0.0889
30155W        W36755  13.940   6.545  21.583 -0.1162  0.1485 -0.1168
30156W        W36756  14.124   0.595  22.481  0.2268 -0.0803 -0.1033
30157W        W36757   9.416   6.196  13.794 -0.0493 -0.1883 -0.0638
30158W        W36758  17.971   6.013   7.247 -0.2431  0.1513  0.1909
30159W        W36759  14.218   2.808  23.667 -0.0503  0.0546  0.4081
30160W        W36760  11.128   2.441   4.209  0.1549 -0.1200 -0.3573
30161W        W36761  22.482   3.666  13.221  0.0810  0.1544  0.0749
30162W        W36762   3.250   2.690  12.746  0.0948 -0.1741 -0.3173
30163W        W36763  25.289   1.221   6.232  0.0281 -0.0604  0.0285
30164W        W36764   7.150   1.587  26.355 -0.1187 -0.2190  0.0278
30165W        W36765  13.778   0.956   0.418 -0.1376 -0.0615 -0.2025
30166W        W36766  22.759   5.897  25.825  0.1954 -0.0469 -0.2088
30167W        W36767  16.884   5.158  27.743 -0.0173 -0.1120 -0.0080
30168W        W36768   8.246   1.130  12.009 -0.1076 -0.0509  0.2246
30169W        W36769   1.862   0.519  33.502  0.2885  0.0461  0.2272
30170W        W36770   0.277   2.565   1.694  0.1318 -0.1198  0.0945
30171W        W36771  21.437   2.835   2.939  0.0622 -0.1116  0.2410
30172W        W36772  12.937   2.421   6.303 -0.1455  0.1248  0.2836
30173W        W36773  14.828   2.721  24.961  0.0973 -0.2055  0.2861
30174W        W36774   3.916   0.318   4.870 -0.4034  0.0248  0.0501
30175W        W36775  12.895   5.471  13.031  0.2789  0.3725 -0.1200
30176W        W36776  12.490   2.070   5.148  0.2197 -0.0051  0.3260
30177W        W36777  18.488   5.457  25.226  0.1662  0.3142  0.1037
30178W        W36778  14.489   0.818   9.313 -0.1858 -0.0384  0.0313
30179W        W36779   9.776   2.792  27.908 -0.0617  0.0971  0.1034
30180W        W36780  23.324   5.633  34.343 -0.0643  0.0982  0.1097
30181W        W36781   9.085   1.513  20.970  0.1602 -0.2937 -0.2326
30182W        W36782   2.680   5.259  10.776 -0.0290  0.2508  0.0909
30183W        W36783  16.896   3.906   3.300  0.0207 -0.0677  0.1053
30184W        W36784   6.175   1.056  25.444  0.2372 -0.0171 -0.0748
30185W        W36785   8.683   1.300   7.082 -0.0554 -0.1629 -0.2062
30186W        W36786  10.580   3.212  28.359 -0.4690  0.5401 -0.1656
30187W        W36787  13.360   2.299  23.664 -0.1710 -0.1110 -0.0700
30188W        W36788   7.237   6.493   8.032 -0.1085  0.0366  0.2382
30189W        W36789   3.597   2.364   1.950 -0.2443 -0.0998  0.0682
30190W        W36790  21.304   0.111  20.418 -0.0058 -0.1458 -0.0686
30191W        W36791  10.479   2.301  28.236  0.2052  0.1093 -0.0980
30192W        W36792   3.528   0.207   9.674  0.1039 -0.0179 -0.1760
30193W        W36793   9.235   2.312  29.185  0.3635 -0.1833  0.1924
30194W        W36794   1.103   5.338  34.166  0.1894 -0.3416  0.1039
30195W        W36795   2.944   2.459  31.765  0.1153  0.1851  0.1824
30196W        W36796  21.046   2.509  22.947 -0.2201 -0.1046 -0.2387
30197W        W36797  18.882   1.965  29.946  0.1812 -0.0293  0.0523
30198W        W36798   5.145   1.185   3.335 -0.2181 -0.1675 -0.0643
30199W        W36799   7.017   5.517  27.795 -0.3572 -0.1623 -0.0235
30200W        W36800   8.466   3.342   8.401 -0.2280  0.0467  0.0064
30201W        W36801   1.792   6.378  29.480  0.2443  0.1511 -0.2644
30202W        W36802  22.272   1.305  36.024 -0.0306 -0.2778  0.2828
30203W        W36803  12.415   1.396   6.647 -0.0147 -0.1996 -0.1111
30204W        W36804  19.244   2.770  27.151 -0.3401  0.0387  0.1222
30205W        W36805  20.259   3.953  11.353 -0.1765  0.0874 -0.0004
30206W        W36806  25.067   3.121  21.206  0.0452 -0.1263 -0.1357
30207W        W36807  13.858   3.662  34.216 -0.1210  0.1714 -0.0658
30208W        W36808  19.700   0.696   3.738  0.2850  0.2268 -0.0754
30209W        W36809  11.286   5.232  23.722 -0.0244 -0.0613 -0.0818
30210W        W36810  23.555   0.989  30.496  0.0550  0.0167 -0.2659
30211W        W36811   3.851   4.900  26.312  0.1294 -0.1314 -0.3040
30212W        W36812  22.545   3.061   7.573 -0.0614  0.0072 -0.0760
30213W        W36813   4.945   4.763  15.500 -0.0944  0.1778  0.1240
30214W        W36814  15.845   5.422  20.885 -0.2079 -0.4497 -0.0077
30215W        W36815  20.107   2.984  13.534  0.4150 -0.0613 -0.0865
30216W        W36816  20.473   2.892  12.569 -0.1347 -0.0656 -0.2587
30217W        W36817  12.546   3.036   2.182 -0.2332  0.0605  0.1206
30218W        W36818   2.706   6.136  20.458  0.1701 -0.0882  0.1926
30219W        W36819  25.857   5.418   4.101  0.0542 -0.6739 -0.0297
30220W        W36820  25.017   3.229  21.702  0.2388 -0.1159 -0.2907
30221W        W36821  13.868   1.886  22.440 -0.1261 -0.0263  0.2915
30222W        W36822  22.357   5.818  13.244  0.0574  0.1400  0.3790
30223W        W36823  10.705   3.782   3.838  0.3534 -0.0169 -0.2223
30224W        W36824  10.509   4.941   2.933 -0.0156 -0.0522 -0.0231
30225W        W36825  16.036   3.671   1.726  0.0391  0.1889 -0.1099
30226W        W36826   3.537   0.121  28.645  0.1102  0.0251 -0.0854
30227W        W36827  22.017   3.027  32.399 -0.1932 -0.0439 -0.1174
30228W        W36828  19.162   3.592  14.505 -0.0957 -0.1124  0.0240
30229W        W36829  24.420   0.190  25.669 -0.2022  0.1284 -0.2454
30230W        W36830  14.102   1.872   0.396 -0.0531 -0.2094  0.0139
30231W        W36831  22.945   3.842  23.469 -0.1812 -0.1685  0.0078
30232W        W36832  18.797   3.234  29.597  0.0820  0.0341 -0.2784
30233W        W36833   7.016   1.864  32.354 -0.1132  0.0656 -0.2473
30234W        W36834  21.437   3.309  10.738  0.0604 -0.0955  0.2596
30235W        W36835   9.280   1.801  34.635 -0.2018  0.1033 -0.0371
30236W        W36836  20.403   4.677   8.130  0.0432  0.0502 -0.2183
30237W        W36837   9.080   4.265  22.005 -0.0708  0.1121  0.0656
30238W        W36838  13.624   5.312  21.233  0.1614  0.1954 -0.1161
30239W        W36839   4.094   2.492  34.979  0.1288 -0.1764 -0.2358
30240W        W36840  17.343   1.195   0.180  0.0932 -0.0457 -0.0101
30241W        W36841  24.959   6.581   1.768 -0.2544 -0.1642 -0.1134
30242W        W36842  23.482   5.586  22.404  0.1127  0.0858 -0.4206
30243W        W36843  25.921   5.884  35.925  0.2383 -0.1175  0.0628
30244W        W36844  25.652   4.276  21.623 -0.0738  0.0953 -0.2888
30245W        W36845   9.148   1.962  14.569 -0.2277  0.0144 -0.0586
30246W        W36846  14.238   6.225  10.272 -0.3671 -0.6561  0.2185
30247W        W36847  25.172   3.491   1.194 -0.1646  0.2266 -0.2283
30248W        W36848  10.557   0.627   6.117  0.1494 -0.0089  0.1589
30249W        W36849  11.249   0.716   4.748 -0.0234 -0.0279 -0.3513
30250W        W36850  26.269   0.771  23.485 -0.1238 -0.1552  0.1522
30251W        W36851  13.998   5.132  26.569  0.0591 -0.1855  0.1293
30252W        W36852  19.167   0.692  15.210  0.0808  0.2486  0.1618
30253W        W36853   8.228   3.803  34.699  0.0859  0.1441  0.3406
30254W        W36854  17.782   1.913   5.212 -0.3029  0.1223 -0.2991
30255W        W36855  21.847   0.982  32.760  0.0769 -0.2758 -0.4457
30256W        W36856  18.287   3.318  30.992 -0.2912 -0.1569 -0.1415
30257W        W36857  23.145   1.822  21.279  0.0265  0.0254  0.2411
30258W        W36858  14.990   2.763  33.386  0.1471 -0.0097 -0.0405
30259W        W36859  13.894   0.735  28.489  0.0821 -0.0722 -0.1478
30260W        W36860  24.979   1.829  33.766  0.1373 -0.0380 -0.1697
30261W        W36861   2.331   5.182  23.262 -0.0085  0.1896 -0.1613
30262W        W36862   0.118   5.092  31.910 -0.1110  0.3480  0.3090
30263W        W36863  13.857   4.884   8.375  0.2380 -0.0481  0.3319
30264W        W36864  18.899   1.124  25.199 -0.1474 -0.1755  0.1566
30265W        W36865  21.274   3.886   5.745  0.1290 -0.1909  0.1511
30266W        W36866   9.129   2.824  10.175  0.0612 -0.0073  0.3608
30267W        W36867  10.967   1.774  29.180  0.2783 -0.2639 -0.1353
30268W        W36868   8.002   4.575  30.731  0.1407  0.1446 -0.0523
30269W        W36869   0.036   2.064   4.300 -0.1898  0.1055  0.3126
30270W        W36870  14.969   1.279  11.573  0.3593  0.0659  0.2161
30271W        W36871  19.222   3.847   2.527  0.2320  0.2372  0.0012
30272W        W36872  17.725   5.406   3.528 -0.0904 -0.3174 -0.1634
30273W        W36873   5.686   6.363  14.717  0.0264 -0.0685 -0.1220
30274W        W36874  17.433   1.457  10.298  0.0351 -0.4360 -0.0017
30275W        W36875   5.784   6.499  35.327 -0.0103 -0.0697 -0.0280
30276W        W36876   2.322   0.515   3.365  0.0736 -0.0996  0.1004
30277W        W36877  12.945   4.676   0.695  0.2136 -0.1262 -0.0368
30278W        W36878   3.752   4.363  33.136 -0.0518  0.0859  0.0778
30279W        W36879   5.649   6.574   1.832 -0.0420  0.2298 -0.2905
30280W        W36880  15.429   4.469   7.345  0.1802  0.1391  0.0030
30281W        W36881   3.613   3.225  26.457 -0.1027  0.4790  0.2954
30282W        W36882  24.184   2.943  35.643  0.4476  0.2919 -0.2276
30283W        W36883   3.719   1.251  28.854 -0.0037 -0.5723  0.1399
30284W        W36884  18.142   0.795   8.114 -0.0619  0.0968 -0.0002
30285W        W36885   3.286   5.859   2.197 -0.1444 -0.1096  0.0107
30286W        W36886   1.729   3.582  28.152  0.0965 -0.2475 -0.5064
30287W        W36887   4.773   6.527  13.773  0.2266  0.0874  0.0863
30288W        W36888  17.035   4.635  20.711  0.0557  0.0180 -0.4277
30289W        W36889   5.694   1.553   3.535  0.0430  0.2172 -0.4955
30290W        W36890  24.592   3.580  26.860 -0.2610  0.2874  0.1070
30291W        W36891   0.893   0.624  25.119  0.2881 -0.0464 -0.1695
30292W        W36892   7.782   4.338   2.790  0.0973  0.0495  0.0777
30293W        W36893  22.966   6.198   2.022 -0.2914  0.0199 -0.3711
30294W        W36894  19.476   2.958   5.376  0.0366  0.0184 -0.1180
30295W        W36895   7.597   3.418  35.859 -0.1162 -0.1487 -0.0226
30296W        W36896   7.588   4.836  21.135  0.0159  0.0568 -0.0626
30297W        W36897  25.898   1.080   4.673  0.2730  0.1496 -0.1337
30298W        W36898  22.836   0.761  34.061  0.0435 -0.0780 -0.2548
30299W        W36899   4.628   1.289  21.259  0.3870 -0.0468  0.0582
30300W        W36900   1.885   2.488  29.192 -0.1024  0.4002  0.1590
30301W        W36901   5.790   6.324  15.267 -0.1851 -0.0610 -0.2056
30302W        W36902  22.788   5.484  13.307 -0.0609  0.1857 -0.0278
30303W        W36903  10.774   5.622   8.543  0.1960 -0.0274 -0.1428
30304W        W36904   5.700   3.412  32.645 -0.1100  0.1342  0.1098
30305W        W36905  22.511   6.001  11.922  0.2450  0.0430  0.0751
30306W        W36906  21.150   0.198   7.310  0.0770  0.3243 -0.0616
30307W        W36907  12.409   0.219   3.491 -0.4148 -0.2627 -0.1939
30308W        W36908  12.816   2.197  26.662  0.0604  0.2336  0.2403
30309W        W36909  13.327   0.022  22.432  0.2185 -0.3994  0.0899
30310W        W36910  13.971   1.174   5.427 -0.0348  0.3493  0.2434
30311W        W36911  16.467   6.346   5.659 -0.1562  0.4647 -0.0431
30312W        W36912  15.918   6.304  28.613  0.1835  0.0475  0.0168
30313W        W36913   3.055   1.373  14.341 -0.0758  0.3091 -0.0497
30314W        W36914  15.044   0.229   9.566  0.0232  0.0463 -0.1892
30315W        W36915  19.347   1.060  34.871 -0.2205 -0.1606  0.0019
30316W        W36916  10.644   4.075  33.836  0.3109  0.1644 -0.0872
30317W        W36917  19.924   3.438  14.824 -0.1275 -0.0594 -0.1308
30318W        W36918   7.260   6.475   0.198 -0.0505 -0.0414 -0.1731
30319W        W36919   5.597   6.064  12.048  0.0755 -0.1745 -0.1400
30320W        W36920  22.272   4.331  24.802 -0.1260 -0.0332  0.0144
30321W        W36921  11.805   1.869   1.419  0.3862  0.3086  0.2785
30322W        W36922  20.667   4.086  21.238 -0.2777 -0.1277  0.2658
30323W        W36923  15.002   4.474   5.981  0.2185 -0.1299  0.4692
30324W        W36924   8.451   4.849  25.595  0.1711 -0.1556 -0.0421
30325W        W36925  10.225   0.328  28.287 -0.0409 -0.0428  0.1264
30326W        W36926   6.433   1.174  32.179  0.2910 -0.0880 -0.2852
30327W        W36927   7.014   0.591  33.871 -0.2139 -0.0748  0.1732
30328W        W36928  10.935   1.925  24.804  0.1926  0.2068  0.1389
30329W        W36929   4.968   0.149  12.976 -0.0504  0.0479 -0.0328
30330W        W36930  23.449   3.970  31.239 -0.1590 -0.1861 -0.0064
30331W        W36931  23.268   0.771  13.744 -0.0025  0.3668 -0.3429
30332W        W36932   3.335   0.082  21.813 -0.1734 -0.0337  0.1611
30333W        W36933   2.159   5.431  32.058  0.2201 -0.1068  0.1069
30334W        W36934  19.074   5.544  33.911  0.0365 -0.1626  0.2249
30335W        W36935  15.056   3.142   9.684  0.1716 -0.1193  0.1421
30336W        W36936  25.850   1.083  12.262 -0.2092 -0.1555 -0.0267
30337W        W36937   0.663   1.919  12.393  0.2430  0.3271 -0.5824
30338W        W36938  21.809   0.569  13.213 -0.4392  0.1668  0.0933
30339W        W36939   1.045   5.023  35.626  0.0647 -0.0094  0.1280
30340W        W36940  14.691   4.732  27.639  0.1146 -0.1066 -0.0904
30341W        W36941  21.678   5.853   4.799 -0.1000  0.3437 -0.0528
30342W        W36942  16.844   2.868   7.403 -0.0046 -0.1296  0.1500
30343W        W36943  19.148   0.672  34.579  0.0393  0.0976  0.0841
30344W        W36944   8.539   3.280  24.738 -0.0091 -0.2102 -0.1200
30345W        W36945  19.633   3.599  27.156  0.0042 -0.3785 -0.0088
30346W        W36946  23.385   2.417  11.048 -0.2843 -0.0230  0.1406
30347W        W36947  12.149   4.992   4.272 -0.2953  0.1631 -0.0063
30348W        W36948   9.235   2.034  11.679  0.1260 -0.1498 -0.1605
30349W        W36949  23.560   0.620   8.925  0.3780  0.1623 -0.0358
30350W        W36950  17.127   5.650  26.026 -0.3832  0.1335  0.0294
30351W        W36951  10.391   1.565   3.289 -0.1347  0.0103  0.0515
30352W        W36952  11.061   4.779  10.946 -0.3172  0.1660  0.2267
30353W        W36953  19.972   1.703  24.713  0.1383 -0.0008 -0.3724
30354W        W36954   6.495   6.439  31.065 -0.1766  0.1232 -0.4186
30355W        W36955   6.594   3.633   7.177 -0.0990  0.1750 -0.0517
30356W        W36956  14.152   0.360  35.461  0.0458  0.2750  0.0131
30357W        W36957  15.930   2.382   2.540  0.0879 -0.2252  0.1586
30358W        W36958   5.578   0.121  31.418  0.1329  0.0088  0.0147
30359W        W36959  24.647   4.126  21.581  0.2822  0.1586 -0.0836
30360W        W36960  15.035   5.596   3.442  0.2282 -0.1106 -0.1302
30361W        W36961  21.575   1.595   8.335 -0.1448  0.1022 -0.1413
30362W        W36962  23.542   5.110  20.107 -0.2308  0.0803 -0.0413
30363W        W36963  13.869   4.190  12.178  0.0285 -0.1617 -0.1094
30364W        W36964   6.220   6.049  28.135  0.0156  0.1504 -0.2899
30365W        W36965  15.638   2.147  22.746 -0.0457 -0.2902 -0.2940
30366W        W36966  11.402   4.802  34.654  0.0746  0.1370  0.0821
30367W        W36967  18.482   4.125   8.265  0.2826 -0.0490 -0.1236
30368W        W36968   7.235   5.960  19.926 -0.0724  0.0714 -0.4181
30369W        W36969  21.039   1.529  14.870  0.0019 -0.0866 -0.1994
30370W        W36970   1.080   2.963  32.963  0.0506 -0.3348 -0.0074
30371W        W36971  14.384   3.494  10.883  0.1665 -0.0367 -0.1941
30372W        W36972   9.827   2.222  24.960 -0.1095 -0.2114  0.0586
30373W        W36973  10.010   0.577   6.226  0.0043 -0.0752 -0.1185
30374W        W36974  17.811   6.426  13.483  0.1577 -0.1981  0.0218
30375W        W36975  18.854   4.833  26.701  0.2288  0.3664  0.1781
30376W        W36976  24.082   1.682  21.498 -0.1547  0.1309 -0.1031
30377W        W36977   5.857   0.008   1.368 -0.1933 -0.0035  0.2499
30378W        W36978  12.457   0.153   0.605 -0.0182  0.2979  0.2825
30379W        W36979  12.648   6.561  12.281  0.0473 -0.1672 -0.0000
30380W        W36980   6.612   6.332  27.822 -0.2711  0.1587  0.0090
30381W        W36981  13.436   3.019   2.905 -0.2637 -0.0501 -0.1793
30382W        W36982   0.972   6.521  10.679  0.1249 -0.2713 -0.1390
30383W        W36983   0.801   6.329  28.409  0.0213  0.0299 -0.0971
30384W        W36984   6.197   1.585  34.225 -0.0120 -0.3935 -0.1181
30385W        W36985   6.287   2.978  36.033 -0.0089 -0.0361 -0.1556
30386W        W36986  17.716   5.829  24.232 -0.0914 -0.1264  0.0365
30387W        W36987  17.201   4.681   2.273  0.0400 -0.2684 -0.0276
30388W        W36988  24.012   5.057  14.911 -0.0023  0.0767  0.1836
30389W        W36989   4.850   0.917   9.013  0.1989  0.3974 -0.0193
30390W        W36990  23.154   4.536   2.503  0.1078 -0.0063 -0.1852
30391W        W36991   3.576   2.060  21.702 -0.0653 -0.1350  0.0847
30392W        W36992  20.087   3.022  34.827  0.1609  0.0591  0.1023
30393W        W36993   4.004   2.372   9.495 -0.1146  0.0627 -0.4328
30394W        W36994   1.987   5.236  31.350  0.0470  0.0799  0.0042
30395W        W36995  11.991   4.198  26.835  0.0057  0.1918 -0.0532
30396W        W36996   8.111   6.246  22.820  0.3261  0.1487  0.1284
30397W        W36997   8.171   4.004   0.282  0.2604  0.1588  0.0288
30398W        W36998  11.611   0.706  26.393 -0.1260  0.0697  0.1749
30399W        W36999  16.125   5.139  24.934 -0.0552  0.0219 -0.0768
30400W        W37000  12.384   3.880  15.604  0.1889 -0.3095  0.0791
30401W        W37001   4.344   1.703  11.058  0.0633 -0.3169 -0.0002
30402W        W37002  19.112   3.376   2.517 -0.1266 -0.0007  0.0772
30403W        W37003  13.415   0.364  11.871 -0.1107  0.0789  0.2418
30404W        W37004   9.134   2.404  10.633  0.0386 -0.0819  0.0913
30405W        W37005  12.367   4.806  12.548  0.1079  0.0835  0.2965
30406W        W37006  26.259   0.561  13.844 -0.1013  0.1311  0.0013
30407W        W37007  20.128   5.433  24.032 -0.0839  0.1259  0.0980
30408W        W37008  11.079   3.723  26.340 -0.0111 -0.1456  0.1181
30409W        W37009  12.743   2.009  14.704  0.0126 -0.0181 -0.1412
30410W        W37010   2.952   4.636  30.957  0.0850  0.0403  0.0247
30411W        W37011   3.477   5.953  30.224  0.0076 -0.1104  0.1353
30412W        W37012  22.607   4.402  20.822 -0.1215 -0.0590  0.4701
30413W        W37013   3.448   4.685  34.253  0.0602 -0.2851 -0.0611
30414W        W37014  25.160   4.032  15.108 -0.0337 -0.1311 -0.2577
30415W        W37015  23.937   2.682  10.482 -0.0091  0.1953 -0.1448
30416W        W37016  17.691   5.980  27.499 -0.0174  0.0847 -0.3296
30417W        W37017  24.285   3.692  32.267 -0.0285 -0.3377  0.0377
30418W        W37018  13.772   2.843   8.542 -0.0457  0.0507 -0.0260
30419W        W37019   0.368   4.605  32.979 -0.1000 -0.2384 -0.1394
30420W        W37020   9.754   4.086  35.210 -0.2181 -0.0872 -0.1478
30421W        W37021   0.291   2.688  27.150 -0.0256 -0.0347 -0.3496
30422W        W37022  14.009   2.975   9.729  0.0941 -0.1267 -0.0512
30423W        W37023   0.096   5.182   1.888  0.1065  0.1801  0.0083
30424W        W37024  25.855   2.208  22.545  0.2585 -0.2052  0.1097
30425W        W37025  12.465   2.235  23.958  0.1131  0.5033 -0.0663
30426W        W37026  16.973   4.149  20.661 -0.2842  0.3997  0.0209
30427W        W37027  23.155   2.163   3.095 -0.1912 -0.0030 -0.2379
30428W        W37028  14.784   5.240  35.753 -0.2925 -0.1305 -0.0585
30429W        W37029  20.596   5.014  32.790 -0.3100 -0.0982  0.1206
30430W        W37030  17.673   2.562   4.083 -0.1872 -0.2350  0.0164
30431W        W37031   9.025   2.077   5.923  0.3526 -0.0533  0.1512
30432W        W37032  17.678   0.531  10.669 -0.1614  0.0257 -0.1645
30433W        W37033  17.740   2.701   7.097 -0.0955  0.1951 -0.2594
30434W        W37034  19.625   1.313  30.381 -0.0810  0.2353 -0.3898
30435W        W37035  22.105   1.189   2.133  0.2975 -0.1265 -0.1491
30436W        W37036   6.251   2.731   3.965 -0.1116  0.2035 -0.0469
30437W        W37037  21.957   3.337   3.427 -0.1132 -0.1825 -0.1131
30438W        W37038  17.777   1.569   5.594 -0.0663 -0.0707  0.1580
30439W        W37039   9.501   4.715  14.408 -0.0012 -0.0921 -0.4454
30440W        W37040  14.150   2.854  35.265 -0.2093 -0.0737  0.1841
30441W        W37041  20.679   0.648  33.025 -0.1907  0.1891  0.3734
30442W        W37042  10.222   4.347   3.401  0.0801  0.1141 -0.0863
30443W        W37043   5.073   6.216  21.768 -0.1189 -0.0436 -0.1858
30444W        W37044   9.055   1.386  12.375  0.3985 -0.2711  0.0216
30445W        W37045   4.224   0.143  10.973 -0.3141  0.0282  0.1734
30446W        W37046  15.752   4.758  33.800  0.2455  0.1007  0.0218
30447W        W37047  10.908   5.875  35.909  0.1071 -0.1432 -0.0340
30448W        W37048  25.176   2.328   9.419 -0.1867  0.0109  0.2140
30449W        W37049  16.758   4.186   8.765  0.1549 -0.0982  0.1850
30450W        W37050  25.941   3.683  11.224 -0.0791  0.2500 -0.1492
30451W        W37051   2.569   2.236   0.172  0.0761 -0.1988 -0.2744
30452W        W37052  18.621   5.381  21.792  0.1497  0.0031 -0.1063
30453W        W37053  12.646   4.575  23.589  0.2029 -0.1630  0.1534
30454W        W37054  24.812   2.788  27.605 -0.0230  0.0013 -0.2151
30455W        W37055  22.090   4.819  24.022 -0.2679  0.0746 -0.0087
30456W        W37056  21.482   1.099   4.078  0.4836 -0.3036 -0.1833
30457W        W37057  13.916   5.960  33.572  0.0895  0.0215  0.2858
30458W        W37058  20.754   0.101   0.235  0.1707  0.3927  0.0782
30459W        W37059  20.016   2.154  28.344 -0.0056 -0.0518  0.1276
30460W        W37060  16.274   4.338   6.231  0.0619 -0.0043  0.0427
30461W        W37061   9.128   1.867  25.762  0.2763 -0.0537 -0.0231
30462W        W37062   8.726   0.821   4.870 -0.2438  0.1176 -0.0745
30463W        W37063  20.143   3.979  24.426  0.0844  0.0995  0.0325
30464W        W37064  11.008   4.844  22.941 -0.0995  0.2620 -0.3834
30465W        W37065   0.949   6.216   2.569 -0.0096  0.2926  0.1471
30466W        W37066   1.172   2.333   4.884 -0.1685 -0.2113 -0.0059
30467W        W37067   9.197   6.529   5.111  0.1106 -0.2002 -0.1851
30468W        W37068  14.488   6.393   2.364 -0.0322 -0.2804  0.0672
30469W        W37069  20.269   3.797   8.786 -0.4941  0.1109 -0.1399
30470W        W37070  16.805   2.017   2.479 -0.4086 -0.2490 -0.0617
30471W        W37071  25.817   0.636  32.898  0.1913 -0.0176 -0.1507
30472W        W37072  16.304   1.325   9.549  0.0568 -0.1923  0.2513
30473W        W37073   5.353   6.374   6.587 -0.1402 -0.1434  0.2676
30474W        W37074  19.824   2.692   5.641 -0.0893 -0.2370 -0.2334
30475W        W37075  12.657   0.233   4.724  0.0195 -0.0859 -0.0310
30476W        W37076   1.806   0.978  28.200  0.0132 -0.0613  0.1021
30477W        W37077   1.052   3.592  23.593  0.4139 -0.0892 -0.0685
30478W        W37078  23.038   2.674  10.708  0.2626  0.0070 -0.2390
30479W        W37079   9.752   2.977   0.366 -0.0394 -0.0655  0.0406
30480W        W37080  22.524   5.776  15.184 -0.1946  0.0278  0.0927
30481W        W37081  19.787   0.194  33.907 -0.1913  0.2601 -0.0989
30482W        W37082  25.979   2.299  14.635  0.0032 -0.2210 -0.0779
30483W        W37083   4.656   2.644  30.625 -0.0422  0.2246 -0.2468
30484W        W37084  14.679   4.733  35.758 -0.0238 -0.0824  0.1978
30485W        W37085  13.405   5.232  12.572  0.0080 -0.0583 -0.4288
30486W        W37086   5.490   6.588  15.539 -0.1254 -0.0840 -0.1754
30487W        W37087  17.387   5.252   7.820 -0.2344  0.1147  0.0854
30488W        W37088  22.718   0.183  32.033  0.2177 -0.0945 -0.0079
30489W        W37089   4.630   2.183  14.244  0.0139  0.2083 -0.3043
30490W        W37090  23.215   1.573   5.954 -0.0381  0.1716  0.2715
30491W        W37091  15.616   2.041   7.415  0.4657  0.0086  0.0390
30492W        W37092   4.689   4.478  27.490  0.2442  0.1895 -0.1445
30493W        W37093   1.380   2.610  35.752 -0.1249  0.2409  0.1667
30494W        W37094  15.759   4.499   3.410 -0.1988 -0.0868  0.0356
30495W        W37095  15.146   4.395  35.519  0.0326  0.2465  0.0470
30496W        W37096  17.994   0.069  11.951  0.2942  0.0647 -0.0962
30497W        W37097   6.175   1.853  14.900 -0.1614 -0.1316 -0.0249
30498W        W37098   3.235   2.626  30.509 -0.0453  0.0372  0.3138
30499W        W37099  13.703   4.200  29.349 -0.1454  0.0145  0.0494
30500W        W37100  14.562   2.892   2.176 -0.1339  0.2920  0.0166
30501W        W37101  11.279   2.674   1.347  0.0897 -0.0468 -0.1819
30502W        W37102   5.026   1.494   6.670  0.2285  0.1304  0.2219
30503W        W37103   0.050   2.315  27.281 -0.0081 -0.0472  0.0270
30504W        W37104  23.348   5.960  11.412 -0.0206 -0.0081  0.0994
30505W        W37105  19.700   0.094  34.439 -0.0821 -0.2525  0.2732
30506W        W37106  20.467   4.456  11.781 -0.0527  0.0220  0.1869
30507W        W37107   6.628   2.661  26.990 -0.0389 -0.1951  0.0805
30508W        W37108  11.351   2.585  35.305 -0.1077 -0.1421  0.0591
30509W        W37109   2.447   1.287   9.339  0.2533  0.3274  0.0302
30510W        W37110  19.979   5.255  12.492 -0.0731  0.2840  0.1729
30511W        W37111   1.073   3.148  12.796 -0.0040 -0.3618 -0.0027
30512W        W37112  19.663   1.214  25.105  0.0426  0.2607 -0.0541
30513W        W37113  13.565   1.726  36.027 -0.3243 -0.1390 -0.2961
30514W        W37114  23.501   4.936   5.052 -0.0916 -0.0662  0.1386
30515W        W37115  24.766   3.090  14.329  0.1259  0.1996  0.0316
30516W        W37116   8.080   3.201   0.817  0.1966 -0.2286 -0.1240
30517W        W37117   1.441   4.706  14.471 -0.0663 -0.0700  0.2519
30518W        W37118  16.074   6.448  24.717  0.0294 -0.3624 -0.0108
30519W        W37119   9.870   6.457  29.329 -0.4153  0.0533  0.2838
30520W        W37120  19.371   2.056  23.936  0.0650 -0.4015 -0.0215
30521W        W37121   4.825   0.952  35.166 -0.1121  0.3152 -0.1282
30522W        W37122  11.727   3.580  12.164 -0.1070 -0.1007  0.0566
30523W        W37123  10.083   5.925  15.274  0.0386  0.1794 -0.2332
30524W        W37124   2.190   5.985   6.453  0.0642  0.0287  0.0261
30525W        W37125  20.609   5.466  24.210 -0.1456  0.1169 -0.2255
30526W        W37126   8.646   4.860   9.966 -0.1866 -0.0285  0.0958
30527W        W37127  23.890   4.724  27.361 -0.0989  0.1457 -0.1191
30528W        W37128  21.503   2.037  22.679 -0.2160  0.0127  0.0829
30529W        W37129   6.871   3.048  24.261  0.0428 -0.0616  0.1915
30530W        W37130   2.102   4.099  12.639 -0.0645  0.0153  0.0749
30531W        W37131   9.459   5.967   8.403  0.1978 -0.1094  0.0142
30532W        W37132  18.179   4.994  30.693 -0.1960  0.3128  0.0065
30533W        W37133   5.268   1.069  32.207  0.1270  0.1592  0.0350
30534W        W37134  14.221   4.329   2.300  0.1551  0.0382 -0.2987
30535W        W37135  23.771   0.058  22.921 -0.1104  0.1909  0.1222
30536W        W37136   6.808   4.523   1.873  0.1185  0.0618 -0.3057
30537W        W37137   7.061   5.761   4.137  0.0385 -0.1184  0.0535
30538W        W37138   7.192   5.590  28.278  0.0940  0.3056  0.0493
30539W        W37139  17.841   0.851  12.923  0.3110  0.1493  0.0512
30540W        W37140   1.906   5.242  21.353 -0.1027  0.0026 -0.1503
30541W        W37141   5.854   2.010  26.373 -0.2279 -0.2303 -0.0098
30542W        W37142  16.343   2.471   0.084 -0.1070 -0.3680 -0.1851
30543W        W37143  26.320   4.901  10.153 -0.0317  0.0975  0.1472
30544W        W37144  23.226   3.385  24.465 -0.1508  0.3119 -0.0874
30545W        W37145  25.434   5.077  33.499  0.2745 -0.0894 -0.1852
30546W        W37146  17.665   1.405  23.035 -0.0183 -0.0235 -0.2081
30547W        W37147  24.623   0.735   5.005  0.0931  0.0046 -0.1032
30548W        W37148   2.594   2.156  32.945  0.4297  0.1105 -0.0698
30549W        W37149  11.522   1.125  31.859 -0.3090  0.1399  0.1627
30550W        W37150  19.694   5.181   1.991 -0.0423 -0.0958 -0.0123
30551W        W37151  20.550   1.842  34.313 -0.1432  0.1346 -0.1696
30552W        W37152  13.100   2.451  13.637  0.0524 -0.2466 -0.1841
30553W        W37153   8.845   2.835   1.402 -0.1628  0.2327 -0.1482
30554W        W37154  11.032   1.958  27.265 -0.2165 -0.2058  0.2379
30555W        W37155  11.195   5.345  32.657 -0.0191  0.5068  0.0919
30556W        W37156  22.443   2.056  27.474 -0.1122 -0.1297 -0.0040
30557W        W37157  14.800   2.830  27.448  0.0230 -0.2335  0.0250
30558W        W37158  14.859   1.352   8.046 -0.1372  0.2017  0.1553
30559W        W37159   6.924   1.643  23.785  0.0868  0.1851  0.0221
30560W        W37160  14.375   3.480  14.257 -0.0582 -0.0130 -0.0939
30561W        W37161  20.658   5.057  30.798 -0.1668  0.1225 -0.0165
30562W        W37162  22.347   4.277   5.968  0.1709 -0.0488  0.0600
30563W        W37163   4.464   3.567  26.852  0.0998  0.0230 -0.1906
30564W        W37164   2.271   3.101  20.794  0.0964 -0.0761  0.1278
30565W        W37165  18.914   4.336  11.606  0.2010  0.0881 -0.0371
30566W        W37166  22.214   6.538   3.872  0.1649  0.2300  0.1588
30567W        W37167  16.458   5.971   8.367  0.0142 -0.0372 -0.5766
30568W        W37168  10.987   5.150  13.692 -0.1103  0.1370  0.1970
30569W        W37169  21.570   6.364   0.457  0.1187 -0.1884 -0.2266
30570W        W37170   8.865   3.627   0.452 -0.1417  0.2683  0.0866
30571W        W37171   9.258   0.102  23.605 -0.2106  0.3033  0.3476
30572W        W37172   9.233   5.082  28.351  0.0066  0.1489  0.1489
30573W        W37173  17.520   3.224   1.697  0.1330  0.1607 -0.2469
30574W        W37174  10.234   4.755  35.943 -0.0798 -0.0617 -0.0031
30575W        W37175  25.205   3.039   6.029  0.2594  0.1655  0.1527
30576W        W37176   9.427   3.921  28.707 -0.1534 -0.0081  0.0674
30577W        W37177   1.973   1.732   1.489 -0.1797 -0.0957 -0.0435
30578W        W37178   4.279   5.745   9.708 -0.3138 -0.0346  0.1530
30579W        W37179  16.886   2.899  33.088  0.2785  0.1987 -0.2803
30580W        W37180  12.817   6.324  24.178  0.1020  0.1871  0.1256
30581W        W37181  15.356   3.896  22.751 -0.0540  0.0710  0.3804
30582W        W37182   4.964   6.241  24.444 -0.0430 -0.2423 -0.1972
30583W        W37183  13.660   5.441  24.770  0.0904 -0.3099 -0.1827
30584W        W37184  19.826   1.178  11.748  0.1679 -0.0950 -0.2973
30585W        W37185   2.783   2.926  12.292 -0.0539  0.0612 -0.3549
30586W        W37186  24.809   2.869  31.931 -0.3005  0.1506 -0.1709
30587W        W37187   5.427   6.488  21.078  0.0197 -0.2776 -0.1435
30588W        W37188  14.074   2.063   5.109 -0.1553  0.1513 -0.2361
30589W        W37189  11.982   5.179  29.178  0.0001 -0.0436 -0.1239
30590W        W37190   2.459   4.692   4.812 -0.3311 -0.0993 -0.0407
30591W        W37191  10.199   4.568   5.637  0.1811 -0.0712  0.4875
30592W        W37192   2.529   6.127   5.243 -0.2654 -0.1362  0.1388
30593W        W37193  11.715   5.872   0.402  0.1237 -0.1267 -0.1058
30594W        W37194  20.482   5.033  33.454 -0.0451  0.0252  0.2458
30595W        W37195  10.780   4.971  10.613 -0.0206 -0.5339  0.2374
30596W        W37196   9.996   3.598  16.150  0.0680  0.1317 -0.2879
30597W        W37197   7.295   4.051   8.631 -0.0546  0.1479 -0.2342
30598W        W37198   1.155   0.723   0.157  0.1114  0.1348  0.2670
30599W        W37199   2.382   2.356   2.340  0.2048 -0.0027 -0.1451
30600W        W37200   2.523   4.519   5.446 -0.0133  0.0644  0.1523
30601W        W37201  19.677   3.488   0.153 -0.1415  0.0305  0.0065
30602W        W37202  17.706   1.567  22.049  0.2629  0.0656  0.2334
30603W        W37203  18.323   0.362  27.994 -0.2278  0.1032 -0.0955
30604W        W37204  16.327   3.828   6.869 -0.3396 -0.0450  0.0519
30605W        W37205   1.400   1.516   2.451 -0.1348 -0.1496 -0.2458
30606W        W37206   3.099   2.908   4.291 -0.0834 -0.3551  0.2330
30607W        W37207   5.832   3.624  14.901 -0.1374  0.0246  0.0801
30608W        W37208   9.235   0.607  27.856  0.1267  0.2535  0.0419
30609W        W37209  20.513   5.031  23.334  0.2080 -0.1960  0.1447
30610W        W37210  22.629   6.202   2.381  0.1673  0.3022  0.1644
30611W        W37211  10.920   0.292  35.658 -0.1930  0.3053 -0.0632
30612W        W37212   5.723   2.660  26.912 -0.1638 -0.0523 -0.1504
30613W        W37213   4.631   0.019   1.550 -0.0399 -0.0793  0.0573
30614W        W37214   2.004   5.814  28.508  0.0042 -0.0772  0.0216
30615W        W37215  25.401   2.202  27.904  0.2547  0.1426  0.0584
30616W        W37216  17.093   0.805   8.147  0.4946  0.2659  0.1500
30617W        W37217   6.148   0.858  31.887 -0.1265  0.0416 -0.1320
30618W        W37218   2.810   1.400  34.528 -0.0018 -0.0007 -0.0707
30619W        W37219  10.044   3.990  27.851  0.2265  0.3312  0.4250
30620W        W37220  19.182   2.718  36.010  0.1819 -0.0827 -0.0034
30621W        W37221  13.667   6.179   4.862  0.0291  0.2712  0.0558
30622W        W37222  13.035   0.106  25.923  0.1168  0.0741  0.2395
30623W        W37223   6.186   1.510   6.412 -0.0090  0.0224  0.0536
30624W        W37224   3.562   5.473  24.846 -0.0423 -0.0488 -0.0761
30625W        W37225  18.222   1.507  23.069  0.1848  0.0607 -0.2044
30626W        W37226  16.035   4.587  35.443  0.2098  0.1470 -0.3357
30627W        W37227  22.872   1.408  35.276 -0.0527  0.0882  0.0576
30628W        W37228   8.087   1.665  21.486  0.1446  0.1397  0.2895
30629W        W37229   2.157   0.479   0.722  0.0317 -0.1961 -0.3312
30630W        W37230   3.123   0.677  22.886  0.1175  0.0956 -0.1722
30631W        W37231  13.667   0.817  13.627  0.1411 -0.0382 -0.0469
30632W        W37232  23.291   5.945  14.956  0.0494 -0.2813  0.3648
30633W        W37233  18.263   2.698   7.164 -0.0290 -0.0242  0.0277
30634W        W37234  25.986   4.745  21.076 -0.1484 -0.0566 -0.1301
30635W        W37235  22.693   6.330  12.571 -0.2276  0.0150 -0.0104
30636W        W37236   4.508   3.518  28.812 -0.1154  0.1068 -0.1756
30637W        W37237  21.700   0.079  31.277  0.1143  0.0042 -0.2695
30638W        W37238   5.379   5.541   9.953 -0.0120 -0.0757  0.1416
30639W        W37239   0.459   0.600  25.407  0.2009  0.1402  0.0173
30640W        W37240  13.199   1.755  10.809  0.2850 -0.1444  0.0476
30641W        W37241  13.426   0.057   0.365 -0.0372 -0.1512 -0.0864
30642W        W37242  21.675   2.356  30.792  0.3247 -0.0314 -0.2823
30643W        W37243   2.622   0.991  24.142 -0.0469  0.1130 -0.0041
30644W        W37244   7.123   1.374  29.048 -0.0118 -0.2627  0.2290
30645W        W37245   9.856   3.690   3.985 -0.0068 -0.1883  0.1134
30646W        W37246   7.514   3.034  28.331 -0.2798 -0.0116  0.1271
30647W        W37247  13.602   5.577  12.206  0.0637  0.0243  0.0925
30648W        W37248  11.413   1.723  24.933  0.2834 -0.2183  0.0208
30649W        W37249  14.617   6.399   3.263 -0.1364 -0.0203  0.2430
30650W        W37250   9.963   5.959  24.055 -0.1457  0.1644 -0.0496
30651W        W37251  12.170   1.624  22.185  0.1798  0.1951 -0.3391
30652W        W37252  11.310   2.570  26.823 -0.0153 -0.1359  0.0804
30653W        W37253   6.828   2.472  32.977 -0.0040 -0.0236  0.0933
30654W        W37254  13.518   2.399   8.410 -0.1579 -0.3203  0.0740
30655W        W37255   7.049   3.405  35.552 -0.0477 -0.0682  0.0456
30656W        W37256  18.653   0.070  14.786 -0.0994 -0.0152  0.0142
30657W        W37257   7.540   0.776  33.612  0.2996 -0.0418 -0.3234
30658W        W37258   2.912   3.256  14.691  0.0919  0.1899 -0.0920
30659W        W37259  10.266   0.902  25.576 -0.3234  0.0121  0.0910
30660W        W37260   5.943   3.464  25.552 -0.1524 -0.0098  0.0602
30661W        W37261  16.492   1.978  27.703 -0.2288 -0.1886  0.1570
30662W        W37262  16.432   5.957  11.088  0.1320 -0.3864 -0.1284
30663W        W37263   2.589   3.948   0.027  0.2517  0.2232 -0.1333
30664W        W37264   8.261   0.766  25.275 -0.2338  0.1238 -0.0004
30665W        W37265   4.738   4.927  21.954  0.0856 -0.0485 -0.1536
30666W        W37266  16.660   5.752  24.772 -0.0778  0.0862  0.0533
30667W        W37267   6.362   3.067  28.202  0.1692  0.2825  0.1341
30668W        W37268  11.667   1.118  30.739  0.1317  0.0242  0.2549
30669W        W37269   0.803   0.531  26.290  0.1330 -0.0476  0.1957
30670W        W37270   6.960   1.648  31.284  0.0177 -0.0872 -0.1321
30671W        W37271   3.297   2.403  26.168 -0.1137 -0.0344  0.0749
30672W        W37272  26.110   3.056  30.402  0.1101 -0.0936 -0.2990
30673W        W37273   5.552   4.694  12.163  0.0603 -0.0707  0.3366
30674W        W37274  12.177   2.802  35.314  0.0785  0.0537 -0.0606
30675W        W37275  11.673   4.617  13.891  0.0972  0.0987 -0.0243
30676W        W37276  10.979   4.926  29.464  0.0040  0.0136 -0.0501
30677W        W37277  22.219   3.414  35.037  0.2004  0.2159 -0.0023
30678W        W37278  12.310   5.396  10.759  0.1601  0.0785 -0.2603
30679W        W37279  12.653   0.088   7.489 -0.2032 -0.0930 -0.1473
30680W        W37280  24.347   5.027   9.944  0.3387 -0.0469 -0.3663
30681W        W37281  22.954   0.850  28.675 -0.1032  0.0822 -0.0492
30682W        W37282  13.249   3.526  35.775 -0.0321 -0.0197 -0.0903
30683W        W37283   5.959   1.573  13.099 -0.0579 -0.2092  0.0105
30684W        W37284   8.597   4.459   5.165  0.1787  0.0114  0.3021
30685W        W37285  21.850   5.321   0.700  0.1275 -0.2623  0.0689
30686W        W37286   7.995   0.150  32.130  0.1113  0.0561 -0.0248
30687W        W37287   8.316   3.854  12.396 -0.2323  0.0485 -0.0394
30688W        W37288  13.860   3.038  27.211  0.1179 -0.0923 -0.0611
30689W        W37289  12.887   3.721   6.538  0.3940 -0.1074  0.1586
30690W        W37290  12.860   6.580  23.661  0.0250  0.1228 -0.0285
30691W        W37291   7.339   3.394  10.079  0.2340  0.0278 -0.0677
30692W        W37292  14.719   3.360   3.614 -0.2718 -0.2535 -0.2765
30693W        W37293   6.012   1.342  27.111  0.1113  0.1119 -0.3129
30694W        W37294  24.213   1.674  30.589  0.0114  0.0734  0.2470
30695W        W37295  17.487   4.279  27.587  0.0639  0.2239  0.1321
30696W        W37296  19.875   3.203   9.979  0.0022  0.0859  0.2706
30697W        W37297  17.918   6.580  32.858  0.3561 -0.1057  0.0761
30698W        W37298  12.378   5.436  12.546 -0.1717  0.0763 -0.1940
30699W        W37299  19.948   5.452  33.303  0.0931 -0.0242  0.0380
30700W        W37300  24.355   3.781   9.701  0.2143 -0.1213  0.1084
30701W        W37301  17.693   4.188  34.394  0.0450  0.1514 -0.0954
30702W        W37302  17.961   0.319  27.556 -0.2481  0.1005 -0.0162
30703W        W37303  13.167   1.907  14.449  0.2980  0.1395 -0.0759
30704W        W37304  19.844   6.339   6.761  0.1281 -0.3348 -0.0027
30705W        W37305   7.373   1.666   3.714 -0.0815 -0.0763 -0.1573
30706W        W37306   4.708   5.860  35.317  0.2438  0.0033 -0.0229
30707W        W37307   7.807   4.518  10.940  0.2023  0.0304  0.0096
30708W        W37308  12.208   3.858  34.404  0.0296 -0.0669 -0.0062
30709W        W37309  25.243   4.871  33.949 -0.1309 -0.5460  0.0793
30710W        W37310   2.359   0.881  24.602 -0.1079  0.1122  0.0118
30711W        W37311  16.564   3.912  26.259 -0.0702 -0.3291 -0.2516
30712W        W37312   3.263   5.520  22.685 -0.0844 -0.1671  0.2498
30713W        W37313  19.793   1.757   2.912 -0.1621  0.2808  0.1973
30714W        W37314  22.750   6.386  33.718 -0.3317 -0.0497  0.0480
30715W        W37315  10.356   3.599  27.675  0.4523  0.0433 -0.3193
30716W        W37316  25.542   5.553   0.168 -0.2402  0.2987 -0.1258
30717W        W37317  23.170   0.094  31.880 -0.2671 -0.0045  0.1842
30718W        W37318  11.384   3.970  24.689  0.2291  0.3415  0.0288
30719W        W37319  19.010   3.954  20.530  0.0326  0.0317 -0.0004
30720W        W37320  25.793   2.347   6.684 -0.2235  0.0614 -0.0961
30721W        W37321   2.397   0.647   0.148  0.0290 -0.1370 -0.2447
30722W        W37322  20.213   5.366   4.992 -0.1414 -0.0242 -0.1924
30723W        W37323   2.066   6.526   3.023 -0.1173  0.0241  0.3203
30724W        W37324  21.844   6.033   6.846  0.0532 -0.1347 -0.0422
30725W        W37325   2.185   0.460   5.613 -0.3134  0.2642 -0.0465
30726W        W37326  15.134   5.213  29.261  0.3869 -0.0652 -0.2934
30727W        W37327   8.554   3.488  12.750 -0.0496  0.1518 -0.0892
30728W        W37328   8.939   4.821   4.985  0.4315  0.3079  0.1235
30729W        W37329  24.907   0.480  26.457 -0.4867 -0.3413  0.2513
30730W        W37330   2.009   6.331   7.221 -0.0860  0.4432  0.0970
30731W        W37331   6.450   3.954  32.627 -0.0328 -0.0501 -0.1172
30732W        W37332   4.846   3.918  27.594  0.1119 -0.1858 -0.0412
30733W        W37333   3.033   2.032   5.754  0.1819  0.0854  0.0451
30734W        W37334   7.622   1.706  13.081  0.1390  0.0346 -0.0498
30735W        W37335  25.090   1.910  29.600 -0.2220  0.1859 -0.2938
30736W        W37336  24.328   1.066  29.850  0.0262  0.0136  0.3198
30737W        W37337  18.721   2.769  28.670 -0.0353  0.1058 -0.0458
30738W        W37338  25.078   4.602  32.395 -0.0053 -0.0565  0.2470
30739W        W37339   8.185   4.298  10.702  0.2599  0.1280 -0.1706
30740W        W37340   6.528   1.721   5.529  0.0329 -0.1494 -0.0050
30741W        W37341  11.723   0.568  24.904  0.1480  0.3930 -0.0484
30742W        W37342  11.568   6.385   3.849  0.2267 -0.0362  0.1825
30743W        W37343  24.579   3.611   3.873 -0.0018 -0.1572  0.2407
30744W        W37344   4.537   2.548  33.293  0.3032 -0.2334  0.0446
30745W        W37345  14.494   6.544  29.969 -0.3166 -0.2345  0.1418
30746W        W37346  14.604   0.998  35.239  0.2541  0.1546 -0.2870
30747W        W37347   1.376   0.801   6.245 -0.1443  0.1987  0.2487
30748W        W37348  21.568   3.140  32.421  0.2842  0.0297  0.4950
30749W        W37349  11.107   2.629  24.444 -0.1448 -0.0698  0.0854
30750W        W37350  11.960   1.578  23.465 -0.0661 -0.1482  0.0782
30751W        W37351  17.127   2.352   2.729  0.1024  0.3182  0.2399
30752W        W37352  20.206   0.622  13.244 -0.3167  0.0515  0.1338
30753W        W37353  19.968   3.557   7.297 -0.0886 -0.0105  0.1291
30754W        W37354  12.120   2.860  28.389 -0.0367  0.1431 -0.1139
30755W        W37355   2.093   1.736   4.299  0.0950 -0.1886  0.1433
30756W        W37356  11.565   4.591  25.106 -0.0068  0.2181 -0.0800
30757W        W37357  14.916   6.029  15.336 -0.0451 -0.0134  0.0765
30758W        W37358  19.355   3.018  22.054  0.1834  0.0213 -0.0751
30759W        W37359   5.045   4.425  29.816  0.0735 -0.0531  0.2584
30760W        W37360  22.765   5.375   2.662 -0.3737  0.4452  0.0599
30761W        W37361   4.642   2.563  12.572  0.0041 -0.0285  0.0698
30762W        W37362   3.980   1.879  24.824  0.1123 -0.0475 -0.3015
30763W        W37363  20.659   3.521  35.704  0.1605  0.1436  0.1320
30764W        W37364  21.554   5.504  21.611  0.3092  0.0419  0.0850
30765W        W37365  19.997   0.128  29.346 -0.3730 -0.1486  0.2246
30766W        W37366  13.025   1.792  21.837  0.0508  0.0215  0.2083
30767W        W37367  13.266   5.248   0.375 -0.1372  0.0732  0.1049
30768W        W37368   2.071   0.850  23.594 -0.3126 -0.2147 -0.2153
30769W        W37369   3.478   6.389  29.037  0.0615 -0.0434 -0.0727
30770W        W37370   6.885   3.913  28.503  0.1719 -0.2078 -0.0200
30771W        W37371  23.347   1.609  26.097 -0.1537 -0.1883 -0.1046
30772W        W37372   9.284   5.041   4.694  0.1937  0.4122 -0.0000
30773W        W37373   2.781   3.851  24.209 -0.1236 -0.0047  0.3150
30774W        W37374   7.752   0.675  23.322 -0.2742 -0.1236 -0.1132
30775W        W37375   7.532   6.432  22.097  0.0353 -0.2410  0.2183
30776W        W37376  23.955   2.815   4.241  0.2686 -0.0221  0.2084
30777W        W37377  13.362   1.422   8.473  0.1443  0.0693 -0.2648
30778W        W37378  19.865   3.465  35.141  0.1083 -0.0766 -0.1053
30779W        W37379  12.334   0.158   8.243  0.3785 -0.0308 -0.0366
30780W        W37380  18.826   0.926  30.484  0.1017 -0.2010 -0.3110
30781W        W37381  16.942   1.436  13.688  0.1310  0.0193  0.1403
30782W        W37382  12.406   6.145  24.344 -0.1636  0.1651 -0.1702
30783W        W37383  22.845   3.250  19.931 -0.0723  0.0927  0.0450
30784W        W37384  13.768   2.137   6.052 -0.0905  0.3465  0.3189
30785W        W37385  24.458   5.025  29.162  0.0880 -0.2581 -0.1910
30786W        W37386  21.796   5.609   8.690 -0.0597  0.3320  0.2435
30787W        W37387  19.079   2.323  22.565 -0.2261  0.2832  0.1598
30788W        W37388  22.639   0.237   3.222  0.1315  0.0280  0.0272
30789W        W37389  16.813   3.740  32.261 -0.0009  0.2565  0.4598
30790W        W37390  18.827   5.148  32.762 -0.0143 -0.1600 -0.0497
30791W        W37391  20.489   0.308  32.657 -0.2365  0.0332  0.2438
30792W        W37392   9.445   0.887   2.203  0.2243  0.1407  0.1347
30793W        W37393   4.630   6.487   0.343  0.1215 -0.1851  0.2916
30794W        W37394   8.408   5.004  13.523  0.2030 -0.1159 -0.1378
30795W        W37395  11.216   1.408   8.830  0.1259  0.0924  0.1155
30796W        W37396  14.511   0.133  32.473  0.0911  0.1050 -0.2450
30797W        W37397   0.084   4.314   7.044 -0.1796 -0.0676 -0.1702
30798W        W37398  14.669   3.880   1.504 -0.0747 -0.1098 -0.2172
30799W        W37399  23.017   3.365   8.985  0.0805 -0.0134  0.1266
30800W        W37400  10.835   3.931  27.572 -0.1058  0.1081 -0.0783
30801W        W37401  10.576   0.604   0.038  0.2523  0.1437  0.0374
30802W        W37402   5.001   5.428   4.729 -0.0435  0.1049 -0.1497
30803W        W37403  23.298   6.116   6.607  0.1078  0.0867 -0.0154
30804W        W37404  14.377   3.480   7.753  0.0528 -0.1176  0.2585
30805W        W37405  13.002   4.410  14.063 -0.0475 -0.0910  0.1283
30806W        W37406  25.385   0.346  35.739 -0.0635 -0.2995 -0.0659
30807W        W37407  16.133   4.093  30.527 -0.0326  0.1902  0.1369
30808W        W37408  21.846   6.073   2.642  0.1331  0.2416  0.0263
30809W        W37409   0.728   5.251  33.026  0.2503  0.3817 -0.0436
30810W        W37410  20.376   3.710  31.637  0.2264  0.0792  0.2079
30811W        W37411  19.049   3.442   1.702  0.1289 -0.1943 -0.1937
30812W        W37412  12.934   3.217  10.293 -0.2141 -0.1114  0.0995
30813W        W37413  18.253   3.965  31.950 -0.2245  0.2450 -0.2392
30814W        W37414   9.986   3.129  26.909  0.1897 -0.2292  0.0239
30815W        W37415  14.138   1.575  23.345 -0.0963 -0.0860 -0.0644
30816W        W37416   5.376   2.719  28.246 -0.1752 -0.1589  0.0468
30817W        W37417  14.782   0.973   3.280 -0.2064 -0.1423  0.0521
30818W        W37418  18.502   0.433  11.113 -0.0025  0.2171 -0.1889
30819W        W37419   6.653   0.519  12.507  0.0743  0.1528 -0.3519
30820W        W37420  18.157   5.367  32.149 -0.0981 -0.0734  0.1697
30821W        W37421   5.949   2.027   4.796 -0.0302  0.1655 -0.0104
30822W        W37422   9.989   4.632   8.429  0.0299  0.1102  0.2554
30823W        W37423  12.034   0.154  11.197 -0.1089 -0.0545  0.2006
30824W        W37424   0.031   1.081  24.335 -0.0605  0.0808  0.1073
30825W        W37425  12.107   3.442   0.884 -0.0027  0.0314 -0.2425
30826W        W37426  19.016   3.800  31.409 -0.1966 -0.0219  0.2945
30827W        W37427  11.618   1.974  30.360  0.0547  0.0749 -0.0558
30828W        W37428  19.951   3.243   2.802 -0.0015  0.2663  0.1935
30829W        W37429  18.172   0.998   6.234  0.3472 -0.0189  0.0019
30830W        W37430   5.471   4.808  25.815 -0.0645  0.0455 -0.1256
30831W        W37431  20.698   1.101  10.590 -0.0940 -0.3380  0.1353
30832W        W37432   5.496   5.727  35.810  0.1370 -0.1118  0.0363
30833W        W37433  23.370   3.203   7.165 -0.1580  0.1264  0.2789
30834W        W37434   7.009   1.398   1.395  0.0515 -0.0820 -0.0011
30835W        W37435  12.990   4.010  12.677  0.0241  0.0651 -0.0876
30836W        W37436  10.849   3.981   2.859  0.2630 -0.1579  0.1085
30837W        W37437  21.939   2.356  24.589 -0.0988  0.3394  0.0831
30838W        W37438   7.295   1.439   7.588 -0.1187  0.0969  0.0112
30839W        W37439  20.016   4.012  12.579  0.0233 -0.1250 -0.1190
30840W        W37440   4.743   5.388   4.307 -0.3242 -0.0270  0.1364
30841W        W37441  16.259   1.665   9.984  0.1087  0.0080 -0.0200
30842W        W37442   1.716   5.465   5.400 -0.0223 -0.2842 -0.0684
30843W        W37443  22.272   4.956  14.978 -0.2710 -0.2331 -0.2522
30844W        W37444  10.630   6.024  15.137 -0.2460  0.0322  0.0777
30845W        W37445  10.517   5.336   8.218 -0.3057  0.0486  0.1253
30846W        W37446  14.375   0.182   7.343  0.1950  0.1094  0.2286
30847W        W37447   2.258   1.019  30.884  0.1151 -0.1552 -0.1095
30848W        W37448  18.322   4.183  27.172  0.1078  0.0923 -0.0814
30849W        W37449  26.162   0.078  26.035  0.0228 -0.0443 -0.0659
30850W        W37450   4.930   3.885  35.224 -0.3430  0.0667  0.1357
30851W        W37451  20.881   4.623   6.144  0.0437  0.1174  0.0763
30852W        W37452  10.892   4.486  12.758  0.0646 -0.0866 -0.0310
30853W        W37453  19.313   4.538  26.768  0.1270 -0.3188  0.1113
30854W        W37454  14.736   6.485  33.423 -0.3033 -0.0759 -0.0934
30855W        W37455   6.721   5.122  13.312  0.1678 -0.2430 -0.0943
30856W        W37456  17.463   1.140   9.864 -0.1423  0.1127 -0.1281
30857W        W37457  15.629   2.665  26.674 -0.1380 -0.1089  0.1167
30858W        W37458  17.423   1.352   3.192  0.3572  0.0662 -0.5380
30859W        W37459  25.034   0.069  21.526  0.3933 -0.2554 -0.1346
30860W        W37460   2.586   0.940   4.865  0.2467 -0.0160 -0.1954
30861W        W37461   5.142   3.172  10.999 -0.0284 -0.0664 -0.0309
30862W        W37462  24.190   4.654   6.338  0.1001 -0.0080  0.1259
30863W        W37463  16.554   6.110  30.527 -0.1202  0.2854  0.0444
30864W        W37464   2.254   1.592   3.345  0.0776  0.1681 -0.0329
30865W        W37465  16.388   6.126  23.796 -0.0314  0.0566  0.0836
30866W        W37466  13.679   1.270  25.665  0.1632 -0.3874  0.2005
30867W        W37467  22.759   5.627  30.101 -0.0133 -0.1629  0.2228
30868W        W37468   1.884   3.728  25.392  0.2921 -0.1796  0.2656
30869W        W37469   2.989   4.299  20.762 -0.1517 -0.0914  0.0986
30870W        W37470   6.644   4.515  32.600  0.0426  0.1021 -0.3351
30871W        W37471  24.067   3.052   6.207 -0.0163  0.1829 -0.2218
30872W        W37472  22.118   3.657  28.901 -0.1065  0.0999 -0.1051
30873W        W37473  19.710   2.652  12.979  0.0269  0.1293  0.0725
30874W        W37474  15.159   1.433  23.940  0.1185 -0.0405  0.1796
30875W        W37475   3.091   2.169   9.410  0.0568  0.0982 -0.2521
30876W        W37476   1.177   4.344   9.458 -0.0994  0.3233 -0.0244
30877W        W37477   5.796   2.409   8.398  0.0555  0.0343 -0.2435
30878W        W37478   4.942   1.172  32.602  0.2114  0.2673  0.0779
30879W        W37479   1.671   6.050  33.149  0.0054  0.1407  0.0940
30880W        W37480   4.056   6.153  30.843  0.2423  0.0323  0.2446
30881W        W37481  20.722   0.054  24.678 -0.0751 -0.0973 -0.2771
30882W        W37482  15.793   0.727  14.378 -0.2269  0.1880  0.1205
30883W        W37483   9.999   3.281   2.277  0.1232 -0.1739 -0.0890
30884W        W37484  25.018   5.098  33.109  0.0832  0.1005 -0.2752
30885W        W37485   7.534   4.305  23.344 -0.1668 -0.2033 -0.0528
30886W        W37486  18.928   5.470  28.285 -0.1098  0.4263  0.0513
30887W        W37487  17.547   1.497   4.374 -0.0439 -0.0510  0.0624
30888W        W37488  23.057   0.558  27.037  0.2602  0.1323  0.2011
30889W        W37489  21.730   3.240   2.137 -0.0633  0.1904  0.1155
30890W        W37490   8.801   1.349   8.461 -0.2423 -0.1500 -0.2499
30891W        W37491  24.427   3.120  29.407  0.2394  0.1893  0.0343
30892W        W37492  23.970   2.695   5.302 -0.0615 -0.2269 -0.0253
30893W        W37493  21.099   2.128  20.755  0.1388 -0.1803  0.0580
30894W        W37494   0.377   0.242  13.029 -0.2579  0.1060 -0.2683
30895W        W37495  15.958   3.657   4.690  0.0710 -0.2546 -0.0556
30896W        W37496  19.226   6.461   2.647 -0.2664  0.0952 -0.2322
30897W        W37497   0.315   5.024  29.790 -0.0366  0.2197 -0.0878
30898W        W37498  15.761   5.997   7.830 -0.0275 -0.0505  0.2489
30899W        W37499  22.676   2.540  28.874  0.1218  0.1020  0.0531
30900W        W37500  20.191   5.296   1.994  0.2848  0.0258 -0.2135
30901W        W37501   8.417   5.162  12.242  0.0658  0.1402  0.1119
30902W        W37502  16.726   0.414   9.202 -0.1231  0.0729  0.1363
30903W        W37503  24.843   5.671  14.611  0.1231  0.0271  0.1194
30904W        W37504  12.673   4.214   1.453 -0.0852  0.2111 -0.1438
30905W        W37505  14.714   2.228  34.878 -0.1066 -0.1266 -0.3164
30906W        W37506  11.307   0.591  33.670 -0.2461 -0.0743 -0.1125
30907W        W37507   2.861   3.323  25.081 -0.5689 -0.0566 -0.3582
30908W        W37508  10.930   0.777   5.152 -0.2143  0.0746 -0.3155
30909W        W37509  11.785   3.609  14.843 -0.1598 -0.0357  0.0839
30910W        W37510   4.747   4.804  31.360 -0.0901  0.0782  0.2284
30911W        W37511  16.277   4.195  22.610 -0.1957  0.2740  0.2346
30912W        W37512  15.048   6.466  24.746  0.0658 -0.0614  0.1340
30913W        W37513   5.082   5.094  25.883 -0.4189  0.0773  0.1809
30914W        W37514  21.418   2.243  24.655 -0.1519  0.4103 -0.0545
30915W        W37515   0.946   3.129  21.202 -0.0941  0.1899  0.1346
30916W        W37516  16.417   2.680   9.586  0.0890 -0.1957 -0.0334
30917W        W37517  11.561   3.331  20.524 -0.0375  0.2146  0.2736
30918W        W37518  21.885   1.875  24.720  0.0918  0.0827  0.1182
30919W        W37519   0.712   3.494  35.065  0.0007 -0.0835 -0.0072
30920W        W37520   8.059   2.878  10.077 -0.1202  0.0490  0.1047
30921W        W37521  19.949   1.554  26.558  0.3338  0.5137  0.2050
30922W        W37522  19.895   6.268  28.485  0.0230 -0.0034 -0.0795
30923W        W37523  23.326   0.309  11.355 -0.0244  0.0493 -0.0634
30924W        W37524  10.565   0.432  14.982 -0.0877 -0.1139  0.4559
30925W        W37525  16.213   2.068  30.979  0.0277 -0.2128 -0.0969
30926W        W37526   1.093   5.414   7.879 -0.2902  0.1803  0.0822
30927W        W37527   3.828   2.721  23.269  0.0861  0.0245 -0.0194
30928W        W37528   3.658   3.050  21.656 -0.1428  0.0545 -0.1618
30929W        W37529  13.648   5.619   4.232 -0.0552 -0.1580 -0.2550
30930W        W37530  24.206   3.940   1.916  0.1697  0.4753  0.0691
30931W        W37531   8.879   4.851  32.370  0.0978  0.0474 -0.1473
30932W        W37532  17.131   3.852  23.523 -0.0740 -0.0362 -0.0413
30933W        W37533   1.876   0.736  25.902  0.0903 -0.1776  0.4400
30934W        W37534  25.415   6.159  27.841 -0.0547 -0.0478 -0.0902
30935W        W37535  10.053   0.805   3.651  0.0716 -0.1094 -0.0522
30936W        W37536  13.902   5.240  12.545 -0.0305 -0.0014  0.1280
30937W        W37537  10.202   2.718  34.908  0.0878 -0.0218 -0.0924
30938W        W37538  12.581   0.381  29.297 -0.0726 -0.0499  0.0113
30939W        W37539  21.493   0.366  30.832  0.1304 -0.1068 -0.0774
30940W        W37540   9.237   3.471  21.023  0.6462  0.2881  0.2168
30941W        W37541  23.873   2.721  24.806 -0.0281 -0.2070  0.0611
30942W        W37542  15.854   0.325   7.566  0.4633 -0.0600 -0.1474
30943W        W37543  23.042   6.307   3.937  0.1854  0.1286 -0.1944
30944W        W37544   0.470   6.082  32.764 -0.1057  0.0016  0.0827
30945W        W37545   5.616   5.539  31.155  0.1043  0.1825 -0.0366
30946W        W37546   8.086   0.902  27.866 -0.0758 -0.1398  0.2717
30947W        W37547  17.399   3.037  24.329 -0.0395  0.1354  0.0978
30948W        W37548  22.217   2.161  30.134  0.0264  0.1146 -0.1740
30949W        W37549  14.646   3.742   4.589 -0.0874 -0.1784 -0.1886
30950W        W37550  23.887   5.338  25.644 -0.0702  0.0839 -0.0776
30951W        W37551  24.528   3.923  34.264 -0.1444  0.2986 -0.1289
30952W        W37552   1.637   3.226  34.615 -0.0522  0.0407 -0.1691
30953W        W37553   6.476   1.142   4.611 -0.1000  0.0039  0.3291
30954W        W37554   5.536   2.676   3.406 -0.1940  0.2057 -0.0667
30955W        W37555   2.562   4.844   8.684  0.0073 -0.0061  0.2384
30956W        W37556   3.298   0.743   4.308 -0.0179 -0.0011 -0.0855
30957W        W37557  15.543   0.252   8.048 -0.2120  0.3684  0.0906
30958W        W37558   1.909   4.151   7.891 -0.0994 -0.0759 -0.2950
30959W        W37559  18.840   0.189  15.216 -0.0790  0.0584  0.2827
30960W        W37560   9.883   5.179  30.809  0.0837  0.1996  0.2525
30961W        W37561  20.144   5.567  22.662  0.2665  0.0885  0.0006
30962W        W37562  23.114   3.683  14.763  0.0622 -0.0069  0.0362
30963W        W37563  15.057   0.358  33.607 -0.2180  0.1240 -0.0146
30964W        W37564  24.470   2.272  28.026 -0.1512 -0.1418 -0.0475
30965W        W37565  19.643   6.247   9.564 -0.3382  0.2431  0.2678
30966W        W37566   7.566   0.197   8.937  0.0312  0.1308  0.0037
30967W        W37567  21.834   4.883   1.286  0.0210  0.1986 -0.2385
30968W        W37568   9.703   4.546  34.859  0.3832 -0.0885  0.0825
30969W        W37569  18.162   3.110  10.588 -0.3389  0.0320 -0.2076
30970W        W37570  11.753   0.281  30.975 -0.2241  0.0673  0.0849
30971W        W37571  18.461   3.716   6.830  0.0542 -0.0995 -0.1389
30972W        W37572  11.930   2.712  26.125  0.1987  0.1735 -0.2224
30973W        W37573   4.454   1.931  11.506 -0.0994  0.0376  0.0262
30974W        W37574   1.138   5.117  22.373  0.0800  0.0115  0.0732
30975W        W37575   0.236   5.990  22.698 -0.3694  0.0154  0.0418
30976W        W37576   2.801   5.903   9.788  0.0272 -0.0095  0.5022
30977W        W37577  23.037   5.844  30.957  0.0117  0.0655  0.1074
30978W        W37578   9.523   2.581  26.150  0.1345 -0.1596  0.0715
30979W        W37579  25.458   6.109  31.486  0.0752  0.0795  0.0697
30980W        W37580  13.337   1.703  27.122 -0.0632  0.1926 -0.0869
30981W        W37581  12.857   1.137   0.579  0.1932 -0.0753 -0.1541
30982W        W37582   1.600   5.309  24.490  0.2666 -0.1234  0.1062
30983W        W37583  22.321   1.494  24.041  0.0801 -0.0666  0.3780
30984W        W37584   5.393   6.214  26.543  0.0056 -0.0829 -0.2015
30985W        W37585   5.749   2.370   7.224 -0.0420 -0.1984  0.0571
30986W        W37586  23.838   0.646  23.544  0.0724 -0.1093  0.2370
30987W        W37587   7.121   5.283  24.721  0.0581  0.0510 -0.1966
30988W        W37588  25.603   5.679   5.065  0.2397  0.0914  0.1331
30989W        W37589  13.105   2.385   2.562 -0.1001 -0.0521  0.0896
30990W        W37590   3.510   1.837  11.426  0.3736 -0.0381  0.1126
30991W        W37591  23.577   3.149  24.098  0.0836  0.1324  0.1364
30992W        W37592   0.468   2.640  20.350  0.0165  0.0859  0.0791
30993W        W37593   4.547   5.226   7.538  0.1957 -0.0629 -0.1087
30994W        W37594   5.023   0.643  22.472 -0.2849 -0.1295  0.1324
30995W        W37595  17.709   0.292  12.730 -0.1517  0.0193  0.2636
30996W        W37596  24.155   3.502  30.732  0.1795  0.5221  0.2046
30997W        W37597  24.436   5.413   9.460 -0.0402  0.2506 -0.0914
30998W        W37598  12.958   1.965   5.314  0.0780  0.2498 -0.1564
30999W        W37599  16.818   4.201  14.505  0.1194  0.0759  0.0389
31000W        W37600  24.322   6.242  25.366  0.0673  0.2188  0.1932
31001W        W37601  15.087   2.607  35.801 -0.0708  0.2799 -0.4321
31002W        W37602   5.921   3.842   1.267 -0.0247  0.0767  0.3147
31003W        W37603  21.147   6.412  33.172  0.1756 -0.1870 -0.1318
31004W        W37604  22.321   3.792  34.639  0.0973  0.2781  0.0664
31005W        W37605  20.731   5.668   1.915  0.0264 -0.1269  0.1268
31006W        W37606  20.053   4.338  10.671  0.2880  0.2245  0.2723
31007W        W37607   6.435   1.686   9.843 -0.2655 -0.0923 -0.0917
31008W        W37608  26.019   3.179  11.247  0.4261  0.1387 -0.3257
31009W        W37609  22.902   3.876  20.618  0.0178  0.1254  0.3512
31010W        W37610  24.453   0.700  21.064  0.0825 -0.0844 -0.0859
31011W        W37611  22.516   4.357  23.919  0.1598  0.1711 -0.2029
31012W        W37612   3.607   2.244  24.692 -0.2411 -0.1720 -0.3077
31013W        W37613  14.223   0.772  31.115  0.2982  0.0385 -0.0275
31014W        W37614  23.236   4.424  11.851  0.1935  0.0642 -0.0054
31015W        W37615   9.680   2.807  23.522 -0.0467 -0.2980 -0.0462
31016W        W37616  17.344   3.995   7.771  0.1559  0.0844 -0.2030
31017W        W37617  11.834   0.188  22.273 -0.0724 -0.2406  0.0068
31018W        W37618  12.827   3.156   9.150  0.1949  0.1957 -0.1249
31019W        W37619  21.177   0.307  24.477  0.1842  0.1639  0.0694
31020W        W37620   3.451   3.081  23.072  0.2799  0.0028 -0.2932
31021W        W37621  19.091   2.739   1.088 -0.0631 -0.2075  0.1899
31022W        W37622   2.916   1.729  23.733 -0.3401  0.2479 -0.1093
31023W        W37623  16.192   5.844  24.563  0.0414  0.1722  0.3401
31024W        W37624   6.246   4.488  35.503 -0.1715 -0.0071 -0.1137
31025W        W37625  11.231   3.841  35.289  0.2968  0.2122  0.1617
31026W        W37626  17.271   3.090  30.772 -0.1742  0.2695 -0.0206
31027W        W37627   3.875   0.595   0.572  0.0043  0.2162  0.2168
31028W        W37628   9.985   6.396  27.559  0.1409  0.0764  0.2523
31029W        W37629  25.975   1.042   2.042  0.2487 -0.1818 -0.2346
31030W        W37630  13.324   0.905  32.700  0.1950  0.2882  0.1482
31031W        W37631   4.463   2.007  35.497 -0.5286  0.1064 -0.2020
31032W        W37632   2.005   4.766  33.541 -0.0431  0.1049  0.0588
31033W        W37633   0.037   0.950  33.490  0.2367  0.1031  0.1643
31034W        W37634  23.113   0.600  31.681 -0.2250 -0.1506  0.0367
31035W        W37635   4.546   0.185   3.424 -0.0172  0.2812 -0.0900
31036W        W37636  15.137   4.663   3.654 -0.1274 -0.1275  0.1001
31037W        W37637  17.717   3.822  10.391  0.0285 -0.0955 -0.0047
31038W        W37638  17.615   3.067  31.208  0.0843 -0.0690  0.2965
31039W        W37639  16.484   6.520   3.132 -0.0356 -0.1009 -0.1198
31040W        W37640   2.990   4.239  28.275 -0.2249  0.0306  0.1307
31041W        W37641  15.681   4.101  24.238  0.1869 -0.1512 -0.1287
31042W        W37642  14.224   4.742   7.977 -0.2802  0.2129 -0.0743
31043W        W37643   7.883   2.253   2.496  0.2310  0.0761 -0.1179
31044W        W37644  18.306   6.062   5.116  0.0418 -0.1037  0.1512
31045W        W37645   0.193   4.145  22.195 -0.1122  0.0572  0.0570
31046W        W37646  10.133   5.879  14.176 -0.0308  0.0998 -0.1532
31047W        W37647  18.297   2.145   5.166  0.0289  0.1472  0.1648
31048W        W37648  17.300   1.208   7.727 -0.2535 -0.0918  0.0208
31049W        W37649  22.339   4.227   3.540 -0.2249 -0.2222 -0.0080
31050W        W37650  25.808   6.299  25.531 -0.2037 -0.2453  0.1623
31051W        W37651  23.280   4.938   3.320  0.1467  0.0312  0.0734
31052W        W37652  11.355   4.985  32.345 -0.5316  0.0964  0.1817
31053W        W37653  23.345   1.821  34.749 -0.0476  0.1978  0.0209
31054W        W37654   8.524   6.493   3.827 -0.1037 -0.0405 -0.0385
31055W        W37655   4.204   0.463   7.852  0.1292  0.0315  0.2513
31056W        W37656  14.226   3.639   2.892  0.4326 -0.1459 -0.0563
31057W        W37657  12.223   0.854  11.158 -0.0692  0.1899 -0.0326
31058W        W37658   3.924   1.793  23.445 -0.1188  0.0751  0.1522
31059W        W37659  17.482   5.217   3.928  0.0698  0.2029 -0.0275
31060W        W37660   3.562   4.489  12.323  0.1600  0.0672 -0.1663
31061W        W37661  16.216   5.451  32.630 -0.1243  0.0378  0.0294
31062W        W37662  10.693   3.507  33.742 -0.4797 -0.4229 -0.1871
31063W        W37663   5.009   3.270   4.670  0.0653 -0.0413 -0.1641
31064W        W37664  16.695   3.396   7.278  0.0244  0.2362 -0.1007
31065W        W37665  10.816   4.909   2.319  0.0824 -0.0899  0.2085
31066W        W37666  14.342   2.475  10.656 -0.1577 -0.1575  0.2225
31067W        W37667  24.040   3.110   9.072 -0.0448 -0.3057  0.3603
31068W        W37668  25.602   1.102  15.375  0.0151  0.2919 -0.0284
31069W        W37669  21.296   2.254  25.414 -0.0945 -0.1135  0.0382
31070W        W37670  22.391   2.634   9.151  0.0273 -0.2295 -0.0001
31071W        W37671  10.837   5.341  29.087  0.1794  0.1830  0.4237
31072W        W37672   1.606   5.719   3.069  0.0976 -0.0867 -0.2717
31073W        W37673   2.871   5.457  22.390 -0.2228  0.2784  0.4339
31074W        W37674  18.903   5.464   9.923 -0.1649 -0.3148 -0.0896
31075W        W37675  15.588   0.343  33.590  0.0159 -0.1000 -0.0782
31076W        W37676  26.191   5.736  24.519 -0.0746 -0.0265  0.1236
31077W        W37677  12.804   2.561  20.598 -0.0399  0.0028 -0.3148
31078W        W37678  16.747   2.339  23.556  0.1932  0.2894  0.0307
31079W        W37679  22.681   1.053  10.676 -0.0532  0.2476  0.0747
31080W        W37680   2.806   2.293   0.954 -0.1041 -0.1768 -0.2094
31081W        W37681  13.480   4.165  34.795  0.1709  0.1871 -0.2656
31082W        W37682  13.374   4.983  31.414  0.1485 -0.0964  0.1282
31083W        W37683  15.769   4.767  31.927 -0.3905  0.2676 -0.1015
31084W        W37684  14.995   0.665   1.345  0.4313 -0.2291  0.2460
31085W        W37685  23.067   1.837   9.279 -0.1957  0.1406  0.1304
31086W        W37686   6.331   5.289  26.413  0.0019 -0.3402 -0.1736
31087W        W37687  14.074   6.550   6.271 -0.1395  0.0179 -0.1500
31088W        W37688  22.965   1.137   4.255 -0.0157 -0.2491 -0.0257
31089W        W37689   6.731   3.677  15.416 -0.1383  0.1086 -0.1154
31090W        W37690   8.634   5.428  22.000  0.2460 -0.2236  0.3788
31091W        W37691   0.330   5.853  23.234  0.1195 -0.1085 -0.3644
31092W        W37692   9.433   0.276  22.059 -0.2475 -0.3409  0.1786
31093W        W37693  21.856   1.883   4.428 -0.0903  0.1392  0.1937
31094W        W37694  15.326   4.735  11.396 -0.3680 -0.2632 -0.1555
31095W        W37695  25.234   6.302  10.238  0.1057 -0.0170 -0.1016
31096W        W37696   4.136   4.427  12.371 -0.2379 -0.0850  0.1316
31097W        W37697  15.358   5.378  24.249 -0.0140 -0.0260 -0.1267
31098W        W37698  23.697   6.432  15.264 -0.1470  0.0508 -0.2777
31099W        W37699  15.848   3.583   7.526 -0.0880  0.5554 -0.0622
31100W        W37700   1.635   2.017  30.595 -0.2772 -0.1376  0.0945
31101W        W37701  13.937   3.101   1.877  0.0157 -0.1299 -0.1710
31102W        W37702   0.706   5.646  34.094  0.0718 -0.0273 -0.1066
31103W        W37703  21.589   1.124  34.412  0.1891  0.1469 -0.0188
31104W        W37704   6.596   3.702  27.299 -0.0434  0.1364  0.1003
31105W        W37705   7.433   2.381   2.360  0.1801  0.0905 -0.0565
31106W        W37706  10.653   0.674  32.928 -0.0132 -0.0095 -0.0806
31107W        W37707   4.761   6.107   3.992  0.1548  0.0139  0.1793
31108W        W37708   6.967   2.488  30.358  0.1625 -0.3319  0.1696
31109W        W37709  19.177   0.044  24.264  0.1791  0.1131  0.0966
31110W        W37710  22.957   6.063  29.608 -0.2431 -0.3130  0.0659
31111W        W37711  25.453   4.883   0.897 -0.1013 -0.2262 -0.1617
31112W        W37712  11.736   4.651  11.710  0.3037 -0.0736  0.0668
31113W        W37713   5.196   3.331  15.622 -0.0991 -0.0741  0.0724
31114W        W37714  11.871   1.870  21.818  0.0267  0.2040 -0.3373
31115W        W37715   2.031   1.706  10.919 -0.3459  0.0606 -0.1263
31116W        W37716   3.567   2.002  33.480  0.1132 -0.0985 -0.3337
31117W        W37717  10.036   5.419  23.645 -0.0159 -0.1846  0.0956
31118W        W37718  15.014   4.819  24.532 -0.1471  0.0367  0.1641
31119W        W37719  14.310   3.724  11.589 -0.2061  0.0799 -0.2093
31120W        W37720  26.054   4.336  30.740  0.3090 -0.2817  0.2538
31121W        W37721  22.252   0.871   7.485 -0.0940  0.0004 -0.1428
31122W        W37722  10.337   1.053  29.477  0.0184 -0.5326  0.1107
31123W        W37723   6.163   4.843   9.388  0.1443  0.1933  0.0741
31124W        W37724  19.616   4.720   4.069 -0.1014 -0.2599 -0.1046
31125W        W37725  17.128   5.158   1.507  0.0195  0.0648 -0.1784
31126W        W37726  16.157   1.902   3.276 -0.1967  0.0268  0.1735
31127W        W37727   5.736   0.703  33.594 -0.0713 -0.0953  0.1355
31128W        W37728   9.684   5.364   9.145  0.0336 -0.0726  0.2327
31129W        W37729   6.175   1.851  33.815 -0.3048  0.0622  0.1259
31130W        W37730  26.067   6.413   9.897  0.1152  0.2144 -0.1023
31131W        W37731  24.874   5.746  14.072  0.1056  0.0266  0.2226
31132W        W37732  24.890   2.500   2.141  0.1448 -0.1951 -0.2391
31133W        W37733   6.003   3.042   0.839  0.0648 -0.0373  0.1270
31134W        W37734   9.172   0.716   1.750 -0.0623 -0.2804  0.2031
31135W        W37735   2.072   5.690  33.108 -0.0837  0.0307  0.0270
31136W        W37736   8.820   0.330  27.060 -0.2513  0.1602 -0.2920
31137W        W37737   1.391   1.013  15.494  0.0817 -0.3227  0.3558
31138W        W37738   7.626   2.697  29.465  0.0803 -0.1576 -0.1232
31139W        W37739  12.588   5.326   6.623 -0.1219  0.1372 -0.1900
31140W        W37740  15.652   2.403  14.065  0.0316  0.3606 -0.2005
31141W        W37741  13.861   5.029  33.205  0.0015 -0.1941 -0.1023
31142W        W37742   3.667   5.265  10.557 -0.2276 -0.1282 -0.1503
31143W        W37743  16.770   0.261  11.410  0.0316  0.0744  0.1377
31144W        W37744   1.609   0.716  22.088 -0.4375  0.1405 -0.1798
31145W        W37745  12.952   3.161   1.355  0.0326 -0.1655 -0.0870
31146W        W37746   8.997   3.004  13.891 -0.0446  0.2983  0.2260
31147W        W37747   1.854   5.494  35.615  0.2225  0.1460  0.1546
31148W        W37748   0.451   5.961   2.245  0.0803  0.1165  0.3272
31149W        W37749  22.679   1.058   6.653 -0.1242  0.1233 -0.1217
31150W        W37750  13.010   3.196  14.391  0.0380 -0.2333 -0.2358
31151W        W37751  19.525   3.764  25.858  0.3118 -0.2463  0.0625
31152W        W37752   6.384   1.833  25.436  0.1433  0.1162 -0.2559
31153W        W37753   5.278   5.124  12.935  0.1325  0.0077 -0.0945
31154W        W37754  26.203   1.600  35.008 -0.1250 -0.1675  0.0552
31155W        W37755  10.239   5.162   0.682 -0.3447  0.1516  0.1289
31156W        W37756  10.085   4.793  25.434 -0.0035  0.1038 -0.1973
31157W        W37757  17.508   0.867  11.197  0.1945  0.0402 -0.2024
31158W        W37758  13.300   4.748  30.656 -0.0460 -0.0561 -0.2123
31159W        W37759  10.510   5.813  33.725  0.0591  0.0184 -0.1497
31160W        W37760  23.293   3.915  23.798  0.0214 -0.2416 -0.2607
31161W        W37761  12.367   1.852   1.395 -0.1578 -0.0867 -0.2853
31162W        W37762   0.954   0.026  24.164 -0.1529  0.4271  0.3555
31163W        W37763  15.705   4.698   3.903  0.0359 -0.0638 -0.0721
31164W        W37764  10.700   1.977  33.817  0.1125  0.1211 -0.2862
31165W        W37765  21.082   2.808  27.116  0.1646  0.1955  0.0677
31166W        W37766  11.605   6.150  26.068  0.0094 -0.0351  0.0995
31167W        W37767   9.019   2.235  32.121  0.1444 -0.2389 -0.0330
31168W        W37768  17.594   0.324  11.252 -0.3245 -0.1400 -0.3460
31169W        W37769  25.916   2.097  25.541 -0.0697 -0.0746 -0.0899
31170W        W37770  15.156   6.240   8.673 -0.1205  0.0601 -0.1263
31171W        W37771   9.482   1.133  12.680  0.1023  0.0063 -0.1034
31172W        W37772  19.158   1.870  20.612  0.0524  0.2225 -0.2159
31173W        W37773  11.591   6.524  26.385 -0.2054 -0.2965  0.0779
31174W        W37774   8.580   5.508  28.765 -0.0660 -0.1189 -0.1125
31175W        W37775   9.502   5.607   6.624  0.0035  0.0600  0.0421
31176W        W37776  20.720   0.455  12.617  0.1396  0.1084  0.0591
31177W        W37777  14.200   4.893  25.152  0.1160 -0.1425 -0.0844
31178W        W37778  24.039   1.826  29.441  0.1257 -0.1381  0.0866
31179W        W37779   9.415   0.447  26.238 -0.1580  0.0246 -0.2081
31180W        W37780  13.350   5.397  31.694  0.1831 -0.0988 -0.1697
31181W        W37781   8.293   0.973  22.048 -0.1338 -0.1029 -0.0170
31182W        W37782  22.503   5.753  32.988 -0.1155 -0.1442 -0.2157
31183W        W37783   3.153   2.105  11.862 -0.1469 -0.2831 -0.2130
31184W        W37784   4.659   0.354  21.537 -0.0541  0.0656  0.2989
31185W        W37785   0.944   3.123   6.217  0.0423  0.0936  0.0913
31186W        W37786   4.412   0.218  13.039  0.1337  0.1359  0.2215
31187W        W37787   1.966   2.873  34.584  0.0937 -0.3186 -0.0577
31188W        W37788  23.714   2.718  12.940  0.0358 -0.1304  0.2423
31189W        W37789   5.660   1.614  24.380 -0.2023  0.1163  0.0643
31190W        W37790   1.738   3.185  32.651 -0.4013  0.1703  0.2998
31191W        W37791  22.544   1.874  10.263  0.0928 -0.1009  0.1392
31192W        W37792  11.112   3.472   7.694 -0.1414  0.3166 -0.4350
31193W        W37793  13.162   2.268   8.781  0.0360 -0.1594  0.2747
31194W        W37794  16.847   5.217  34.720  0.2367  0.1213  0.1034
31195W        W37795  14.417   4.986   1.314  0.3692 -0.3841 -0.0407
31196W        W37796  16.323   0.109   7.584 -0.0127 -0.0266 -0.2829
31197W        W37797  15.462   2.382   9.610  0.2046 -0.0397  0.0375
31198W        W37798  12.324   2.202  13.954 -0.0279 -0.0630  0.0998
31199W        W37799   0.878   3.201  26.803 -0.1946 -0.2619  0.1857
31200W        W37800  19.897   1.881  22.430 -0.2903 -0.2799  0.1229
31201W        W37801  18.964   5.248  14.681  0.3207 -0.0491 -0.0441
31202W        W37802   5.192   3.191   5.537  0.0566 -0.1866 -0.1689
31203W        W37803   9.016   3.526  32.024  0.2541 -0.0304 -0.1618
31204W        W37804   7.569   5.671  33.875  0.1206 -0.0110 -0.0982
31205W        W37805  14.795   0.603   2.693 -0.0162 -0.0565  0.0939
31206W        W37806   8.239   3.994  12.875  0.0759 -0.0444 -0.0146
31207W        W37807   3.581   5.561  13.114  0.2844 -0.1945  0.0404
31208W        W37808   3.010   6.223  12.489  0.0874 -0.3821  0.1740
31209W        W37809   1.763   0.972  20.086  0.1450  0.1517 -0.0161
31210W        W37810  13.053   5.222   2.479 -0.1834 -0.2556  0.1532
31211W        W37811  25.427   1.754  21.816 -0.0251 -0.4928  0.1462
31212W        W37812  23.925   1.385  29.612  0.1082 -0.1461 -0.1153
31213W        W37813  19.283   3.637  23.916 -0.1168 -0.0230  0.2524
31214W        W37814  25.388   5.115  32.789 -0.0044  0.3008 -0.0187
31215W        W37815   1.555   4.179   0.455 -0.2084  0.1014 -0.1361
31216W        W37816  12.072   3.223  34.196  0.2271 -0.1878 -0.2456
31217W        W37817   8.348   2.673  28.749  0.0563 -0.1029  0.2636
31218W        W37818  24.454   3.966  24.249  0.0841  0.2872 -0.2063
31219W        W37819  12.856   4.698   1.619 -0.1136  0.0775 -0.1554
31220W        W37820  13.527   0.267   1.987 -0.1499 -0.0539 -0.1232
31221W        W37821   6.541   5.011  22.543 -0.0081  0.0211  0.1084
31222W        W37822   3.091   5.014   2.224  0.0411  0.1092 -0.1583
31223W        W37823  20.174   1.718  33.385 -0.2200 -0.3196 -0.1737
31224W        W37824   1.048   3.500  34.227 -0.0018 -0.1477 -0.0318
31225W        W37825  12.149   6.180  33.754 -0.3241 -0.1220  0.2031
31226W        W37826   0.563   0.829  14.097 -0.4134 -0.1893 -0.0825
31227W        W37827  25.618   3.825  28.254  0.3252 -0.0502  0.2711
31228W        W37828   3.424   5.227   5.835 -0.2584 -0.1031 -0.2097
31229W        W37829   8.108   4.556  14.369 -0.1948 -0.1524 -0.0294
31230W        W37830   2.681   2.723   3.771  0.0358  0.0402  0.0480
31231W        W37831  11.354   2.474  33.060 -0.0862  0.0221  0.2599
31232W        W37832   2.080   4.675  35.660  0.1508  0.0168  0.2467
31233W        W37833   9.365   4.013  32.034 -0.2930 -0.2780 -0.2838
31234W        W37834   8.738   6.495   8.523  0.1119  0.0459 -0.3004
31235W        W37835  11.606   1.299   7.907 -0.1373  0.2503  0.2041
31236W        W37836  19.242   2.868  15.239 -0.0762  0.1403 -0.0016
31237W        W37837   0.257   3.662  10.485 -0.2130  0.0644  0.0656
31238W        W37838   4.366   1.944   2.521 -0.0728  0.1616  0.0302
31239W        W37839   8.505   6.305  35.876 -0.0385 -0.2807 -0.0206
31240W        W37840  23.592   1.050   9.126  0.0173 -0.2139  0.0219
31241W        W37841   1.280   4.655   4.160 -0.1132  0.3918  0.3456
31242W        W37842  18.148   2.749  35.058 -0.1459 -0.2563  0.0311
31243W        W37843   2.326   3.411  27.926 -0.0202  0.2391  0.1390
31244W        W37844  15.305   1.751  27.471  0.0770  0.0541  0.3502
31245W        W37845  16.434   1.453  14.453 -0.1370 -0.1468 -0.1175
31246W        W37846  20.680   6.151   6.995  0.1814  0.0373 -0.2563
31247W        W37847  25.261   5.484  23.966 -0.3280  0.0275 -0.0208
31248W        W37848  10.586   1.661   2.563  0.2186 -0.0653 -0.0601
31249W        W37849  20.742   4.869   4.336  0.0468 -0.1175 -0.1350
31250W        W37850   7.162   5.606   7.125 -0.0685  0.2339  0.1847
31251W        W37851   2.593   4.191   2.730  0.1625  0.0673  0.0034
31252W        W37852  21.377   3.278  14.515  0.3431 -0.0349  0.1638
31253W        W37853  14.104   4.109   3.220 -0.0624 -0.3108 -0.1154
31254W        W37854  12.080   3.810  15.188 -0.2173  0.1416 -0.1399
31255W        W37855   6.121   0.097   5.748  0.0454 -0.2959  0.3562
31256W        W37856   0.577   0.737   2.289  0.1067 -0.1192  0.3516
31257W        W37857   9.411   2.850   1.495  0.2442 -0.1684 -0.1593
31258W        W37858  25.420   6.534  25.326 -0.1953 -0.3484  0.1248
31259W        W37859  22.997   4.017  11.632 -0.1152  0.3235 -0.1055
31260W        W37860  10.019   2.134  23.804  0.2529 -0.0397  0.0321
31261W        W37861   5.904   5.176   3.899  0.0302 -0.2895 -0.1089
31262W        W37862  21.209   2.858   7.719  0.4013  0.1079 -0.2095
31263W        W37863  15.215   4.147  10.647  0.1634  0.2321  0.2293
31264W        W37864   1.363   5.470   1.511  0.1503 -0.0893 -0.1450
31265W        W37865  18.413   1.842  33.344 -0.3135  0.1649  0.5232
31266W        W37866   2.556   2.944  32.797  0.4394 -0.2097  0.1279
31267W        W37867  16.191   6.407  11.241  0.0332  0.0183  0.0466
31268W        W37868  15.394   2.040  12.737 -0.0897  0.0449 -0.1536
31269W        W37869  15.755   5.112   4.230 -0.0751  0.1790  0.0740
31270W        W37870   1.550   6.385  25.564 -0.3505 -0.1153  0.1457
31271W        W37871  16.622   4.646  34.949  0.2389  0.1697 -0.0460
31272W        W37872  17.541   3.811   5.540  0.2646  0.0542 -0.1510
31273W        W37873  18.511   0.996   5.761 -0.0329  0.0397  0.1335
31274W        W37874   7.708   4.985  24.170  0.1850  0.0635 -0.3426
31275W        W37875  13.374   4.005   6.768  0.3011  0.0806 -0.2285
31276W        W37876  13.894   4.067   7.233  0.2866  0.2063  0.1207
31277W        W37877   5.609   4.139   7.914  0.3700  0.0790 -0.1226
31278W        W37878   2.885   4.486  29.960 -0.3586 -0.0098  0.3155
31279W        W37879  12.968   4.921  29.815 -0.0229  0.4101  0.3499
31280W        W37880   0.676   1.270  14.842  0.0381  0.1258  0.0407
31281W        W37881  16.687   2.603  12.265  0.0268 -0.0576 -0.1140
31282W        W37882  16.611   1.274  25.160  0.2769 -0.0207  0.1433
31283W        W37883   7.283   1.356  25.463  0.1661  0.2009  0.0511
31284W        W37884   6.473   4.013   5.584  0.2095 -0.1133  0.0651
31285W        W37885   6.712   5.359   9.427  0.1665 -0.1401  0.2590
31286W        W37886   4.644   5.695  21.676 -0.0185 -0.0689 -0.2222
31287W        W37887  24.468   5.177  12.029  0.4123  0.0980  0.3438
31288W        W37888  17.270   5.364  14.314  0.1995  0.1362  0.1219
31289W        W37889   1.497   6.226  34.005 -0.3362 -0.1479  0.1208
31290W        W37890   7.752   6.378   3.683  0.1053  0.0557 -0.1017
31291W        W37891  21.268   0.582  20.575  0.1424  0.0727 -0.0830
31292W        W37892  12.929   4.778   3.242 -0.0354  0.0409  0.0812
31293W        W37893   3.185   5.981  22.546 -0.2736  0.1907  0.1745
31294W        W37894  19.902   2.910  24.269 -0.1034  0.0031 -0.1746
31295W        W37895  14.508   3.780  25.964  0.1600  0.0736 -0.2275
31296W        W37896   5.718   4.459   4.031  0.3389  0.0050  0.0475
31297W        W37897   9.287   5.301  30.980  0.1233 -0.2491  0.0681
31298W        W37898  25.129   2.612   7.784 -0.2503  0.1055  0.1397
31299W        W37899   1.670   5.963  12.804 -0.2770 -0.3553 -0.1240
31300W        W37900   0.237   1.912  25.976  0.6773  0.1226 -0.2197
31301W        W37901  11.957   5.560  29.520 -0.1230 -0.0472 -0.2814
31302W        W37902   8.750   5.427  27.399 -0.1374  0.2100 -0.0624
31303W        W37903  12.552   5.128  35.945  0.0153  0.2489 -0.1287
31304W        W37904  12.179   4.918   3.776  0.0693  0.0180 -0.2615
31305W        W37905   6.311   3.112  10.043  0.1554 -0.0228  0.1674
31306W        W37906  23.048   0.040  27.039  0.0842 -0.1051 -0.0587
31307W        W37907  25.741   3.866   1.914  0.0980 -0.1107 -0.1536
31308W        W37908  23.532   1.453   4.765  0.1473  0.3282  0.1476
31309W        W37909   6.191   6.216  35.208 -0.0285  0.1467  0.0393
31310W        W37910   6.957   6.273   4.288 -0.1427 -0.4064 -0.0618
31311W        W37911  14.151   5.062  14.448 -0.3815 -0.1848  0.1512
31312W        W37912  24.248   2.591   1.780 -0.0714 -0.2608  0.0264
31313W        W37913  12.013   1.897   9.712 -0.0405 -0.1885  0.0489
31314W        W37914   0.027   3.752  22.439  0.2349  0.2837 -0.1993
31315W        W37915  25.854   5.347  35.805  0.2157  0.1445 -0.2290
31316W        W37916  20.021   6.126   2.559 -0.0319  0.1986  0.1555
31317W        W37917   6.048   6.496   4.228  0.1811  0.0271 -0.3435
31318W        W37918   1.483   0.516   6.916 -0.2291 -0.3071  0.1517
31319W        W37919  17.662   5.530  22.187 -0.0618 -0.0978 -0.1599
31320W        W37920   9.467   2.301   8.977  0.1793  0.2004  0.2230
31321W        W37921  12.312   5.259  33.477 -0.1794  0.1653  0.0722
31322W        W37922  18.140   0.187  25.058  0.0369  0.0693  0.0857
31323W        W37923  25.352   2.696   8.273  0.0725  0.0278 -0.2381
31324W        W37924  23.159   5.857   8.018  0.2911 -0.2288 -0.2196
31325W        W37925  24.865   2.160  31.521 -0.2099 -0.2263  0.4034
31326W        W37926   0.742   4.887   7.535 -0.0365 -0.4496 -0.2209
31327W        W37927  15.229   2.300  26.219 -0.0039 -0.0204  0.1872
31328W        W37928   9.448   6.344   0.247  0.0302  0.0720 -0.0759
31329W        W37929  24.592   0.626  29.759  0.2597  0.2138 -0.1301
31330W        W37930  22.441   5.188   4.281  0.2130  0.0024  0.1261
31331W        W37931  20.401   1.445   2.490 -0.2403  0.2406 -0.1260
31332W        W37932  13.917   1.282  21.246  0.0705  0.1029  0.3827
31333W        W37933   7.464   1.058   9.359  0.0408 -0.0078  0.0113
31334W        W37934  19.801   2.222  23.567 -0.0634 -0.3413  0.0718
31335W        W37935  20.009   1.571   3.314  0.1582 -0.1911 -0.2366
31336W        W37936   3.844   0.865  27.368 -0.3858  0.0429 -0.0828
31337W        W37937   9.352   0.018   4.245  0.3725 -0.0422  0.0147
31338W        W37938   4.546   5.912   6.105 -0.1708 -0.0326  0.0854
31339W        W37939  25.836   5.443  28.987 -0.0423 -0.1079  0.3251
31340W        W37940   7.865   1.595  31.281  0.1291  0.0030  0.1054
31341W        W37941   1.415   3.810  13.146 -0.1388 -0.0453 -0.0440
31342W        W37942  10.481   3.483  31.380  0.0799 -0.3734  0.2326
31343W        W37943   1.250   5.246  11.574 -0.1990  0.4839  0.1555
31344W        W37944  17.138   2.025  10.697  0.1609 -0.0156 -0.2810
31345W        W37945   9.487   4.877  30.792 -0.1682  0.1782  0.2612
31346W        W37946  10.458   1.041   7.532  0.2166  0.2350 -0.0796
31347W        W37947   6.673   5.705  29.476  0.0707  0.2696 -0.1501
31348W        W37948  15.180   6.148   5.639  0.0397 -0.0446  0.2775
31349W        W37949   6.922   1.217   6.078 -0.1027 -0.0383  0.0668
31350W        W37950  26.393   3.589  31.840 -0.2071 -0.4146  0.0744
31351W        W37951  23.228   1.611   2.087  0.0490 -0.2477 -0.3028
31352W        W37952  11.392   2.618  21.447 -0.0826  0.0390  0.1193
31353W        W37953  11.117   0.694   3.066 -0.1272  0.1152 -0.1165
31354W        W37954   6.806   5.828  26.991 -0.0963  0.4244  0.0263
31355W        W37955   6.614   2.856  21.430  0.0968 -0.2113  0.1376
31356W        W37956  21.095   1.431  12.169 -0.0315 -0.1185  0.0611
31357W        W37957  11.964   6.211   5.338  0.0290  0.1341  0.1079
31358W        W37958   7.087   4.373  33.829  0.0457 -0.0597 -0.0383
31359W        W37959  26.402   1.108  35.911  0.0262 -0.2089 -0.0548
31360W        W37960  24.966   3.784  29.329  0.0315 -0.0492  0.0202
31361W        W37961  22.076   0.721  27.963 -0.0500 -0.1607 -0.0193
31362W        W37962  20.660   3.544   1.273  0.0148  0.1492 -0.0752
31363W        W37963  10.653   4.642  34.056  0.0799  0.2401 -0.3602
31364W        W37964  24.222   1.234  32.876  0.1364 -0.1507 -0.3641
31365W        W37965   7.859   3.488   1.126 -0.0429 -0.1690  0.0207
31366W        W37966  17.852   5.648  23.258  0.3814  0.0091  0.3621
31367W        W37967   8.924   1.363  12.939 -0.3982  0.2090 -0.0785
31368W        W37968  11.401   5.913  30.815 -0.0687 -0.0165 -0.2710
31369W        W37969  10.687   2.708  32.379  0.0622 -0.0878 -0.3082
31370W        W37970   3.123   5.272  34.187 -0.0615  0.2553 -0.0214
31371W        W37971   9.030   4.815  31.888  0.4044 -0.1550  0.0399
31372W        W37972  10.624   4.473  35.766  0.0714  0.5080 -0.0695
31373W        W37973   8.352   0.195  29.870  0.2379 -0.0891  0.1614
31374W        W37974  21.684   5.860   3.947 -0.2943  0.1385  0.0193
31375W        W37975  12.013   1.217   1.695  0.0002  0.1101  0.1468
31376W        W37976  18.170   0.095  10.479 -0.0150 -0.2388 -0.1878
31377W        W37977   1.010   1.790  31.345 -0.1135 -0.0154  0.0549
31378W        W37978  25.015   5.190   5.644  0.1644 -0.3466 -0.0992
31379W        W37979  20.035   4.130  31.702  0.0788  0.2920 -0.1093
31380W        W37980  12.568   3.934  33.118  0.1747 -0.1943 -0.0533
31381W        W37981  24.025   3.759  14.196  0.2374  0.0404  0.0659
31382W        W37982  12.287   4.749   7.816  0.0706  0.3611  0.0247
31383W        W37983  15.853   4.190  14.456 -0.0166  0.0668 -0.0229
31384W        W37984  24.181   4.181  28.043 -0.2437  0.1845 -0.1978
31385W        W37985  17.656   4.934  31.464 -0.0790 -0.1161  0.1977
31386W        W37986  15.803   5.446  33.073  0.0819  0.0975 -0.1074
31387W        W37987   4.858   3.928  24.998  0.2241 -0.1861  0.1472
31388W        W37988   8.703   3.094  35.226 -0.0062  0.2471  0.3065
31389W        W37989   9.198   0.820  31.287 -0.0029  0.4348  0.0884
31390W        W37990  13.940   3.362  24.032  0.1222 -0.1040  0.0098
31391W        W37991  15.263   5.659  15.092  0.1165  0.0609  0.0793
31392W        W37992   4.324   3.337   8.059 -0.0894  0.0582 -0.2849
31393W        W37993   4.133   0.652  31.104 -0.0842  0.2783  0.2102
31394W        W37994  21.042   6.094  14.915  0.0438  0.0408 -0.0896
31395W        W37995   0.322   2.073   1.627 -0.1959 -0.0298 -0.0795
31396W        W37996  22.637   0.265  34.226  0.0968 -0.1943 -0.0626
31397W        W37997  25.639   0.527   5.477  0.1465 -0.4461  0.0401
31398W        W37998   8.655   3.446  11.538  0.0393  0.1326  0.2935
31399W        W37999  11.937   0.836  35.215  0.3624  0.2022  0.0496
31400W        W38000  26.225   3.335  20.502  0.0623 -0.0135 -0.0638
31401W        W38001   8.607   6.340   3.170  0.1588  0.2840 -0.1960
31402W        W38002  22.623   5.418  14.405 -0.0017 -0.2987 -0.1660
31403W        W38003  19.201   2.856   9.363  0.0558  0.0223 -0.3269
31404W        W38004  24.219   4.690  15.309 -0.1531 -0.0891 -0.0120
31405W        W38005  25.454   6.252  26.397  0.3415  0.0883 -0.2855
31406W        W38006  18.581   1.742  11.553  0.0291  0.1165  0.0796
31407W        W38007   2.875   1.389   9.789 -0.2292  0.2247  0.1744
31408W        W38008  15.246   3.091  14.021 -0.1828  0.1582 -0.4034
31409W        W38009  11.921   0.242  34.441 -0.0225  0.1921  0.1615
31410W        W38010  20.009   6.592  20.463  0.2055 -0.0543  0.1254
31411W        W38011   4.069   4.942  22.679 -0.1355  0.2707  0.1900
31412W        W38012  15.529   3.028  30.357  0.0476 -0.1903  0.3271
31413W        W38013  20.606   4.819  32.295  0.2965 -0.1621 -0.1232
31414W        W38014   4.183   4.173  35.049 -0.3693  0.0849 -0.2514
31415W        W38015  23.034   4.231  25.373  0.2560 -0.1245 -0.1373
31416W        W38016  13.476   3.670  29.526 -0.1296 -0.0926  0.0293
31417W        W38017   8.282   1.440  22.767 -0.0763 -0.0091  0.0625
31418W        W38018  24.460   5.227  22.159  0.2494  0.0867 -0.1201
31419W        W38019   4.336   0.769  27.350  0.1199  0.0917 -0.2481
31420W        W38020   7.837   1.959   9.758 -0.4093  0.2628 -0.0829
31421W        W38021  14.813   4.032  23.598 -0.2667 -0.1019  0.1537
31422W        W38022   3.574   2.695  14.710 -0.0958 -0.1104  0.1086
31423W        W38023  16.401   4.528   7.323  0.0974  0.0272 -0.0296
31424W        W38024  14.927   3.424  30.916 -0.2021 -0.0047  0.3741
31425W        W38025  22.343   3.939   7.003  0.2570 -0.0728 -0.2905
31426W        W38026  25.076   1.216   4.999 -0.0729 -0.0134  0.0942
31427W        W38027  22.588   2.038  12.389  0.2509 -0.4048 -0.0946
31428W        W38028   5.502   4.314  10.803 -0.1386  0.0281 -0.0134
31429W        W38029   3.539   5.988  34.606 -0.0078 -0.1652  0.2929
31430W        W38030   2.068   2.111  25.481 -0.1930  0.1229  0.0168
31431W        W38031  26.208   6.230  29.424 -0.3447 -0.0554 -0.0839
31432W        W38032  18.585   5.911  32.596 -0.2721 -0.1199  0.1196
31433W        W38033   1.258   6.406  33.038  0.1483  0.1394 -0.1218
31434W        W38034  11.388   5.085   7.599  0.0252  0.0788 -0.1050
31435W        W38035  18.392   1.657   1.656  0.1491  0.2990  0.0197
31436W        W38036   7.926   4.696   6.687  0.0132  0.1462  0.1069
31437W        W38037   9.204   6.028   9.263 -0.1457  0.1862 -0.1138
31438W        W38038  17.548   4.933  30.851 -0.1487  0.1000 -0.0765
31439W        W38039  16.792   2.049   3.995 -0.1584  0.0346  0.0167
31440W        W38040  25.604   2.696  11.575  0.0385 -0.1631  0.0029
31441W        W38041  22.663   1.191   7.208 -0.1317  0.0029  0.0251
31442W        W38042  19.456   1.175   6.118 -0.1265  0.2381 -0.0892
31443W        W38043  12.796   1.660  35.878 -0.0849 -0.2000  0.1041
31444W        W38044  25.222   4.846  25.903  0.0405  0.0322 -0.1726
31445W        W38045   1.618   4.734   0.838  0.0447 -0.2089 -0.0030
31446W        W38046  14.957   5.993  33.376 -0.1106 -0.2758  0.2252
31447W        W38047  18.575   2.300  28.767 -0.1726  0.3939 -0.0598
31448W        W38048   4.323   6.231   3.707 -0.1647  0.0218  0.0248
31449W        W38049   6.798   3.395  23.676  0.1320 -0.0825  0.1680
31450W        W38050   0.656   4.738  35.248  0.0227 -0.0073  0.0715
31451W        W38051  13.510   1.733   1.474 -0.0345 -0.1431 -0.1172
31452W        W38052   7.984   2.876  23.665  0.3855  0.1122  0.0787
31453W        W38053   0.898   3.381  35.543  0.2327  0.1056  0.0795
31454W        W38054  14.183   4.550  31.407 -0.0561  0.1793 -0.0997
31455W        W38055  23.366   3.984  20.906  0.3495 -0.1248 -0.2560
31456W        W38056  25.846   4.576  14.694  0.2373 -0.1330  0.4675
31457W        W38057  21.869   2.594  10.670  0.1577 -0.1923  0.1388
31458W        W38058   6.355   3.996  35.673 -0.1781 -0.0285  0.0137
31459W        W38059  17.287   1.858   2.731 -0.2432 -0.1099 -0.2314
31460W        W38060  22.352   1.425  22.740 -0.0824  0.1226  0.0730
31461W        W38061  11.271   2.685   5.727  0.2751  0.1538 -0.2351
31462W        W38062  15.136   4.010  30.311 -0.0839  0.0205  0.1079
31463W        W38063  13.089   3.759  11.485  0.0163 -0.0118  0.0979
31464W        W38064   3.758   5.086  12.447  0.3677 -0.2480  0.0697
31465W        W38065  24.546   5.384  25.659  0.2468 -0.1433 -0.0648
31466W        W38066  25.035   4.621  14.230  0.0471 -0.1091  0.1758
31467W        W38067  10.936   0.780  14.934 -0.2657  0.0799 -0.0278
31468W        W38068  22.376   3.214  13.101 -0.0530  0.0404  0.1657
31469W        W38069  10.343   4.116  26.557 -0.2132  0.3027  0.1446
31470W        W38070  20.821   1.924  28.365 -0.0313  0.1485  0.1326
31471W        W38071   8.506   0.482  22.451 -0.2040  0.2030  0.3087
31472W        W38072  19.448   4.187  31.350  0.1422 -0.1869 -0.0263
31473W        W38073  24.237   2.358   3.527  0.3647  0.1080  0.0900
31474W        W38074  15.292   2.835   9.362  0.1798 -0.2967 -0.2746
31475W        W38075  14.284   2.813   0.395 -0.3030 -0.1876 -0.0901
31476W        W38076  17.450   4.775   3.562  0.2347 -0.0948  0.0048
31477W        W38077   8.959   4.372  23.648 -0.3670  0.0489  0.2519
31478W        W38078   6.373   3.748   6.579 -0.0141  0.0162 -0.0867
31479W        W38079  24.839   0.874  13.170  0.0612 -0.1422  0.1710
31480W        W38080   6.512   0.163   9.884  0.2950  0.0751  0.0354
31481W        W38081   4.822   2.073  35.905 -0.0979 -0.3172 -0.0018
31482W        W38082  12.336   6.219  28.726  0.0716 -0.0529  0.3022
31483W        W38083   6.745   0.290  15.316  0.0145 -0.0228 -0.1577
31484W        W38084  22.924   4.862  35.765 -0.3514  0.2397 -0.6262
31485W        W38085   0.749   2.075  35.215  0.1993  0.1664  0.1055
31486W        W38086  18.159   4.457  25.542  0.0366  0.4603 -0.1410
31487W        W38087  11.183   3.831   3.798 -0.0091  0.3502 -0.1137
31488W        W38088  11.950   5.970  11.701  0.0041  0.0908  0.3968
31489W        W38089   8.746   1.330  33.745  0.2051  0.1273  0.1964
31490W        W38090  24.370   3.104  28.361  0.1771  0.2483 -0.0114
31491W        W38091  24.042   4.097  10.418 -0.1862 -0.1734  0.1736
31492W        W38092  11.873   4.612  14.690 -0.0459 -0.0858  0.3282
31493W        W38093  14.379   5.649   8.505  0.0747  0.0029  0.0353
31494W        W38094  16.894   0.811   6.813  0.3321  0.0586  0.1292
31495W        W38095  21.655   5.147  34.756  0.6878 -0.0629  0.2451
31496W        W38096   8.973   0.919   2.739 -0.1251 -0.2305  0.0094
31497W        W38097   0.198   0.705  28.049 -0.1409  0.2587 -0.1110
31498W        W38098  11.895   4.857   1.775  0.4018 -0.1915  0.1552
31499W        W38099  11.989   1.688   6.099  0.1294 -0.0073  0.0433
31500W        W38100  18.805   5.613  14.337 -0.0468 -0.1047 -0.0579
31501W        W38101  10.442   3.278  34.109  0.0640 -0.1381  0.1137
31502W        W38102   0.349   5.279  20.195  0.0559 -0.0600 -0.0032
31503W        W38103   9.739   3.191  33.619 -0.0395  0.1928  0.0406
31504W        W38104   8.822   1.152  33.147  0.1159  0.0962 -0.4653
31505W        W38105  21.869   0.039  27.115  0.1047  0.1383 -0.0935
31506W        W38106  19.761   3.961  36.037  0.2599 -0.1443  0.1935
31507W        W38107  18.196   6.191   3.616 -0.1916  0.1423  0.0334
31508W        W38108  24.903   3.397  15.816  0.0643  0.3999  0.2070
31509W        W38109  16.808   6.353   0.669  0.1766 -0.0143  0.0318
31510W        W38110   8.326   3.680  24.989 -0.2355 -0.1665  0.0705
31511W        W38111  10.369   5.783  32.515 -0.2276 -0.1171 -0.2227
31512W        W38112   0.889   1.647  23.115 -0.1827 -0.0312  0.3136
31513W        W38113  11.854   3.950   2.897  0.3446  0.1353  0.0769
31514W        W38114  15.011   2.342  25.222  0.0510  0.1999  0.1909
31515W        W38115  24.802   2.680   2.679  0.1074  0.1373  0.0855
31516W        W38116   9.243   6.508  26.218 -0.0872 -0.2769 -0.1590
31517W        W38117  23.912   4.100  35.075 -0.0610  0.3678 -0.0429
31518W        W38118  16.086   1.176   2.652  0.2318  0.1528  0.0179
31519W        W38119  17.509   6.386  27.760  0.1819 -0.0940 -0.2918
31520W        W38120  10.950   1.204  20.777  0.2238  0.1460  0.1262
31521W        W38121  20.694   6.342  33.381  0.1113 -0.1447  0.0437
31522W        W38122   9.143   6.196   0.592 -0.1255 -0.1440 -0.2454
31523W        W38123  26.147   3.908  28.861  0.2837  0.1484  0.0840
31524W        W38124  17.236   6.446  26.111  0.1225  0.0167 -0.0951
31525W        W38125  18.086   6.574   1.301  0.1251  0.3013  0.2255
31526W        W38126  11.602   5.642   6.358  0.0822  0.0043  0.0862
31527W        W38127  15.966   3.841  10.518  0.0436  0.3401  0.0056
31528W        W38128  10.539   0.739  35.630 -0.0636 -0.0864  0.0263
31529W        W38129   2.741   2.268  21.671 -0.1456  0.0774  0.1108
31530W        W38130   4.399   6.022  30.239  0.0216 -0.0995  0.2772
31531W        W38131   8.192   2.263  34.722 -0.1124 -0.3008 -0.2281
31532W        W38132  16.671   2.339  34.886  0.0547  0.0068 -0.2436
31533W        W38133  13.643   2.205  30.516 -0.2262  0.1107  0.2124
31534W        W38134  18.461   4.057  22.076 -0.4695  0.0646 -0.1119
31535W        W38135   8.659   4.234  31.746  0.3104 -0.1971 -0.2728
31536W        W38136  23.990   4.915   7.095  0.0063 -0.1781  0.2163
31537W        W38137   2.432   6.036  26.638 -0.1699  0.3026 -0.1692
31538W        W38138  11.556   4.468   8.976 -0.1440  0.1053  0.1305
31539W        W38139  13.805   2.683  12.843 -0.2329  0.0086  0.0918
31540W        W38140  25.459   5.899  32.817 -0.0152 -0.0769  0.1216
31541W        W38141  19.617   5.143   0.031 -0.0133 -0.1173 -0.3745
31542W        W38142   0.432   6.471  24.413  0.2109  0.0561  0.1626
31543W        W38143  17.899   6.533  31.005 -0.1456  0.0338 -0.0270
31544W        W38144  21.745   2.467   3.363  0.2152 -0.2721  0.0597
31545W        W38145  15.207   1.424   3.122 -0.1436 -0.4031 -0.0648
31546W        W38146  15.893   5.587   6.766  0.0282  0.1910  0.1950
31547W        W38147  13.218   3.468  14.067  0.1773  0.0489  0.1727
31548W        W38148  24.934   4.524  21.495 -0.0013  0.3060  0.0763
31549W        W38149  10.503   0.550  34.479  0.1402  0.2409  0.1397
31550W        W38150  17.960   6.082  26.613  0.2328 -0.0608 -0.2272
31551W        W38151   3.865   2.044   1.288 -0.1959  0.1007  0.0764
31552W        W38152  16.994   1.114  29.275  0.0199  0.2939  0.1271
31553W        W38153  16.203   0.907  29.780  0.0739 -0.0057 -0.0586
31554W        W38154  13.575   5.049  12.014  0.4332  0.0081 -0.1114
31555W        W38155   8.873   5.737   2.597 -0.0587  0.1728 -0.1869
31556W        W38156  10.695   2.040   6.571 -0.0245  0.2991 -0.2705
31557W        W38157  14.758   2.196   8.772 -0.0664 -0.0750 -0.3760
31558W        W38158   5.857   3.854  10.475 -0.0642 -0.1310 -0.3231
31559W        W38159  15.386   1.695  28.839  0.0598 -0.2166 -0.0303
31560W        W38160   8.412   1.284   6.686  0.1407  0.0121  0.2487
31561W        W38161  15.403   3.315   9.276 -0.3217 -0.1084 -0.1311
31562W        W38162  25.454   4.585  30.209  0.0380  0.2241  0.0720
31563W        W38163  11.142   1.255   1.315  0.2074  0.0059  0.3794
31564W        W38164   1.352   4.804  13.537  0.2181  0.0942  0.3201
31565W        W38165   2.786   4.422   1.514 -0.0825  0.2804 -0.1964
31566W        W38166  23.913   3.125  27.254  0.1399  0.0107 -0.1712
31567W        W38167  15.422   0.917  15.504 -0.0165 -0.0030 -0.0713
31568W        W38168  14.845   2.224   3.347 -0.2654 -0.1362 -0.1483
31569W        W38169  14.428   6.109  31.198 -0.0057 -0.0095 -0.1555
31570W        W38170  22.010   0.672  28.451 -0.1364  0.0137 -0.0135
31571W        W38171  17.934   4.023  12.280  0.0846  0.2816  0.0974
31572W        W38172  23.032   6.054   1.224 -0.1063 -0.0276 -0.0136
31573W        W38173  17.367   3.248  14.135 -0.0347  0.2427  0.2206
31574W        W38174   9.256   4.125  25.043  0.2219 -0.0004  0.0995
31575W        W38175   3.978   4.769   1.732  0.0834  0.4212  0.1634
31576W        W38176  25.543   3.351   7.521 -0.1423  0.2057 -0.1668
31577W        W38177  17.422   1.463  29.627  0.2165 -0.1667  0.0705
31578W        W38178   3.981   4.481  34.495 -0.0562  0.4538  0.0937
31579W        W38179   7.828   2.255  26.390  0.1832 -0.1803 -0.0570
31580W        W38180  11.151   1.830  13.982 -0.1263 -0.0079 -0.1206
31581W        W38181   5.418   1.116   9.841  0.0193  0.0758  0.1985
31582W        W38182   8.297   0.633  34.342 -0.1983 -0.2818  0.1546
31583W        W38183   9.378   4.897  20.359  0.0384 -0.0425 -0.0988
31584W        W38184  25.676   3.206   4.062 -0.1265  0.1255  0.0510
31585W        W38185   7.160   4.833   6.222 -0.1589 -0.0335 -0.2759
31586W        W38186  16.726   0.523  28.466  0.0374  0.1599 -0.1354
31587W        W38187   7.688   1.682  13.989 -0.1255  0.0363  0.0903
31588W        W38188   1.716   1.700  23.590  0.0972 -0.1260  0.2638
31589W        W38189   5.771   3.577   6.393 -0.1650  0.0597 -0.0736
31590W        W38190  18.851   5.666  11.453 -0.0492  0.2693 -0.0989
31591W        W38191  13.495   3.729  26.054  0.1088 -0.2108 -0.2540
31592W        W38192  16.384   0.194  13.137 -0.0440  0.1608 -0.1889
31593W        W38193   8.051   5.275  11.055 -0.1599  0.0246 -0.0657
31594W        W38194  22.701   0.428  15.619 -0.3893 -0.0446 -0.1608
31595W        W38195  24.218   6.333  25.842  0.3169 -0.2220  0.2086
31596W        W38196   0.008   1.922   2.559  0.1862  0.0513  0.0081
31597W        W38197   7.819   1.758  30.534 -0.2784  0.2326 -0.0626
31598W        W38198  21.734   0.675   0.929  0.1686 -0.1960  0.2433
31599W        W38199  16.881   5.930  13.266 -0.0779 -0.0642  0.0652
31600W        W38200  24.240   6.337  23.792 -0.0967 -0.0056  0.3257
31601W        W38201  16.247   0.166  30.160 -0.0681  0.0524  0.3315
31602W        W38202   6.975   4.364   7.794  0.3221  0.2261  0.1122
31603W        W38203   1.214   5.897   7.613  0.1323 -0.1643 -0.0021
31604W        W38204  17.613   1.144  25.295 -0.0232 -0.0870  0.3422
31605W        W38205  23.396   4.653  34.577  0.0255  0.3093 -0.2559
31606W        W38206   5.277   3.468  30.856  0.1239 -0.0719  0.0464
31607W        W38207  20.658   3.928   4.723  0.1417 -0.2034  0.4624
31608W        W38208  24.767   4.978  12.541 -0.0147 -0.0267 -0.2023
31609W        W38209  16.493   1.858  11.643 -0.1049 -0.1251 -0.0703
31610W        W38210  21.773   1.668  34.998 -0.2825 -0.0985  0.1513
31611W        W38211  15.100   4.141  31.172 -0.0785 -0.3598 -0.1574
31612W        W38212  21.164   5.186  27.788 -0.1320  0.1125 -0.0890
31613W        W38213  14.051   3.994  15.626  0.0634  0.2650 -0.2728
31614W        W38214  18.554   0.810   0.512 -0.0237  0.1951 -0.2778
31615W        W38215   1.835   3.716  32.718 -0.2631 -0.0399  0.2653
31616W        W38216  12.794   5.742  12.542  0.0131  0.3500  0.1232
31617W        W38217  25.516   1.557   9.859 -0.0457  0.0946 -0.1781
31618W        W38218   2.243   3.427   0.460 -0.1635  0.1395  0.4251
31619W        W38219  19.678   0.211  20.139  0.1107  0.2864  0.0571
31620W        W38220   2.892   4.547   8.516 -0.0752  0.2815 -0.4235
31621W        W38221  18.239   6.441  20.438 -0.1757  0.2703 -0.0079
31622W        W38222   5.838   6.148  21.027  0.2559  0.4347  0.0212
31623W        W38223  24.444   5.311  27.620  0.1251 -0.1585  0.0652
31624W        W38224  15.479   0.346  10.978 -0.0138 -0.0296 -0.3614
31625W        W38225   7.132   3.707   8.326 -0.0962  0.0590 -0.1767
31626W        W38226   0.773   1.633   3.974 -0.1552 -0.1316 -0.1966
31627W        W38227  18.275   6.529  33.204 -0.0182 -0.0600 -0.2172
31628W        W38228   0.736   1.400   1.357  0.0252 -0.0808 -0.2000
31629W        W38229  22.896   3.525   5.761  0.2044  0.3673 -0.1135
31630W        W38230   7.270   3.718   9.261  0.0027 -0.1426 -0.2657
31631W        W38231   1.354   1.752  29.379 -0.1934  0.1051 -0.1965
31632W        W38232  16.324   1.524  21.711 -0.1912  0.0076 -0.1012
31633W        W38233   5.936   3.441   3.554 -0.1018 -0.1894 -0.1279
31634W        W38234  15.315   3.280   8.083 -0.0614 -0.0680 -0.3950
31635W        W38235  20.503   0.249  10.161 -0.1377  0.2290 -0.1063
31636W        W38236  13.137   0.102  35.850  0.1796 -0.1624  0.3679
31637W        W38237   3.689   0.071  24.338 -0.3581 -0.2483  0.1623
31638W        W38238   3.906   2.625  25.382 -0.1719  0.1120 -0.1962
31639W        W38239  20.286   4.700  23.672  0.1022  0.0854  0.0325
31640W        W38240  26.145   5.133  12.854  0.0608 -0.0154 -0.0041
31641W        W38241   8.100   5.638   5.283 -0.1596  0.0060 -0.2119
31642W        W38242  16.182   4.548   1.737  0.0150 -0.0918  0.0912
31643W        W38243  23.529   5.019  29.677  0.0745 -0.0999  0.0380
31644W        W38244   2.583   1.177  35.392  0.1693 -0.0633 -0.3165
31645W        W38245  14.311   6.468  14.729 -0.1317 -0.2433  0.3729
31646W        W38246  15.558   2.609  33.216 -0.0283  0.0795  0.0829
31647W        W38247  16.641   1.379  28.959 -0.1297 -0.0797 -0.0270
31648W        W38248   9.767   2.791  21.033  0.2188  0.0253  0.1817
31649W        W38249  24.082   3.208   2.882 -0.1737 -0.1596  0.0911
31650W        W38250  22.969   0.066  34.607 -0.1486  0.2197 -0.0530
31651W        W38251  11.469   6.352   3.126 -0.2491  0.0465  0.1086
31652W        W38252   0.015   2.407  35.627  0.2293 -0.2473  0.0057
31653W        W38253  24.935   4.768   1.097 -0.0330  0.1328  0.0831
31654W        W38254  15.712   3.177  13.452  0.3509 -0.1457  0.1291
31655W        W38255  22.611   2.360   8.795 -0.2933  0.1408  0.1285
31656W        W38256  15.888   1.932   5.869 -0.0279  0.0238  0.1200
31657W        W38257   9.296   4.841   5.589  0.0836 -0.5491 -0.0777
31658W        W38258  14.689   2.445   5.986  0.0640  0.1848 -0.1732
31659W        W38259  13.461   2.782  31.291  0.0002 -0.2088  0.0966
31660W        W38260  19.144   2.730  30.443  0.1721  0.1177  0.0988
31661W        W38261   4.408   6.200   8.261  0.1778 -0.1679 -0.1523
31662W        W38262  11.433   1.682  29.327  0.0180  0.0348  0.0718
31663W        W38263  25.846   2.484  31.061  0.2307  0.0345 -0.2300
31664W        W38264   1.428   3.947  23.171 -0.0205  0.2097  0.2568
31665W        W38265  19.142   5.045   8.385  0.1278 -0.1986 -0.2077
31666W        W38266  26.177   4.256  35.050  0.1122  0.1727 -0.0943
31667W        W38267  20.240   2.910  11.156 -0.0407  0.1011  0.0604
31668W        W38268   7.903   6.143   2.013 -0.1344  0.1310 -0.0079
31669W        W38269  19.691   5.196  32.307  0.4978 -0.5758  0.3436
31670W        W38270   9.506   5.431   4.353  0.1992  0.0672 -0.1270
31671W        W38271  16.851   4.503  25.302  0.0233  0.2092  0.2326
31672W        W38272   8.056   2.309  25.836 -0.0468  0.0018 -0.2304
31673W        W38273  18.912   3.451  14.049 -0.1421  0.0282  0.0325
31674W        W38274   2.239   3.974  34.882  0.0291  0.3534  0.0822
31675W        W38275  13.043   1.005  27.984  0.0795  0.0009  0.2553
31676W        W38276   8.282   2.030   7.390 -0.0338  0.0315  0.3736
31677W        W38277   0.332   5.050  32.763 -0.2711  0.0673  0.0887
31678W        W38278  13.998   3.341  31.273  0.2062  0.0976 -0.1081
31679W        W38279  23.484   4.065   8.568  0.1633 -0.2377  0.0517
31680W        W38280  16.444   4.497   4.351  0.2165 -0.1215 -0.0238
31681W        W38281  12.190   3.997   3.533 -0.1064 -0.1172  0.0914
31682W        W38282  21.955   2.502  20.315 -0.0460  0.3043 -0.2763
31683W        W38283  24.174   3.804  21.506  0.0845  0.0270 -0.0505
31684W        W38284  15.812   2.450   0.246 -0.1518 -0.2818  0.3369
31685W        W38285   9.925   4.020  12.803 -0.1984  0.1760  0.2961
31686W        W38286  23.482   4.937  27.696 -0.2095 -0.3209 -0.1408
31687W        W38287   2.961   3.689  31.500  0.1042 -0.0984  0.0142
31688W        W38288  19.107   2.712  34.733 -0.2713  0.2004 -0.0013
31689W        W38289   6.137   2.210   1.986 -0.2333 -0.0816  0.0884
31690W        W38290  15.148   2.123  23.699 -0.1119 -0.0035 -0.0028
31691W        W38291  19.098   0.262   8.399  0.3518  0.2251 -0.0730
31692W        W38292  19.635   1.299  29.885  0.1481  0.1344  0.2247
31693W        W38293   3.194   6.279  11.251 -0.0212 -0.1474  0.1537
31694W        W38294   1.103   3.587   9.744  0.1363  0.4105  0.2491
31695W        W38295   5.202   4.359  26.166  0.1017  0.1556  0.0537
31696W        W38296  23.759   3.996   2.163  0.5597 -0.1746  0.5143
31697W        W38297   4.876   2.157  27.642  0.3082  0.0996 -0.0857
31698W        W38298   5.797   3.882  35.853  0.0549  0.0678  0.2135
31699W        W38299  23.700   0.263   1.261  0.0560  0.1481  0.0470
31700W        W38300  16.424   5.322   2.179  0.2404 -0.2245  0.1002
31701W        W38301   2.071   2.799  14.574  0.2556 -0.0350  0.1815
31702W        W38302  14.188   2.442  16.114 -0.0536  0.1540 -0.0862
31703W        W38303  23.385   4.468  31.527 -0.1443  0.0323  0.3540
31704W        W38304  17.406   0.780  35.946  0.0877  0.3307 -0.0773
31705W        W38305   2.904   4.531  26.003  0.2100  0.2884 -0.0637
31706W        W38306   1.929   3.237  34.991  0.0127 -0.1227 -0.0185
31707W        W38307   2.326   3.806   4.735  0.1157 -0.0444 -0.2212
31708W        W38308  15.439   4.636  12.554  0.4977  0.2664 -0.0271
31709W        W38309  15.973   1.764  22.750  0.2069 -0.3613  0.1398
31710W        W38310   5.777   4.427  22.906  0.2530 -0.1135 -0.3115
31711W        W38311  16.272   6.145   3.630 -0.0927  0.3133  0.0468
31712W        W38312  14.868   0.294  29.279  0.0444  0.0501  0.2135
31713W        W38313  14.039   0.396  23.294  0.1071  0.1780 -0.1759
31714W        W38314  12.830   1.089  33.389 -0.2566  0.0963  0.2554
31715W        W38315  18.781   0.270  29.815 -0.1981  0.2365  0.0138
31716W        W38316  14.734   4.600   7.744 -0.0345  0.0152  0.1862
31717W        W38317   3.481   5.802   4.232 -0.0829 -0.1486 -0.2818
31718W        W38318  10.737   5.541   4.530 -0.1614 -0.0691  0.0411
31719W        W38319  20.385   3.860  35.255 -0.1395 -0.0304  0.1284
31720W        W38320  11.786   2.362  32.789 -0.0371 -0.0351  0.2026
31721W        W38321   6.835   4.558  33.106 -0.1039 -0.1904  0.1626
31722W        W38322  11.037   6.017   5.250 -0.2770  0.1673 -0.0688
31723W        W38323  12.363   5.334  25.149  0.1551  0.1326  0.0731
31724W        W38324   7.806   6.404   6.495 -0.6140 -0.0037 -0.3560
31725W        W38325   4.968   1.394   8.972  0.0191 -0.3986 -0.0375
31726W        W38326  22.320   1.175   9.511  0.0760  0.1445 -0.2833
31727W        W38327   1.662   1.624  14.979  0.0084  0.2059  0.0711
31728W        W38328  15.691   3.287  33.607 -0.2217 -0.0839 -0.3259
31729W        W38329   5.163   0.806  34.272 -0.2460 -0.0005 -0.2031
31730W        W38330   9.177   4.744  31.407  0.2192 -0.0547  0.3306
31731W        W38331  16.610   5.636  34.877 -0.0561  0.0306  0.1853
31732W        W38332  15.076   1.596   2.409 -0.1770  0.1880  0.3633
31733W        W38333   0.849   3.732  30.062 -0.0784 -0.2909 -0.3161
31734W        W38334  23.235   4.765  24.542  0.1729  0.2157  0.1585
31735W        W38335   4.854   6.001  12.879  0.0487  0.2164  0.0300
31736W        W38336  25.507   0.535  11.710  0.2074 -0.1799  0.2715
31737W        W38337  19.302   2.782  30.011  0.0271  0.0151  0.1048
31738W        W38338  15.067   2.094   9.612  0.0954  0.1349  0.1669
31739W        W38339   8.783   4.761   8.975 -0.0418  0.0517  0.2035
31740W        W38340   8.207   5.702  24.051  0.0235 -0.1736  0.0477
31741W        W38341  15.361   0.805   9.718  0.0260 -0.0292 -0.1199
31742W        W38342  21.013   2.205   7.358  0.0980  0.1108 -0.0083
31743W        W38343   1.020   0.104  11.518 -0.1544  0.0351 -0.0373
31744W        W38344   0.753   2.426  22.882  0.1355  0.1393 -0.0593
31745W        W38345  25.973   2.241  11.485 -0.1632 -0.2678 -0.1688
31746W        W38346  13.972   0.407  10.379 -0.0025 -0.1715 -0.0548
31747W        W38347   4.224   5.418  28.402  0.2757 -0.2241 -0.0358
31748W        W38348  19.129   1.258  11.054  0.1528  0.1427  0.1196
31749W        W38349  10.430   5.916  33.223 -0.1188 -0.2041  0.0292
31750W        W38350  22.152   2.218  32.833  0.0176  0.0095  0.1817
31751W        W38351   2.386   0.166   0.393 -0.1764 -0.3823  0.0351
31752W        W38352   1.182   0.508  10.807  0.1274  0.2430  0.0384
31753W        W38353  25.188   5.042  30.198 -0.1030 -0.1754 -0.0086
31754W        W38354   1.624   4.945  22.237 -0.0676  0.1122 -0.1525
31755W        W38355  14.947   3.444   6.207 -0.2777  0.0468 -0.2587
31756W        W38356  11.977   1.029   6.744  0.1738  0.4425 -0.2121
31757W        W38357   4.023   3.775  33.973 -0.0173 -0.0078  0.0976
31758W        W38358   6.501   2.581   5.311  0.0613  0.3227  0.0478
31759W        W38359  13.647   5.761   2.799  0.2037  0.1221 -0.0980
31760W        W38360  14.384   1.509  24.805 -0.1185  0.2763  0.1466
31761W        W38361   1.101   2.627   5.265  0.0680  0.1734 -0.2112
31762W        W38362  20.425   6.313   2.222 -0.0510 -0.1253 -0.0090
31763W        W38363   8.727   4.204   4.411 -0.1620  0.5180  0.0616
31764W        W38364  25.961   0.949  33.316 -0.2992  0.0598  0.2182
31765W        W38365  10.090   6.166  11.201  0.0803  0.0595  0.0155
31766W        W38366  20.086   5.680  11.386  0.0324  0.0819 -0.0957
31767W        W38367  10.953   6.001  35.358  0.1271  0.1656  0.1532
31768W        W38368  12.664   4.391  10.814 -0.0211  0.3223 -0.3453
31769W        W38369  23.511   0.623  27.969 -0.0521 -0.1422  0.1024
31770W        W38370  14.481   5.628  13.767  0.3084  0.2370 -0.0082
31771W        W38371  12.939   5.548  22.260 -0.0116 -0.0940 -0.0049
31772W        W38372  21.709   1.081  32.126  0.0889 -0.2733  0.1181
31773W        W38373   9.172   5.372  34.977  0.0078 -0.0301  0.2581
31774W        W38374  14.612   0.524  26.239  0.3685 -0.1048 -0.0320
31775W        W38375  18.056   3.805  21.126 -0.1368 -0.5387  0.1555
31776W        W38376  14.962   5.473  30.696 -0.0038  0.0890  0.0900
31777W        W38377   9.783   5.784  13.397 -0.1199 -0.0285  0.0407
31778W        W38378   0.223   5.887  27.973  0.2326 -0.0572 -0.0651
31779W        W38379  21.855   0.193  25.838  0.0025 -0.0069  0.1664
31780W        W38380   8.670   2.705  24.489 -0.0868 -0.0230  0.0972
31781W        W38381   7.495   4.745  15.249  0.2264 -0.0598  0.1025
31782W        W38382   1.247   2.049  27.522  0.2433 -0.1644  0.0810
31783W        W38383   2.955   0.147  33.713  0.0050 -0.2351 -0.0327
31784W        W38384   6.127   0.455  11.417 -0.0674 -0.0426 -0.0071
31785W        W38385  22.499   1.925   5.522 -0.1792  0.1799  0.0916
31786W        W38386   8.671   3.017  34.346  0.0425  0.3649 -0.2396
31787W        W38387  21.104   3.307  27.883  0.1498  0.0435  0.1015
31788W        W38388  17.397   5.544  31.532  0.1318  0.2559 -0.0659
31789W        W38389  15.255   4.972  30.435  0.3268 -0.0839 -0.2938
31790W        W38390   0.456   2.275  12.004 -0.0301 -0.3181 -0.2496
31791W        W38391  13.955   5.965   7.114 -0.1389 -0.0810 -0.0540
31792W        W38392   6.770   6.487   7.919  0.2091  0.0855 -0.2042
31793W        W38393   4.841   2.246   4.665  0.0720 -0.0675  0.0676
31794W        W38394  24.978   5.985  32.711  0.1594 -0.3052  0.1318
31795W        W38395   0.619   1.749   5.168 -0.2059 -0.0295  0.0159
31796W        W38396  16.339   3.613   5.966  0.0546  0.0602 -0.1259
31797W        W38397  26.105   1.221   9.612 -0.1576  0.0944 -0.0105
31798W        W38398  14.217   5.449  15.354 -0.3074  0.1076  0.1985
31799W        W38399  10.131   0.997   6.036  0.1866 -0.0706 -0.1256
31800W        W38400  15.886   3.413  26.180  0.0271  0.2848  0.0142
31801W        W38401  10.857   0.400  11.593 -0.0442  0.0264  0.0441
31802W        W38402  20.514   0.834  32.527  0.1751  0.0928 -0.0738
31803W        W38403   7.126   6.161  33.769  0.1326  0.0685  0.1723
31804W        W38404  15.208   3.616   9.990  0.1722 -0.0802 -0.2802
31805W        W38405  16.013   6.268  29.430 -0.1448  0.2362 -0.0605
31806W        W38406   4.562   3.935   2.033  0.0933 -0.0423  0.0494
31807W        W38407   4.451   2.660  26.195  0.0155 -0.1332 -0.0106
31808W        W38408  16.086   3.862   7.847  0.2600 -0.0142  0.4434
31809W        W38409  10.788   4.702  10.173 -0.0373 -0.0593  0.1915
31810W        W38410   5.754   1.434  33.854  0.2612  0.1935  0.1822
31811W        W38411   8.876   6.185  14.754 -0.2450 -0.1106  0.1675
31812W        W38412   7.747   0.488   3.915 -0.1047  0.3796 -0.0509
31813W        W38413  16.329   1.849  32.521  0.2241  0.0589  0.0739
31814W        W38414  23.025   5.038  31.645  0.1693  0.2076 -0.1037
31815W        W38415  16.721   3.734  33.612 -0.4192  0.0151  0.0523
31816W        W38416  15.742   4.701  10.981 -0.1468  0.2223 -0.1236
31817W        W38417   2.351   3.298  12.433  0.0385 -0.1705 -0.2356
31818W        W38418  18.717   3.665  23.934  0.0825  0.1336  0.1590
31819W        W38419  25.985   1.031   0.675 -0.1903 -0.0353 -0.0352
31820W        W38420  12.598   2.918   4.842  0.1136 -0.0074  0.0633
31821W        W38421  26.246   1.777  29.173 -0.2243  0.2716 -0.0421
31822W        W38422  20.428   1.440  26.445 -0.1377 -0.0716 -0.0734
31823W        W38423   1.343   0.888  23.016 -0.0105 -0.3182  0.3697
31824W        W38424   8.753   5.123  34.619 -0.1847  0.0904  0.1382
31825W        W38425   5.610   3.491   3.041  0.3793 -0.0761 -0.0641
31826W        W38426  22.777   6.207  35.451 -0.1160  0.2308  0.0677
31827W        W38427  13.662   6.298  10.506 -0.1676  0.0946  0.0740
31828W        W38428  15.004   4.633   2.278  0.0052  0.2105  0.2215
31829W        W38429  21.549   5.431  27.486  0.1116 -0.1970  0.0423
31830W        W38430   2.125   5.699  20.748 -0.2332  0.2401  0.0224
31831W        W38431  18.577   4.123   0.659  0.1119  0.2869 -0.1096
31832W        W38432  25.925   1.602  23.413 -0.1279 -0.1438 -0.0839
31833W        W38433   7.491   4.989   8.345  0.0546 -0.0661 -0.4298
31834W        W38434  17.193   4.275  25.822  0.0635  0.3243 -0.1880
31835W        W38435  25.037   1.532  21.492 -0.0636 -0.2131  0.0297
31836W        W38436   5.424   2.064  14.969 -0.0743 -0.0935  0.2184
31837W        W38437  19.537   3.435  32.098 -0.2773 -0.0751  0.2081
31838W        W38438   7.265   5.136  21.447 -0.2879 -0.2468 -0.0998
31839W        W38439   2.860   0.228  33.104 -0.2036 -0.0054 -0.0479
31840W        W38440  21.568   4.021  27.269  0.1479 -0.0432 -0.2669
31841W        W38441  10.042   5.773  21.435 -0.1332 -0.3511 -0.0548
31842W        W38442  23.854   1.618  24.592 -0.3035 -0.3038 -0.0208
31843W        W38443   0.264   0.492  27.423  0.3613  0.1282  0.2969
31844W        W38444  11.275   4.712   7.303 -0.0240  0.0619  0.0344
31845W        W38445   0.597   1.454  21.865  0.2348  0.0219 -0.0367
31846W        W38446   6.848   2.131   4.384  0.0054  0.2129  0.0102
31847W        W38447   7.249   3.972  29.824 -0.0892 -0.2381 -0.0333
31848W        W38448  21.585   6.195   2.151  0.2227  0.2209  0.1420
31849W        W38449  22.289   1.990   4.606 -0.0186 -0.0317 -0.1841
31850W        W38450   2.159   2.404  27.845  0.0179  0.1430  0.0012
31851W        W38451   5.404   5.210  12.365 -0.1025  0.0347  0.1332
31852W        W38452  21.057   1.700  25.443 -0.4836 -0.0066  0.2607
31853W        W38453  14.706   0.362  25.689  0.1767 -0.0888  0.0609
31854W        W38454  14.410   2.700  28.633  0.1438 -0.1943 -0.0674
31855W        W38455  12.082   5.805   0.916  0.1623 -0.0004 -0.2571
31856W        W38456  22.765   3.190  11.926  0.3545  0.0686 -0.0705
31857W        W38457   5.492   0.497  15.356 -0.2958  0.0441  0.0701
31858W        W38458   9.783   5.833   4.126  0.0627  0.0620 -0.0355
31859W        W38459  16.977   6.538   4.095  0.0841 -0.0040  0.0178
31860W        W38460  21.086   2.986  20.207 -0.1828 -0.0016 -0.0264
31861W        W38461  15.938   1.026   9.642 -0.1077  0.2908 -0.0856
31862W        W38462   1.817   0.171   6.721  0.0745 -0.1975  0.0523
31863W        W38463   3.923   6.002   4.359 -0.1349  0.1935 -0.2631
31864W        W38464  20.749   3.411  31.368 -0.0969 -0.0706 -0.3331
31865W        W38465  22.869   0.655  21.525 -0.1215  0.0334  0.1156
31866W        W38466  18.976   3.720  14.947  0.2202  0.0953 -0.1268
31867W        W38467  15.656   1.198   7.840  0.0961  0.4578 -0.4195
31868W        W38468  13.648   6.183   0.914 -0.0324  0.0475 -0.1489
31869W        W38469  15.167   6.116   4.740 -0.1933 -0.0756  0.0004
31870W        W38470  16.778   4.809  26.357  0.1487 -0.0896  0.0915
31871W        W38471   5.433   3.204  28.958 -0.0795  0.3485 -0.2060
31872W        W38472   6.583   4.974  26.149 -0.2260  0.3283 -0.0397
31873W        W38473  12.651   1.810   5.681 -0.0320 -0.1186  0.0695
31874W        W38474  14.238   0.995  12.719 -0.1777  0.0325 -0.3649
31875W        W38475  13.069   3.074  31.383 -0.1252 -0.0936 -0.1388
31876W        W38476   5.191   1.034  30.501  0.2042 -0.0959  0.5816
31877W        W38477  12.413   3.850  29.284 -0.2289  0.0425 -0.1120
31878W        W38478   3.470   4.277  35.889 -0.2281 -0.1462  0.3366
31879W        W38479  20.999   3.338  13.464  0.0174 -0.0441 -0.0515
31880W        W38480  13.692   2.756  14.971  0.0847  0.0196  0.0461
31881W        W38481  22.804   5.205  30.290  0.0252  0.1651 -0.1506
31882W        W38482   5.081   0.388   7.328 -0.0842  0.0537 -0.1423
31883W        W38483  22.338   6.007  19.945 -0.0032  0.0962 -0.0881
31884W        W38484  14.126   5.069  31.469  0.0887  0.4290  0.0926
31885W        W38485  19.001   3.466  28.196 -0.0171 -0.1012 -0.3977
31886W        W38486  22.171   4.244  13.899  0.1713  0.1090  0.0997
31887W        W38487   5.040   6.035   7.328  0.1230 -0.0582 -0.0444
31888W        W38488  26.132   1.377  11.461 -0.1552  0.0384 -0.0631
31889W        W38489   6.694   1.912  14.009  0.1047 -0.1081  0.0482
31890W        W38490  13.468   4.535   5.787  0.1261 -0.1026 -0.0426
31891W        W38491  24.900   2.166  27.766  0.2103 -0.0304 -0.2877
31892W        W38492   7.647   4.773  14.779 -0.0877  0.1541  0.0513
31893W        W38493  19.339   3.563   2.075  0.0102 -0.1774 -0.2511
31894W        W38494  26.025   0.110   1.396 -0.1203 -0.2569  0.1736
31895W        W38495   8.575   2.142   1.419  0.0284  0.2667 -0.0742
31896W        W38496  24.362   0.611  23.761 -0.1667 -0.4606  0.2704
31897W        W38497  16.094   5.960  27.654 -0.0273  0.0081  0.0546
31898W        W38498   0.707   1.903   7.783  0.1086 -0.2533 -0.1818
31899W        W38499  22.296   4.505  29.475  0.0655 -0.0772  0.0254
31900W        W38500  17.466   1.943   7.130 -0.0841  0.0512 -0.2400
31901W        W38501  24.227   6.364  35.642  0.1253 -0.2028 -0.1082
31902W        W38502   4.395   3.039  28.167  0.4580 -0.0365 -0.1132
31903W        W38503  15.886   4.591  24.076 -0.1974 -0.2787  0.0073
31904W        W38504   7.726   3.671  26.792 -0.2975 -0.1248 -0.1573
31905W        W38505   8.205   1.365  27.016 -0.2849 -0.2370 -0.0987
31906W        W38506   3.530   4.074  32.714 -0.1790 -0.0210  0.0403
31907W        W38507   7.103   1.029  29.481  0.1165  0.2350  0.0835
31908W        W38508  14.645   6.128  11.824 -0.0734 -0.1340  0.1777
31909W        W38509  10.229   1.637   9.168 -0.0445 -0.0146  0.0251
31910W        W38510  24.097   1.204  15.228 -0.0926  0.0010 -0.0465
31911W        W38511  10.492   2.039  24.061 -0.2588 -0.1210  0.2989
31912W        W38512  19.633   2.390  15.720 -0.0235  0.1003  0.1066
31913W        W38513   4.437   3.219  25.335  0.0104  0.1608  0.2941
31914W        W38514  17.198   2.333  34.909 -0.2488 -0.1102  0.2415
31915W        W38515   0.906   2.639  23.831 -0.0228 -0.1106 -0.0535
31916W        W38516  24.502   0.626  12.914  0.1506  0.5563 -0.0806
31917W        W38517  21.034   1.497   9.446 -0.0023  0.4166  0.0103
31918W        W38518  17.102   2.201  33.626 -0.0543  0.1337 -0.1935
31919W        W38519  19.827   2.141  25.884 -0.0002 -0.0257  0.0345
31920W        W38520  21.135   5.153   4.481  0.0465 -0.0915 -0.1376
31921W        W38521  19.595   5.033   4.606  0.0161  0.1372  0.1734
31922W        W38522   9.785   3.293  12.085 -0.1114  0.0866 -0.0711
31923W        W38523  10.839   5.546  10.427  0.0608  0.0416 -0.0409
31924W        W38524  22.000   3.166   5.859 -0.0376 -0.1044 -0.1951
31925W        W38525  19.857   3.451  10.415  0.2714  0.1511  0.0476
31926W        W38526   5.191   5.801  23.978  0.0570  0.2265 -0.1422
31927W        W38527   3.723   5.593   2.704  0.0622 -0.0421 -0.2776
31928W        W38528  12.383   4.314  12.622  0.1339  0.0937  0.2116
31929W        W38529  14.830   6.147  25.151  0.1113  0.1471 -0.1270
31930W        W38530  25.138   0.246  33.853  0.1694  0.1355  0.0714
31931W        W38531   7.508   2.412  34.126  0.1394 -0.1899  0.2954
31932W        W38532  12.259   1.052  26.931  0.0466 -0.0357 -0.1283
31933W        W38533   7.666   3.308   2.673 -0.0343  0.0535  0.0457
31934W        W38534  25.574   3.166  31.445  0.0476  0.0291 -0.1709
31935W        W38535  25.466   5.328   0.606 -0.3779  0.0676 -0.0407
31936W        W38536  23.802   4.311  34.628 -0.4424  0.1127 -0.1360
31937W        W38537  11.000   0.751   6.370  0.0931 -0.3949  0.1494
31938W        W38538  26.023   4.337   4.841 -0.1420  0.1266 -0.1091
31939W        W38539  18.236   5.674   4.872  0.1313  0.2164 -0.1053
31940W        W38540   2.685   1.277  24.901 -0.1561  0.2174  0.1101
31941W        W38541   4.391   2.021   6.297  0.1141  0.0298  0.1747
31942W        W38542   7.495   4.799  31.001  0.0764  0.2873  0.1059
31943W        W38543  26.384   5.079  21.076  0.5091  0.2040  0.0432
31944W        W38544  11.756   0.342  29.916  0.2985  0.0743 -0.0199
31945W        W38545  25.968   3.020   9.852 -0.1158  0.2346  0.0299
31946W        W38546  17.233   0.805  34.263 -0.1914 -0.0922  0.4864
31947W        W38547  12.770   4.034  29.730 -0.2064  0.2206 -0.2259
31948W        W38548  10.199   0.163   2.252 -0.1515 -0.0523  0.1073
31949W        W38549  24.589   3.192  22.684  0.0317  0.1854  0.1284
31950W        W38550  23.921   0.606  30.554  0.1801  0.1673  0.4332
31951W        W38551  22.857   1.676  23.939 -0.0061 -0.2634  0.2001
31952W        W38552  17.932   4.014  21.856  0.1556 -0.2056  0.0468
31953W        W38553   0.333   5.621  32.907  0.1233  0.0500 -0.3708
31954W        W38554  15.734   6.243  27.375  0.1116  0.1601 -0.1248
31955W        W38555  13.005   2.395  23.218 -0.0642 -0.0345 -0.0757
31956W        W38556  21.226   2.757   8.407 -0.1629 -0.1356  0.1435
31957W        W38557  22.520   0.258  21.574 -0.0481 -0.2503 -0.0555
31958W        W38558  18.620   4.707  31.379 -0.1973 -0.2111 -0.5201
31959W        W38559   7.998   3.220  24.909 -0.3225  0.1780  0.0987
31960W        W38560  21.144   3.836  13.778  0.1603  0.0516 -0.0198
31961W        W38561  12.980   6.250   4.308  0.1748  0.0794 -0.0266
31962W        W38562  17.140   1.843   4.459  0.1056 -0.0083 -0.0144
31963W        W38563  20.815   0.553   8.219  0.2732  0.2379  0.2190
31964W        W38564  15.542   1.519  35.502 -0.0850  0.3562  0.3511
31965W        W38565   7.664   1.817   9.238  0.0321  0.1408  0.1395
31966W        W38566   0.266   4.862   5.581  0.0881  0.2968 -0.0180
31967W        W38567   1.971   1.180  24.636 -0.1875  0.0139  0.0665
31968W        W38568  21.810   3.223  15.451  0.1413 -0.1341  0.0290
31969W        W38569  21.452   0.773   2.475  0.3637 -0.2738 -0.0789
31970W        W38570  25.448   1.939  34.756  0.0997  0.0482 -0.1244
31971W        W38571   1.314   0.642  32.480 -0.0025  0.1002  0.2289
31972W        W38572  10.143   2.261   0.507 -0.0335  0.2849 -0.0776
31973W        W38573  14.109   2.620   1.846  0.1333  0.3302  0.1393
31974W        W38574   4.222   4.836   9.525 -0.1283  0.0702  0.1645
31975W        W38575  17.571   0.943  11.999  0.0142  0.3851  0.0784
31976W        W38576  10.362   5.080  12.953 -0.2916 -0.1487  0.1832
31977W        W38577  20.793   1.808  27.002 -0.1048 -0.1731  0.3718
31978W        W38578   1.150   0.670  14.586  0.0009 -0.0629 -0.0044
31979W        W38579   1.066   4.901  23.301  0.0396  0.0670 -0.1627
31980W        W38580  25.429   4.619  10.569  0.0949 -0.2096 -0.1493
31981W        W38581   4.552   3.833   1.087  0.0865  0.1189 -0.3023
31982W        W38582  15.927   0.362  27.327  0.1896  0.0771  0.3051
31983W        W38583   5.672   0.926  34.657 -0.0929  0.3771  0.0607
31984W        W38584  23.761   6.295   9.454 -0.0171 -0.1694  0.0474
31985W        W38585   0.129   1.935  30.934  0.0376 -0.1521  0.0913
31986W        W38586  23.348   2.886   1.960 -0.0900  0.1575  0.1593
31987W        W38587   5.807   3.539   9.184  0.0652 -0.0088  0.0666
31988W        W38588   9.088   6.190   7.425 -0.4866 -0.2042 -0.0083
31989W        W38589  24.894   5.971  28.226  0.0430  0.1765 -0.1084
31990W        W38590  25.403   0.622  24.685 -0.2694  0.0037 -0.0023
31991W        W38591  20.755   2.818  23.918 -0.0889 -0.1396  0.0980
31992W        W38592  10.677   4.368   7.930 -0.1022  0.2053 -0.1029
31993W        W38593   8.978   3.189  22.415  0.3753 -0.1155  0.1960
31994W        W38594  18.926   3.988  35.923  0.1627 -0.0043  0.0064
31995W        W38595  20.848   2.684   7.318  0.0812 -0.2076  0.3329
31996W        W38596  23.013   5.133  11.266  0.0176  0.3395  0.0934
31997W        W38597  15.038   3.917  35.390  0.0922  0.2805  0.1252
31998W        W38598  15.114   1.570   4.034  0.1040 -0.1924  0.0736
31999W        W38599  23.457   5.340  11.014 -0.1312  0.0582 -0.0550
32000W        W38600  19.125   1.169  29.018 -0.1378  0.0085 -0.0189
32001W        W38601  26.111   5.070   7.714  0.1386  0.0388  0.1979
32002W        W38602   4.720   6.133   2.282 -0.2304  0.2723  0.0391
32003W        W38603  21.748   6.381  33.241  0.3328  0.0760  0.0186
32004W        W38604  22.468   1.065  27.897  0.2638  0.1202  0.1458
32005W        W38605  10.497   4.743   3.529 -0.0233  0.1370 -0.0413
32006W        W38606   9.667   0.126   3.829 -0.1715  0.1344  0.2138
32007W        W38607  14.616   0.491   0.573 -0.0277 -0.1773 -0.0422
32008W        W38608   2.821   5.685  23.893  0.3031 -0.0785  0.0586
32009W        W38609   4.304   3.967  25.126  0.0307  0.0487  0.2443
32010W        W38610  15.492   0.488  15.291  0.0042  0.1021  0.0029
32011W        W38611  25.554   3.982  32.828 -0.0968 -0.2003 -0.0802
32012W        W38612   1.290   0.290  14.862 -0.2792  0.0643 -0.1171
32013W        W38613   5.182   5.642   0.201 -0.0631  0.1531  0.0867
32014W        W38614  24.002   6.437  13.840 -0.2714  0.4062  0.1467
32015W        W38615  15.559   3.324  27.620  0.1262  0.0538 -0.0843
32016W        W38616   2.692   3.710  14.732  0.1376 -0.2432 -0.3386
32017W        W38617   7.803   2.224  14.517 -0.1277  0.1457  0.0394
32018W        W38618  14.742   4.632  34.127  0.2677 -0.3484  0.0252
32019W        W38619   4.459   3.731  30.573  0.0910 -0.1711  0.0411
32020W        W38620  22.316   2.767   5.487 -0.0871  0.1656 -0.0818
32021W        W38621  18.544   3.493   6.031 -0.0029  0.2628 -0.1617
32022W        W38622  16.217   5.461   4.852  0.0278 -0.1200 -0.3356
32023W        W38623  17.205   3.356   2.062 -0.1193  0.0044 -0.1902
32024W        W38624  17.405   2.489  14.705  0.0316  0.0200  0.1907
32025W        W38625  22.549   5.982  27.320 -0.0549 -0.0924  0.0109
32026W        W38626   6.598   2.288   1.706 -0.1226  0.1725 -0.2799
32027W        W38627   7.528   0.860  13.465 -0.1721  0.0472 -0.2319
32028W        W38628   3.328   2.633   3.173  0.0925 -0.0610 -0.1799
32029W        W38629   0.906   4.897  11.765 -0.0831 -0.0452  0.2359
32030W        W38630   5.600   3.325   7.264 -0.2047 -0.1349  0.3456
32031W        W38631  18.934   1.402   1.541 -0.0022  0.2903 -0.0379
32032W        W38632  18.731   6.381   9.901  0.1249 -0.0595  0.0220
32033W        W38633  16.726   1.815   9.952 -0.0476 -0.2033 -0.0580
32034W        W38634  13.101   4.304   0.411  0.0841 -0.0178  0.2904
32035W        W38635   9.472   2.108  26.571 -0.0894  0.0563 -0.1811
32036W        W38636   1.062   2.070  21.674 -0.1471 -0.3376  0.1641
32037W        W38637   2.916   2.417  30.105 -0.1706  0.1982  0.1268
32038W        W38638   6.244   0.213  25.458 -0.2724  0.2236 -0.1233
32039W        W38639   9.069   0.797   6.154  0.0068 -0.0742 -0.1074
32040W        W38640  16.749   3.942   7.726 -0.3215  0.4009  0.0176
32041W        W38641   0.825   3.216   0.923 -0.0551  0.2971 -0.2191
32042W        W38642   5.677   5.727  24.742 -0.0282 -0.1656  0.1952
32043W        W38643  16.176   1.085  22.994  0.3084 -0.3393 -0.0389
32044W        W38644   9.116   0.721   0.621 -0.0306  0.3701  0.0102
32045W        W38645  19.854   6.261   5.578 -0.0022 -0.1441 -0.0271
32046W        W38646  21.468   4.255  12.709  0.0113 -0.0174 -0.1992
32047W        W38647  18.298   4.840  12.486  0.3339 -0.0848 -0.1853
32048W        W38648  18.663   3.139   8.015 -0.0988  0.0651  0.0581
32049W        W38649   8.858   3.360  30.784 -0.1104 -0.0387 -0.3170
32050W        W38650   2.817   4.015   9.456  0.1998 -0.2082  0.3459
32051W        W38651   3.284   2.127  34.441 -0.1943 -0.1367 -0.3499
32052W        W38652   6.291   5.829  12.382  0.0190 -0.2116 -0.2799
32053W        W38653   7.445   3.584  32.523 -0.1074 -0.1366 -0.0516
32054W        W38654  21.851   1.203   5.205  0.1623 -0.1160  0.3484
32055W        W38655  23.253   4.734  31.908  0.1590 -0.1168 -0.1628
32056W        W38656   3.062   3.640  21.889  0.1628  0.2464 -0.0723
32057W        W38657  14.980   4.046   1.099  0.0875 -0.0572 -0.1235
32058W        W38658  22.077   2.406  29.511  0.0532  0.0938 -0.2226
32059W        W38659  23.964   0.505  12.646 -0.0951 -0.0630  0.2141
32060W        W38660   8.644   6.203   4.362  0.2774 -0.2826  0.1471
32061W        W38661  21.889   0.954   9.334  0.1152 -0.1037  0.0256
32062W        W38662  24.689   0.781   0.118  0.0195 -0.1982  0.2966
32063W        W38663   4.149   3.104  10.847 -0.0491 -0.1922  0.0840
32064W        W38664  22.712   3.789  14.470 -0.6039  0.0196 -0.0854
32065W        W38665  16.476   1.159   4.277  0.3922 -0.1007 -0.0065
32066W        W38666  14.529   6.333  34.281 -0.0569 -0.1416 -0.2072
32067W        W38667  15.673   2.967   5.327 -0.2772 -0.1036 -0.2858
32068W        W38668  13.735   0.938  14.291  0.1506  0.0843 -0.2797
32069W        W38669  22.905   1.009  21.170 -0.1971  0.3906 -0.1661
32070W        W38670   6.540   2.761  23.374 -0.1931  0.3890 -0.0649
32071W        W38671  14.690   4.059  11.678 -0.0159  0.2026  0.1229
32072W        W38672  11.562   1.543   2.511 -0.1315 -0.0016  0.1385
32073W        W38673  15.337   4.428  23.982 -0.1704  0.2144  0.1382
32074W        W38674  16.266   5.562  23.604  0.1733  0.1367  0.0184
32075W        W38675   9.174   2.471   3.920 -0.3290 -0.2205 -0.2370
32076W        W38676  17.900   5.627  33.848  0.0524  0.0112  0.1418
32077W        W38677  15.803   4.163  21.751 -0.0402  0.1687 -0.2153
32078W        W38678   0.684   2.960   4.359  0.1164 -0.0280 -0.0566
32079W        W38679   6.392   0.731   4.896  0.2811  0.1492  0.0627
32080W        W38680   7.297   6.438  24.206  0.2693  0.2885 -0.0449
32081W        W38681  17.813   6.067   4.940 -0.1569 -0.1006 -0.0108
32082W        W38682  14.121   5.424   9.024  0.0415  0.0336  0.2670
32083W        W38683  20.921   3.214  34.749  0.0293  0.0346  0.0392
32084W        W38684  13.710   3.159  14.657 -0.0185  0.0297  0.0851
32085W        W38685  17.579   2.264  26.984 -0.4454 -0.1345  0.0521
32086W        W38686  22.495   5.130  23.967  0.0684 -0.1157  0.3025
32087W        W38687  17.875   5.554   4.532  0.0408 -0.1858 -0.0449
32088W        W38688  22.018   1.629  14.469 -0.0992 -0.1714 -0.1275
32089W        W38689  18.541   5.926  21.688  0.0295  0.0739 -0.0291
32090W        W38690  24.146   6.084   1.735  0.1318 -0.1963 -0.1459
32091W        W38691   4.529   5.784  10.113  0.2111 -0.1280  0.2702
32092W        W38692   5.526   3.892  30.897 -0.1074  0.2031  0.0598
32093W        W38693   8.365   0.987  30.826 -0.1500 -0.0810 -0.3622
32094W        W38694  22.421   1.158  31.471 -0.0346  0.3176 -0.0579
32095W        W38695  22.581   5.326  22.915  0.1284 -0.0447  0.0106
32096W        W38696  15.337   2.165  26.666  0.2757  0.1792 -0.0872
32097W        W38697   7.052   4.704   7.208 -0.1834 -0.1900 -0.1111
32098W        W38698  20.021   6.368  35.936  0.0235  0.0421  0.1000
32099W        W38699  10.838   0.572  10.903  0.1411  0.5347 -0.0312
32100W        W38700  16.236   0.570  25.769 -0.2969 -0.0213 -0.0058
32101W        W38701  11.010   5.461   8.103 -0.0999 -0.0533  0.0688
32102W        W38702   1.905   5.615   4.967 -0.1525  0.1486 -0.0735
32103W        W38703  16.490   2.277   8.707 -0.0722 -0.0501  0.2104
32104W        W38704   6.161   5.108  34.187  0.1477  0.0923 -0.0270
32105W        W38705   2.651   5.643   1.020  0.0724  0.1173 -0.5199
32106W        W38706   1.129   2.925  10.258  0.0229 -0.1778  0.0448
32107W        W38707  23.228   1.592   7.278  0.0181  0.0247 -0.1449
32108W        W38708  15.694   2.346   4.930 -0.0183  0.1501  0.1256
32109W        W38709  17.354   2.799   4.484 -0.2352  0.1258  0.1539
32110W        W38710  23.115   6.342  32.974 -0.1262 -0.1191  0.2376
32111W        W38711  16.430   6.062  11.577 -0.1319 -0.2647  0.3319
32112W        W38712   8.839   2.883   3.920 -0.0360  0.1225 -0.2969
32113W        W38713   3.864   1.901  12.457  0.3945  0.2169 -0.0531
32114W        W38714   0.150   2.412   0.207 -0.3443 -0.2456 -0.1488
32115W        W38715  25.660   0.744  14.773  0.0200  0.0647  0.0998
32116W        W38716   4.038   1.047   2.274 -0.0480 -0.0967 -0.0234
32117W        W38717  25.562   4.086  31.943  0.0115 -0.1356  0.0896
32118W        W38718   5.971   5.357   0.986  0.1548 -0.1092  0.5076
32119W        W38719   6.158   5.604   4.102 -0.3034 -0.2286  0.0298
32120W        W38720  20.704   3.854   0.175  0.2204 -0.0420  0.3715
32121W        W38721  16.078   2.137  14.925  0.0597  0.0244  0.0734
32122W        W38722  21.742   3.620   5.672  0.2382 -0.1821  0.0932
32123W        W38723   8.766   6.348  26.120  0.0352  0.1633  0.1370
32124W        W38724  12.892   0.195  21.970  0.1303  0.0659  0.0441
32125W        W38725   0.874   4.241   2.680  0.0176  0.3654  0.1095
32126W        W38726  20.036   2.533   4.221 -0.0904 -0.1000  0.0661
32127W        W38727  11.570   0.019  21.767 -0.1946 -0.3112 -0.0679
32128W        W38728  16.543   5.300  29.337 -0.0237  0.0438  0.0128
32129W        W38729   4.606   1.542   9.659 -0.0145  0.1301  0.1259
32130W        W38730  10.599   0.394  12.603 -0.0592  0.1043 -0.2240
32131W        W38731  24.318   3.129  20.760 -0.1412 -0.1007 -0.0044
32132W        W38732   6.664   2.444  22.982 -0.1050 -0.1585  0.0392
32133W        W38733  21.607   4.526   6.042 -0.0756 -0.2615  0.1465
32134W        W38734  19.484   5.482  27.314  0.1308  0.1254  0.2686
32135W        W38735   2.329   1.350  12.584 -0.2825 -0.1727  0.0018
32136W        W38736   2.189   1.826   1.949  0.0032  0.0629 -0.2483
32137W        W38737  10.411   1.251  35.697  0.1023  0.0438  0.1237
32138W        W38738  22.970   3.158   3.197 -0.0092  0.1118 -0.0044
32139W        W38739   9.447   5.064   6.627 -0.0524  0.1999 -0.1328
32140W        W38740  17.140   2.929  23.840  0.2115 -0.0870  0.1638
32141W        W38741  19.937   4.246   9.468 -0.2131  0.0976 -0.1843
32142W        W38742  18.300   5.849  32.166 -0.2591  0.1675  0.2126
32143W        W38743   0.929   0.367  11.952 -0.0942 -0.3801 -0.4088
32144W        W38744   6.310   4.708  24.375 -0.0161  0.0678 -0.2119
32145W        W38745  11.132   0.482   7.501 -0.3021  0.0974 -0.0619
32146W        W38746   8.705   6.212  14.244 -0.1814  0.0212 -0.0987
32147W        W38747  15.862   0.216  23.459 -0.0181  0.2290 -0.0963
32148W        W38748  11.511   5.511  27.874 -0.1061  0.1143  0.0837
32149W        W38749   7.647   5.575   7.246 -0.1826  0.0240 -0.0920
32150W        W38750   8.147   5.969  32.856 -0.3096 -0.0519 -0.0443
32151W        W38751  19.413   4.533   7.255  0.0647 -0.0581 -0.1024
32152W        W38752   4.272   3.532   8.587  0.1025  0.1174 -0.2056
32153W        W38753   8.157   0.218   6.581  0.0811 -0.0613  0.1622
32154W        W38754  22.708   2.067   1.308 -0.0915 -0.4928 -0.1483
32155W        W38755  19.580   4.635  31.229  0.1143 -0.0088 -0.1880
32156W        W38756  25.508   3.960  13.243  0.1141 -0.0099 -0.0450
32157W        W38757   6.652   4.444   3.915  0.2550 -0.2891  0.1634
32158W        W38758   3.960   4.858  30.201  0.0093 -0.3336  0.4158
32159W        W38759  25.411   0.144  27.243 -0.2401  0.0010 -0.1373
32160W        W38760   1.608   0.042  35.339  0.2100  0.0572  0.0560
32161W        W38761  19.671   1.756  25.164 -0.0068  0.2373 -0.0260
32162W        W38762   5.391   5.446  20.598 -0.2128  0.2484 -0.3523
32163W        W38763   1.077   6.111  35.246 -0.1422 -0.2122 -0.0344
32164W        W38764  11.125   3.442  28.774  0.1068  0.3206 -0.0327
32165W        W38765  15.900   3.362   2.129 -0.2033 -0.1045 -0.3204
32166W        W38766  24.332   1.430  22.581 -0.0372 -0.0131 -0.0345
32167W        W38767  11.996   1.305  28.134  0.2731 -0.2236  0.2283
32168W        W38768  25.437   5.739  35.135 -0.3413  0.2310  0.1928
32169W        W38769  15.185   4.019   1.626 -0.0541  0.3301  0.1059
32170W        W38770  11.924   5.601  31.013 -0.0410 -0.0809  0.1214
32171W        W38771  13.888   4.002   3.764 -0.2078  0.0319  0.1971
32172W        W38772   8.921   5.251   9.669 -0.2521 -0.1757  0.0264
32173W        W38773  25.069   4.867  31.938 -0.1783  0.0677 -0.0962
32174W        W38774   2.746   0.956   4.359  0.0871 -0.0589 -0.2160
32175W        W38775  18.236   3.585  10.680 -0.0211 -0.1161 -0.0358
32176W        W38776   3.891   2.532  31.174  0.2176  0.0152  0.0583
32177W        W38777  15.811   2.345  11.637 -0.1029  0.0096 -0.0439
32178W        W38778  15.122   5.924  21.360 -0.2543 -0.0184  0.1838
32179W        W38779  25.224   3.314  10.137  0.1741 -0.3083 -0.0601
32180W        W38780  16.142   4.996  22.765  0.3055  0.0782  0.2902
32181W        W38781  15.142   3.979  24.095  0.0128 -0.0137  0.2189
32182W        W38782   1.777   1.430  28.872 -0.0440  0.1141 -0.0502
32183W        W38783   5.272   2.522  32.428 -0.1125  0.0171 -0.1733
32184W        W38784  25.226   0.516  27.493  0.2007  0.0920 -0.2530
32185W        W38785   0.541   1.548  29.881 -0.2663  0.0692 -0.0837
32186W        W38786   2.941   3.897   7.340 -0.0748 -0.1824 -0.1499
32187W        W38787  16.101   1.585   2.383  0.0185 -0.1691 -0.2704
32188W        W38788  18.351   4.422   3.285 -0.1379 -0.1591 -0.1195
32189W        W38789  15.490   2.119  10.076 -0.2415  0.2003 -0.0336
32190W        W38790   7.728   1.433   3.968  0.0811 -0.0618 -0.2084
32191W        W38791  18.013   5.369  10.240  0.0698 -0.1327 -0.4245
32192W        W38792   0.586   1.863  21.585  0.3318 -0.0290  0.1142
32193W        W38793   6.583   0.381  30.414  0.1540  0.0133  0.2635
32194W        W38794  14.560   3.159  26.700 -0.4989 -0.3050 -0.2348
32195W        W38795   9.483   3.314  32.840 -0.0682 -0.1738  0.0709
32196W        W38796  14.101   3.564  32.845 -0.2168  0.0567 -0.5848
32197W        W38797  10.095   6.567  11.471 -0.2348  0.1412 -0.0443
32198W        W38798  17.428   0.388  14.653  0.0688 -0.0500  0.1128
32199W        W38799  14.516   0.465  24.093  0.0504  0.0605 -0.2145
32200W        W38800  18.720   6.131  32.071 -0.0202 -0.1425 -0.1057
32201W        W38801  23.200   0.365  35.910 -0.1276  0.1120 -0.0299
32202W        W38802   2.829   5.637  15.351 -0.0727  0.3256 -0.1656
32203W        W38803  17.687   4.119  33.837 -0.0902 -0.3904  0.0044
32204W        W38804  16.894   2.083  12.470  0.3166  0.0750 -0.2912
32205W        W38805  15.652   4.930  35.579  0.0963  0.2916 -0.0535
32206W        W38806   9.550   0.230  33.179  0.3450  0.0617 -0.0765
32207W        W38807  16.474   6.321   2.289  0.0114  0.1540  0.0862
32208W        W38808  15.983   5.046   1.921  0.0020 -0.1807  0.1182
32209W        W38809  13.952   5.384  22.196 -0.0842 -0.0430  0.2173
32210W        W38810   6.405   5.275   0.734  0.1113  0.3887  0.2132
32211W        W38811   3.320   4.356  26.804 -0.0384 -0.2244 -0.2359
32212W        W38812  13.791   5.291   0.532 -0.0721 -0.1236 -0.0319
32213W        W38813  23.134   3.748  27.055  0.0844  0.0408 -0.2197
32214W        W38814   8.339   2.648   9.056 -0.0992 -0.0194 -0.1190
32215W        W38815  15.767   0.216  14.383 -0.0695 -0.2230  0.2744
32216W        W38816   6.059   1.069  29.439  0.0299  0.0840  0.2280
32217W        W38817  19.602   2.790   1.136  0.3043 -0.1140  0.1818
32218W        W38818   0.320   3.185   7.775  0.1461 -0.1093 -0.0817
32219W        W38819   8.332   1.861   2.488 -0.1743 -0.1063 -0.2991
32220W        W38820  23.111   4.616   9.489 -0.1220  0.0718 -0.1570
32221W        W38821  15.879   3.900  34.895  0.0915  0.1602 -0.1802
32222W        W38822  22.564   2.901  14.152  0.2374  0.2181 -0.2099
32223W        W38823  23.568   1.735   4.291  0.2260  0.0773  0.1090
32224W        W38824  15.012   0.060  32.359  0.0407  0.1844  0.1654
32225W        W38825  23.761   4.449   5.951 -0.2030 -0.4001 -0.2011
32226W        W38826  11.489   5.019  12.981 -0.0812  0.2098 -0.2860
32227W        W38827   8.993   1.263   2.178 -0.1232 -0.1513 -0.0089
32228W        W38828  15.385   6.266  34.437 -0.0673  0.1414  0.0494
32229W        W38829  14.444   0.844  31.713  0.0942 -0.2025  0.0793
32230W        W38830   0.229   0.152  23.492  0.1506 -0.1841  0.3784
32231W        W38831  20.106   3.326  27.709  0.1554  0.1081  0.0593
32232W        W38832   3.988   0.271  30.138  0.3233 -0.3266  0.1614
32233W        W38833   2.629   3.875   8.296  0.4219 -0.0795  0.1280
32234W        W38834  23.592   3.045  28.954  0.2430 -0.0021  0.1379
32235W        W38835  23.892   3.399  26.004 -0.1808 -0.1308  0.0686
32236W        W38836  26.166   2.658  23.833  0.2242 -0.2841 -0.0923
32237W        W38837  18.821   5.997  29.632  0.1715 -0.0182 -0.3740
32238W        W38838  11.369   5.118  14.002 -0.2167  0.0456  0.2332
32239W        W38839  10.270   2.536  24.781 -0.2271 -0.1278 -0.3645
32240W        W38840   1.252   5.625  22.585  0.0152  0.0558 -0.2421
32241W        W38841   6.582   0.111   1.472 -0.2994  0.2868  0.1115
32242W        W38842  14.705   4.701   3.883  0.1388 -0.1514  0.1882
32243W        W38843  22.723   6.186   1.602  0.0049  0.1312 -0.0987
32244W        W38844  10.175   1.947  27.299  0.1220 -0.0745 -0.3161
32245W        W38845  16.063   3.738  11.428 -0.2279 -0.0003 -0.0119
32246W        W38846  10.697   5.051   4.881  0.0632  0.1103 -0.2104
32247W        W38847   6.651   1.287   6.788 -0.2268  0.0721 -0.1112
32248W        W38848   5.229   5.228   8.964 -0.1361  0.0081 -0.3351
32249W        W38849  20.476   1.084  23.148  0.0453 -0.2234 -0.0171
32250W        W38850   0.015   1.374  29.433  0.0139 -0.0081 -0.0774
32251W        W38851  21.393   1.140   7.524 -0.0822  0.2762  0.1761
32252W        W38852  18.573   2.568   3.321 -0.0743 -0.3029  0.3179
32253W        W38853  13.218   1.865  32.943  0.0227  0.1515  0.0721
32254W        W38854  23.284   4.457  12.612  0.0253  0.0385 -0.2495
32255W        W38855   5.861   1.015  28.910 -0.3797 -0.0668  0.1140
32256W        W38856   2.879   4.068  26.130 -0.2100 -0.2456 -0.0742
32257W        W38857  12.088   1.523  32.370 -0.0309 -0.0152  0.1653
32258W        W38858  21.049   2.506  23.683  0.1573 -0.0583 -0.0663
32259W        W38859  23.752   4.002   4.247 -0.0780  0.0288  0.1145
32260W        W38860  22.589   3.044  26.465 -0.2149 -0.0723  0.1939
32261W        W38861   4.284   1.932   0.693 -0.0483  0.0517 -0.0163
32262W        W38862  21.231   3.851  12.720 -0.2548 -0.0168 -0.0265
32263W        W38863   3.136   4.772  20.590  0.2623 -0.1563 -0.1961
32264W        W38864   5.889   5.950  14.438  0.1038 -0.0436 -0.2712
32265W        W38865  18.384   0.348   6.999  0.2333  0.0534 -0.3636
32266W        W38866  16.940   3.542  35.552 -0.0161 -0.2053 -0.0400
32267W        W38867  24.967   1.889  24.481 -0.0900 -0.0144  0.1341
32268W        W38868   0.923   1.141  24.076 -0.1179 -0.2249  0.1858
32269W        W38869  10.234   2.430  30.354 -0.2496 -0.0836  0.0338
32270W        W38870  16.477   1.584   8.705  0.1655 -0.0190 -0.3395
32271W        W38871  22.625   1.471   5.734 -0.1237  0.0881 -0.1072
32272W        W38872  14.922   0.035  30.389 -0.2548 -0.1175  0.0636
32273W        W38873   3.591   3.294   2.351 -0.1706 -0.1021 -0.0289
32274W        W38874  12.599   1.183  10.832  0.2070  0.0352 -0.1460
32275W        W38875   5.761   6.035  27.889  0.0752  0.0475 -0.0429
32276W        W38876  20.410   3.993  29.997  0.1662 -0.0739  0.2827
32277W        W38877   8.306   6.033   9.170 -0.2786 -0.0425  0.0055
32278W        W38878  10.485   5.321  27.185 -0.1746 -0.0310 -0.0293
32279W        W38879  24.828   3.311  35.265 -0.1157 -0.1787 -0.1299
32280W        W38880   1.373   2.823  31.887 -0.1846 -0.2889  0.0915
32281W        W38881   4.500   3.209  31.157 -0.1062 -0.1266 -0.3356
32282W        W38882   0.120   1.660   3.501 -0.1539 -0.1138  0.2826
32283W        W38883   1.431   4.595  26.689 -0.0175  0.2707  0.0632
32284W        W38884   9.372   1.930  32.728 -0.0865 -0.0957 -0.1652
32285W        W38885   2.006   5.612  11.685  0.0236 -0.0116 -0.0221
32286W        W38886   9.745   2.910  29.809  0.0462 -0.0135 -0.4259
32287W        W38887   0.308   2.357   1.236  0.3607 -0.0923  0.1077
32288W        W38888  24.345   2.521  21.353  0.2446  0.2311  0.2553
32289W        W38889  18.225   4.206   5.644 -0.1604 -0.3134 -0.1911
32290W        W38890  21.284   5.341  35.558  0.0903  0.3395 -0.1732
32291W        W38891   3.813   4.428   5.438  0.2292 -0.0864 -0.2457
32292W        W38892  21.871   5.039   8.785  0.0610 -0.2707  0.2222
32293W        W38893  15.980   1.607   2.915 -0.0347  0.0721  0.0488
32294W        W38894   9.673   6.166  23.036 -0.1584  0.0717 -0.0407
32295W        W38895   7.342   3.834  11.208 -0.1681  0.2007 -0.0722
32296W        W38896  21.247   1.657  31.183  0.0997 -0.2536  0.1102
32297W        W38897  17.756   4.825  25.412 -0.0587 -0.0366  0.1219
32298W        W38898  18.727   5.435  23.731  0.1504 -0.0339 -0.2104
32299W        W38899  11.578   5.626  25.836  0.1653 -0.0310  0.0763
32300W        W38900   9.464   3.677   9.844 -0.0786 -0.2846 -0.3154
32301W        W38901   9.194   2.510  24.199  0.3386 -0.2069 -0.1944
32302W        W38902  12.942   1.481  21.362  0.2902 -0.0037 -0.0719
32303W        W38903   7.756   0.835  12.213 -0.0222 -0.2046  0.0596
32304W        W38904  13.020   2.884   4.516 -0.1980 -0.2621 -0.1502
32305W        W38905  16.287   4.048  26.760  0.1467  0.0894 -0.0730
32306W        W38906  16.373   1.173  27.008 -0.2769  0.2342 -0.1955
32307W        W38907  10.141   4.347  29.684 -0.0092  0.0074  0.0176
32308W        W38908   8.538   3.371  15.704  0.1520 -0.2096 -0.1523
32309W        W38909  24.744   1.344   2.309  0.0681 -0.0008  0.0185
32310W        W38910  15.833   4.418  34.962  0.0640  0.0457 -0.0616
32311W        W38911  10.947   2.297  29.714 -0.1637  0.0127  0.1895
32312W        W38912  24.118   2.211  28.757 -0.0197 -0.0451 -0.2730
32313W        W38913   7.802   1.182  24.697 -0.3374 -0.1848  0.2481
32314W        W38914   7.671   1.172  34.691  0.1780 -0.4198  0.0646
32315W        W38915  23.420   0.872   0.734  0.0556  0.0365 -0.0872
32316W        W38916   4.630   4.282  29.347 -0.0837  0.1342 -0.1213
32317W        W38917  16.680   2.910  31.263  0.3539 -0.0333  0.1852
32318W        W38918  13.825   6.542  22.353 -0.0981  0.1416 -0.0667
32319W        W38919  18.778   3.546   2.194 -0.0650 -0.1801 -0.0858
32320W        W38920   8.158   1.697   3.889  0.0110  0.0261  0.2336
32321W        W38921   8.759   5.846  30.346  0.1148 -0.0740 -0.3250
32322W        W38922  17.257   4.025  14.676  0.2148 -0.2200 -0.2088
32323W        W38923  11.871   1.327  24.550 -0.0545 -0.2632  0.0378
32324W        W38924  18.931   2.840  10.788  0.0826 -0.0615 -0.1371
32325W        W38925   5.119   5.852  11.943 -0.1222  0.0600  0.0832
32326W        W38926   3.883   0.760  23.408  0.0293  0.0993  0.3264
32327W        W38927  12.956   4.874  31.144 -0.1774  0.1010 -0.2849
32328W        W38928  20.932   1.033  12.351 -0.1559  0.2916 -0.1970
32329W        W38929  10.545   6.137   8.509 -0.2424 -0.1258  0.3418
32330W        W38930  11.204   4.137  33.851  0.1882  0.1259  0.1146
32331W        W38931   5.962   2.179  34.146 -0.0894  0.0284 -0.0973
32332W        W38932   0.671   3.568   3.352  0.3990  0.2508 -0.3601
32333W        W38933  12.831   0.007  32.140 -0.2476  0.0262  0.1006
32334W        W38934   2.720   6.484  32.018 -0.2626  0.2155 -0.1004
32335W        W38935   9.985   6.323   7.138  0.0484  0.2430  0.0185
32336W        W38936  11.219   5.333   9.732  0.0805 -0.2608 -0.2139
32337W        W38937  15.646   5.541  10.232  0.1968 -0.1590 -0.0276
32338W        W38938  20.042   3.994  20.715 -0.5793  0.0229 -0.3935
32339W        W38939  20.336   1.379   8.131  0.3237  0.1388 -0.2319
32340W        W38940  14.099   0.464  11.767  0.0032 -0.0099 -0.0093
32341W        W38941  13.071   6.129   1.525  0.2206  0.1830  0.0686
32342W        W38942  10.049   1.554   0.466  0.0355 -0.3003  0.0794
32343W        W38943  23.896   2.054  15.122 -0.0384  0.1504  0.0657
32344W        W38944  22.229   5.611  21.924 -0.2048  0.3791  0.0955
32345W        W38945   3.058   6.089  25.837 -0.1574  0.1658 -0.1468
32346W        W38946  19.677   3.362   2.373 -0.1625 -0.1142  0.0855
32347W        W38947  11.841   1.189  14.544  0.2470 -0.1296  0.1129
32348W        W38948  14.532   3.011  23.178 -0.2207  0.1146 -0.1850
32349W        W38949  24.374   5.513  28.993 -0.1990  0.1568 -0.2904
32350W        W38950   3.918   4.307  26.733 -0.2863  0.0221 -0.0806
32351W        W38951   3.062   1.599  21.177  0.0460 -0.0494  0.1372
32352W        W38952  22.019   1.859  31.898  0.1750 -0.1586 -0.2109
32353W        W38953   2.704   4.269  30.337 -0.0350  0.0404 -0.0111
32354W        W38954   2.331   6.586  13.974 -0.1301 -0.0013 -0.1579
32355W        W38955   1.625   0.728  14.752  0.1374  0.0794  0.1112
32356W        W38956  18.365   6.462  11.348  0.1234 -0.1101 -0.1954
32357W        W38957  18.319   3.275   4.107 -0.0278  0.0857  0.1951
32358W        W38958  22.545   1.610  34.699  0.0215 -0.1698  0.2175
32359W        W38959   6.203   2.889  12.645  0.0977  0.1431 -0.0123
32360W        W38960   5.732   6.363   9.396  0.0234  0.2806  0.0057
32361W        W38961  20.337   3.128  14.625  0.1516  0.3399  0.1507
32362W        W38962   7.849   6.277  10.297 -0.0184  0.2716 -0.2899
32363W        W38963   5.625   5.709  25.823  0.2324 -0.5735  0.1595
32364W        W38964   9.451   2.314  27.876 -0.2288  0.0229 -0.0250
32365W        W38965   1.140   3.427  10.284  0.4172  0.1159  0.5901
32366W        W38966  20.796   4.186  13.714 -0.2294  0.1240  0.0635
32367W        W38967  18.833   2.408  30.157 -0.1548 -0.0272  0.1400
32368W        W38968  19.996   0.792  10.917  0.1602  0.0538 -0.1628
32369W        W38969   4.896   4.569   6.038 -0.1723 -0.0186  0.1989
32370W        W38970  12.884   3.502   7.371 -0.2415 -0.2182  0.1457
32371W        W38971  13.708   1.057  31.013 -0.0512 -0.2144  0.2333
32372W        W38972  20.089   4.996  32.939 -0.1783  0.0294  0.1424
32373W        W38973   6.401   3.942   1.369  0.1346  0.0908  0.2634
32374W        W38974  22.124   2.576  11.815 -0.2665  0.0775 -0.2198
32375W        W38975  12.179   0.078  35.670 -0.0114 -0.5189  0.2693
32376W        W38976  11.755   4.272   3.260  0.4373  0.0634  0.1316
32377W        W38977   5.012   3.086  24.091  0.3555 -0.0815  0.2510
32378W        W38978  14.279   2.080   6.198 -0.1729 -0.0088 -0.1369
32379W        W38979  21.513   5.436   3.712 -0.0118 -0.1025  0.0363
32380W        W38980   0.456   0.528  21.919 -0.3871  0.0363 -0.0398
32381W        W38981  13.091   2.708   2.148  0.1394 -0.2790 -0.1237
32382W        W38982  26.193   3.492   6.133 -0.4751  0.2601  0.1719
32383W        W38983  11.269   4.152   1.868 -0.1430  0.0449 -0.2333
32384W        W38984  16.453   5.840   6.449  0.3439 -0.0162  0.1377
32385W        W38985  11.894   4.423  30.385 -0.0154 -0.0562  0.2016
32386W        W38986  22.700   2.696   4.947 -0.3328 -0.0821 -0.4325
32387W        W38987  22.289   3.083  25.620  0.3648 -0.1749  0.0364
32388W        W38988  10.469   1.313  12.656  0.1742 -0.0584  0.0197
32389W        W38989  16.519   2.062  24.029  0.2191 -0.3065 -0.2509
32390W        W38990   8.723   1.837  33.906 -0.1814 -0.0012  0.2997
32391W        W38991  18.729   2.278  27.855  0.0466 -0.0136  0.0829
32392W        W38992   3.252   6.543  21.128  0.0821 -0.1010  0.0755
32393W        W38993  25.148   5.804  30.608  0.0988  0.0042 -0.0316
32394W        W38994  10.536   4.714   6.277 -0.2515 -0.0207 -0.2944
32395W        W38995  10.027   1.306  28.032 -0.0565  0.1704 -0.1739
32396W        W38996   2.901   3.696  20.874  0.1093 -0.0063 -0.2038
32397W        W38997  13.195   4.514  15.079  0.0694 -0.3811 -0.1469
32398W        W38998  16.161   3.189  31.237  0.1040 -0.2366 -0.1356
32399W        W38999  11.503   3.046  30.010 -0.0263 -0.0185  0.0257
32400W        W39000  22.747   3.930  23.933 -0.0771  0.2720 -0.1181
32401W        W39001  14.418   4.058  20.388  0.0896  0.2089 -0.1538
32402W        W39002   6.940   0.708  34.438  0.0210  0.1378 -0.0499
32403W        W39003  15.320   4.723  35.923 -0.0803  0.1207 -0.0563
32404W        W39004   7.188   2.891  35.151 -0.0357  0.0804 -0.0172
32405W        W39005  18.322   0.040  34.484  0.0015 -0.3341  0.0346
32406W        W39006  24.128   2.062  14.185  0.0911 -0.0188  0.2574
32407W        W39007   9.210   2.275  34.669  0.0185 -0.0743  0.0033
32408W        W39008   9.825   3.476  22.227 -0.2769 -0.0548 -0.2332
32409W        W39009  23.445   4.791  35.483 -0.1378  0.1052  0.0634
32410W        W39010  16.698   5.959   6.028  0.0734 -0.1081 -0.0123
32411W        W39011  24.131   1.925  11.453 -0.1071 -0.1603 -0.1560
32412W        W39012  10.759   0.974  10.622  0.1797  0.1984  0.2885
32413W        W39013   9.073   4.584  21.488  0.0328 -0.0409 -0.0380
32414W        W39014  21.723   6.477   3.368 -0.1521 -0.1800 -0.5823
32415W        W39015  21.793   5.427  22.227  0.0631 -0.3518 -0.0709
32416W        W39016  14.120   3.845  24.019 -0.1390  0.1332 -0.3161
32417W        W39017  24.612   3.341  30.756  0.0652 -0.1293 -0.3311
32418W        W39018   7.113   3.796   2.855  0.0724  0.0973 -0.2778
32419W        W39019   1.260   0.973  35.800 -0.0210  0.1112  0.1916
32420W        W39020   6.412   2.466   7.964 -0.0741  0.1737  0.0446
32421W        W39021  11.054   4.823   4.492  0.2697  0.0958 -0.1687
32422W        W39022  19.534   0.877   3.239  0.2976  0.1625  0.2565
32423W        W39023  16.873   4.773  20.218  0.1108 -0.2326  0.4039
32424W        W39024   5.299   1.425  14.683 -0.0538  0.0865 -0.0999
32425W        W39025   6.741   2.319   0.892 -0.1284  0.0974  0.1644
32426W        W39026   0.429   6.566  12.600  0.0520 -0.0938  0.0394
32427W        W39027   9.625   0.425  21.002  0.0732 -0.1811 -0.1302
32428W        W39028  22.033   0.027  20.565  0.0176 -0.0430  0.4019
32429W        W39029   4.737   4.349  31.228 -0.1022 -0.0629  0.0699
32430W        W39030  14.324   4.431  22.032  0.2881  0.1704 -0.0154
32431W        W39031  18.617   1.004   5.288  0.2043  0.3487  0.1949
32432W        W39032  19.037   5.195  12.658  0.0217 -0.0480  0.1577
32433W        W39033  21.588   0.579  15.817  0.2265  0.2243  0.0092
32434W        W39034  21.949   3.269   0.690  0.2762 -0.0304 -0.2312
32435W        W39035   8.231   4.581  26.611  0.0196 -0.2405 -0.2134
32436W        W39036  16.494   3.614   8.082 -0.1103 -0.3239 -0.2658
32437W        W39037  21.964   1.896  36.039 -0.0735 -0.2093 -0.1595
32438W        W39038  13.019   1.486  11.185 -0.0245 -0.1192 -0.3547
32439W        W39039  23.534   5.308   0.779  0.0560  0.0193  0.2338
32440W        W39040  14.485   4.187   9.218 -0.0526  0.1471  0.1872
32441W        W39041  22.199   1.551  33.275  0.4270 -0.0494  0.1391
32442W        W39042  23.692   3.733   9.825  0.1388 -0.1800 -0.0314
32443W        W39043  17.074   6.185   0.273  0.1357  0.2613 -0.0291
32444W        W39044  12.664   4.670  21.952  0.1241  0.0518  0.0402
32445W        W39045  11.230   1.754   9.904 -0.0602 -0.1692 -0.0503
32446W        W39046  14.337   3.289  27.480  0.1320 -0.3265  0.0093
32447W        W39047   1.000   1.864   0.313  0.0997  0.0344 -0.0699
32448W        W39048   8.529   6.536   9.121 -0.2612  0.2228  0.0679
32449W        W39049  15.981   0.654  35.303 -0.2291  0.0158 -0.2683
32450W        W39050  20.310   3.420  23.621  0.2934 -0.3351 -0.0001
32451W        W39051   9.121   3.141   0.396  0.1040 -0.0404 -0.2083
32452W        W39052   3.433   4.115  14.862  0.3717 -0.4075 -0.3304
32453W        W39053   1.860   3.023  24.118  0.1042  0.0057 -0.1370
32454W        W39054  25.251   0.410  12.336  0.1619 -0.3482  0.0670
32455W        W39055  21.295   6.550  14.932  0.1377 -0.1284  0.2303
32456W        W39056  23.231   1.470  33.377  0.3987  0.0863  0.0670
32457W        W39057  10.967   0.723  27.759 -0.3148 -0.0505  0.1818
32458W        W39058  11.199   5.436  34.394  0.1269 -0.0150 -0.1044
32459W        W39059  16.946   2.065   9.539  0.1219  0.2769  0.0134
32460W        W39060  18.867   5.093  21.453  0.0565  0.1551 -0.0662
32461W        W39061  25.487   4.988   6.440  0.2189 -0.0008  0.0307
32462W        W39062  19.493   0.995  27.195 -0.3111 -0.2915 -0.1517
32463W        W39063   2.760   2.663  36.054  0.1133 -0.0546 -0.0718
32464W        W39064  13.974   6.542  29.689 -0.1104 -0.0202 -0.1888
32465W        W39065   3.920   0.074  35.222 -0.1983  0.1906 -0.0691
32466W        W39066   5.226   6.381  32.554  0.1268  0.1613 -0.0318
32467W        W39067  15.098   3.962  11.150  0.4131  0.1487  0.1476
32468W        W39068   9.795   4.460  34.282 -0.1712 -0.0964  0.1518
32469W        W39069  12.157   0.354   9.992  0.2161 -0.0297  0.1591
32470W        W39070   8.740   2.491  33.114  0.0340  0.3810  0.2270
32471W        W39071   4.831   3.835  12.647 -0.2290 -0.2738  0.1553
32472W        W39072  21.642   5.934  34.072  0.0602 -0.0384 -0.1054
32473W        W39073  10.531   6.246  12.160 -0.0240 -0.1915  0.0177
32474W        W39074   7.348   2.922   6.979  0.0995  0.1312  0.1255
32475W        W39075  14.077   6.087  29.440 -0.1230 -0.2035 -0.1324
32476W        W39076  25.280   4.625  34.980  0.0688 -0.1575 -0.4133
32477W        W39077   6.312   2.359  15.014 -0.0980  0.1528 -0.0419
32478W        W39078  25.122   3.356  28.697 -0.1526  0.0744 -0.0579
32479W        W39079  26.132   5.023  22.749 -0.2785  0.2965  0.1438
32480W        W39080  21.506   5.508  33.832 -0.0582 -0.2209  0.1584
32481W        W39081  26.292   1.154   6.574  0.1456  0.3455 -0.0240
32482W        W39082  21.043   5.562  13.589  0.0371  0.0905  0.0980
32483W        W39083   1.228   6.076  22.158 -0.0312  0.2249  0.2391
32484W        W39084   9.900   3.643  35.017 -0.2515  0.1614 -0.1020
32485W        W39085  11.153   0.949   8.116  0.2450 -0.2382 -0.1768
32486W        W39086  14.607   1.482  26.023  0.1505  0.2204 -0.0387
32487W        W39087   0.670   5.852  32.371 -0.0186 -0.0512 -0.0994
32488W        W39088   2.603   1.340  11.579 -0.1167  0.0039  0.2164
32489W        W39089  24.613   0.956  11.376  0.0809  0.0824  0.3554
32490W        W39090   7.439   3.704   2.397 -0.2103 -0.2436 -0.0871
32491W        W39091   9.258   1.693  11.306  0.2162  0.3151  0.1945
32492W        W39092  18.670   3.553  27.369 -0.0862 -0.0473 -0.2408
32493W        W39093  15.221   5.190   3.139 -0.0750 -0.6166  0.0706
32494W        W39094  13.595   3.337   7.801  0.0682  0.0701  0.0259
32495W        W39095   5.381   2.851  12.807 -0.0272 -0.3147 -0.0446
32496W        W39096  25.315   6.490   4.843  0.2787 -0.4736  0.0261
32497W        W39097   9.986   5.154  28.555 -0.1234  0.3237  0.0010
32498W        W39098  10.133   3.237  28.565 -0.1266 -0.1971 -0.1565
32499W        W39099   5.248   5.929  32.769  0.1563  0.2117 -0.1816
32500W        W39100   1.201   6.296   1.823 -0.2827 -0.1189  0.3100
32501W        W39101  13.390   4.511  11.854 -0.1733 -0.0221 -0.1450
32502W        W39102   6.589   4.998  10.291  0.0763  0.3650  0.0649
32503W        W39103   5.374   3.841  12.596 -0.0442 -0.0637 -0.1324
32504W        W39104  16.532   0.241   5.593  0.0989  0.0998  0.0310
32505W        W39105   9.419   3.002   9.804  0.1404  0.2157 -0.1570
32506W        W39106   7.787   0.043  27.876  0.0983 -0.2735  0.2242
32507W        W39107  11.713   6.523   1.971 -0.3343  0.0822 -0.0776
32508W        W39108  21.190   6.600  22.855  0.1799 -0.2092 -0.1039
32509W        W39109  15.761   4.662  30.474 -0.0443 -0.0200  0.1474
32510W        W39110  10.753   5.067  32.088 -0.0336 -0.0587  0.4017
32511W        W39111   5.908   3.260   5.931  0.2068 -0.0557 -0.0525
32512W        W39112   2.686   3.888   1.273 -0.0075 -0.2229  0.0862
32513W        W39113   8.432   2.154  10.337 -0.0997  0.2990 -0.1215
32514W        W39114  15.543   1.293  35.938 -0.1331  0.1230  0.0508
32515W        W39115   4.560   0.131  33.129 -0.1205 -0.0740 -0.2201
32516W        W39116   6.291   3.003  31.858  0.3273  0.0061 -0.0588
32517W        W39117  20.211   3.248  33.182  0.1270 -0.0670  0.1154
32518W        W39118  18.626   2.738  22.551 -0.0038  0.1190 -0.1088
32519W        W39119  13.454   4.516  22.298 -0.2063 -0.2515  0.0625
32520W        W39120   7.039   0.852  29.027  0.0455 -0.0777 -0.2625
32521W        W39121  10.555   2.580  29.510  0.0132  0.1949  0.0154
32522W        W39122   7.075   2.128  31.136 -0.0551  0.1816  0.2018
32523W        W39123   5.716   1.024  31.750  0.2430 -0.3647 -0.1323
32524W        W39124  20.826   6.007  31.595  0.0589 -0.0063 -0.0217
32525W        W39125   5.019   4.067   8.906  0.4127  0.0162  0.1251
32526W        W39126   8.785   1.167  31.324 -0.0812 -0.1010 -0.1693
32527W        W39127  16.012   2.806  32.952  0.3287  0.2073 -0.1776
32528W        W39128  22.078   3.184   9.955 -0.0973  0.2824 -0.0059
32529W        W39129  11.765   4.132  33.670 -0.0824  0.2598  0.0433
32530W        W39130   5.181   3.915   9.686  0.1613 -0.2201  0.2696
32531W        W39131   2.244   0.799  29.504  0.3065  0.2931  0.0749
32532W        W39132  17.610   2.179  11.681  0.0371 -0.2126 -0.0889
32533W        W39133   5.946   2.159   8.791 -0.0092  0.0088 -0.0310
32534W        W39134   7.788   3.405  28.608 -0.2341  0.0978 -0.3011
32535W        W39135   8.277   2.283  23.277 -0.0587  0.1767  0.3453
32536W        W39136   8.056   0.457  28.624  0.1146 -0.2419 -0.1961
32537W        W39137  12.732   6.036  14.355  0.3046 -0.1168  0.0385
32538W        W39138  24.105   3.309  12.610  0.2861 -0.0613 -0.2637
32539W        W39139   9.062   5.994  26.342 -0.3062 -0.1734  0.0203
32540W        W39140   4.696   6.122  11.532 -0.2740 -0.0764 -0.1250
32541W        W39141  19.494   1.681   8.514  0.1779  0.0167  0.1667
32542W        W39142  15.340   2.266   3.845  0.2013  0.1103  0.3197
32543W        W39143  14.138   2.469   9.838  0.4336  0.0076 -0.2110
32544W        W39144  24.560   3.548   8.447  0.1711 -0.0654  0.0183
32545W        W39145  16.606   0.868   7.306 -0.1003 -0.1071  0.1075
32546W        W39146  10.355   4.790  32.038  0.1273  0.1491 -0.2752
32547W        W39147  13.796   2.221   1.733  0.0549 -0.1415 -0.1185
32548W        W39148  22.475   3.654  11.118  0.1310  0.1561 -0.0477
32549W        W39149  10.965   1.237  34.761 -0.2184  0.1808  0.2339
32550W        W39150   9.607   3.828   1.192  0.1730 -0.4731  0.2216
32551W        W39151  10.081   4.329  15.007  0.0753 -0.1074  0.2562
32552W        W39152   6.231   1.487   7.413 -0.0436  0.0598 -0.1679
32553W        W39153  11.463   3.439  24.062 -0.0002 -0.1273 -0.0201
32554W        W39154  22.885   5.262   3.499  0.1642  0.1981 -0.0905
32555W        W39155  13.276   1.639  15.365 -0.1569 -0.0341 -0.0504
32556W        W39156  25.123   4.743   4.625  0.1395  0.0703 -0.1794
32557W        W39157   0.385   3.169  35.595 -0.0897 -0.2653 -0.1314
32558W        W39158  23.693   1.800   2.336 -0.0844  0.0399  0.1933
32559W        W39159  22.197   5.910  24.485 -0.2173 -0.2819  0.3600
32560W        W39160   8.196   6.199  33.299  0.0079  0.0826 -0.0051
32561W        W39161   8.834   5.503  13.601 -0.0319  0.3159 -0.2050
32562W        W39162   1.742   1.962   6.348  0.3016  0.0695  0.0803
32563W        W39163  15.244   2.655  29.145 -0.1038 -0.0328 -0.0393
32564W        W39164  25.998   2.043  27.175 -0.2231  0.2760 -0.1648
32565W        W39165   4.729   1.814  20.914 -0.3385 -0.1002  0.1552
32566W        W39166  20.240   0.709   0.918  0.0049  0.0451  0.1841
32567W        W39167  13.056   6.464  14.650  0.0536 -0.3431  0.0309
32568W        W39168  26.342   1.714  26.878  0.0827  0.0812 -0.2128
32569W        W39169   5.939   3.679  30.442  0.0648  0.0113  0.1634
32570W        W39170   1.960   1.968  14.809  0.3822  0.0708  0.0979
32571W        W39171  15.317   1.078  15.985  0.1955 -0.1960  0.0121
32572W        W39172   0.227   5.449  22.862  0.0423 -0.2183 -0.4169
32573W        W39173   1.659   4.300  14.633 -0.1368  0.1645 -0.4730
32574W        W39174  10.409   4.457  33.593  0.0040  0.0716  0.3012
32575W        W39175   0.538   2.001  27.571 -0.0435 -0.1251 -0.0432
32576W        W39176   1.487   3.854  35.246  0.1192  0.0736 -0.3119
32577W        W39177  24.559   2.436  12.699  0.2662 -0.3345  0.0947
32578W        W39178  17.249   0.426  12.869  0.1576 -0.0798  0.3384
32579W        W39179  25.585   3.813  22.474  0.2243 -0.1866  0.1349
32580W        W39180  25.450   1.435   1.631 -0.2118 -0.2217  0.0565
32581W        W39181   4.705   2.755  22.959 -0.0765  0.0655  0.1358
32582W        W39182   0.469   6.145   6.474 -0.0200  0.2018 -0.2353
32583W        W39183  12.724   6.066  29.026 -0.3131 -0.1928 -0.0184
32584W        W39184  16.731   0.069   1.094  0.0460 -0.0007  0.0113
32585W        W39185  14.769   6.268  10.335  0.2807  0.2087 -0.0516
32586W        W39186  20.648   2.515   1.489  0.1592 -0.0140 -0.0497
32587W        W39187   9.207   5.015  35.339 -0.0518  0.0644  0.1122
32588W        W39188   6.430   0.131   9.149  0.0582 -0.0310  0.0094
32589W        W39189  11.247   3.187  31.396 -0.0857  0.0839  0.0122
32590W        W39190  25.813   5.352  32.184  0.2905  0.3711 -0.4871
32591W        W39191   2.345   3.909  23.883  0.0323  0.2613 -0.1726
32592W        W39192  17.750   3.717  26.740  0.0083  0.1791 -0.0251
32593W        W39193  10.872   0.316  26.678  0.1436 -0.2597  0.1358
32594W        W39194  20.098   0.846   5.596  0.0748  0.3022  0.2206
32595W        W39195   1.017   4.919  34.483 -0.2666 -0.0216 -0.2619
32596W        W39196   6.536   3.423  24.617 -0.3037 -0.0054 -0.1345
32597W        W39197   2.671   0.086  12.642 -0.2212  0.0731  0.1743
32598W        W39198  18.490   2.245   2.525  0.2276 -0.0912 -0.0096
32599W        W39199  24.834   6.280  14.162  0.1060  0.0861  0.0259
32600W        W39200  15.510   2.200  25.835 -0.1287  0.1118 -0.1140
32601W        W39201  23.397   1.243  12.792  0.0609 -0.0843  0.1779
32602W        W39202  19.597   0.773  27.661  0.1105  0.1204 -0.1017
32603W        W39203  16.965   2.810  28.193  0.0195 -0.2173 -0.0434
32604W        W39204  10.862   5.088   9.390  0.0653  0.1742  0.1166
32605W        W39205  24.049   1.473   4.956 -0.2915  0.0101 -0.1110
32606W        W39206  16.849   1.712   6.774 -0.2692 -0.1590  0.4552
32607W        W39207   7.472   2.156  34.530  0.3285  0.0998  0.1044
32608W        W39208  11.174   4.176   9.182 -0.0128 -0.1521 -0.1345
32609W        W39209  19.963   5.369  31.446 -0.0487  0.2421  0.2484
32610W        W39210  22.971   0.733   1.008 -0.2584 -0.1872  0.0657
32611W        W39211  12.337   4.319  29.610 -0.0769  0.0882 -0.2207
32612W        W39212  24.657   6.381  34.709 -0.2001 -0.0427  0.0974
32613W        W39213  15.819   2.389  29.961 -0.2034  0.0870 -0.2897
32614W        W39214  13.286   1.274  29.887 -0.1699  0.0381 -0.1450
32615W        W39215  18.667   3.029   0.510 -0.1825 -0.0979 -0.1703
32616W        W39216   4.184   3.997  22.127 -0.0626  0.0031  0.0478
32617W        W39217  10.423   4.520   4.137 -0.3146  0.0265  0.0264
32618W        W39218  13.107   5.775   5.672 -0.3617 -0.1747  0.1399
32619W        W39219   0.534   3.995   5.632  0.1115 -0.2092  0.1155
32620W        W39220   0.339   3.518  27.251  0.3830 -0.3165  0.3759
32621W        W39221   7.636   4.515  24.402  0.0207  0.0084 -0.0773
32622W        W39222   9.918   1.126  30.268 -0.0505 -0.0853 -0.1364
32623W        W39223  13.316   2.347   9.474 -0.2154  0.1377 -0.0564
32624W        W39224  21.317   5.964   2.592  0.2187 -0.1895  0.0449
32625W        W39225   3.321   3.347  24.838 -0.0189  0.0131 -0.1392
32626W        W39226  24.688   5.971  12.231 -0.2078  0.0650  0.0688
32627W        W39227  15.576   2.860  21.910  0.2281  0.0095  0.0218
32628W        W39228   0.554   5.302  11.810  0.4130  0.2413  0.1183
32629W        W39229   8.450   4.041  21.095  0.1422  0.1266 -0.1769
32630W        W39230  11.439   5.791  32.622  0.2048  0.0461 -0.1018
32631W        W39231   1.698   0.560  15.198 -0.1121  0.1463 -0.0357
32632W        W39232   5.320   2.772  15.687  0.1349  0.0756  0.0416
32633W        W39233   7.914   1.039   9.660  0.1136 -0.1225  0.1240
32634W        W39234   7.325   3.814  30.597 -0.0009 -0.0803  0.2261
32635W        W39235  21.078   5.758   0.444 -0.1463 -0.0220  0.2560
32636W        W39236  19.757   4.099   5.357 -0.1739  0.0878  0.0252
32637W        W39237  23.186   2.627  30.026 -0.3884 -0.0132 -0.0629
32638W        W39238   8.877   2.885  30.894 -0.0808 -0.4445  0.2130
32639W        W39239  25.101   6.089  23.226  0.1824  0.0184  0.1078
32640W        W39240   2.861   6.254  23.157 -0.1704  0.0894 -0.1527
32641W        W39241   4.445   5.953   0.550 -0.0604 -0.3306 -0.0578
32642W        W39242   0.707   1.000  12.763  0.2867 -0.0474 -0.1123
32643W        W39243  14.079   1.972  15.456 -0.2453  0.3846 -0.4203
32644W        W39244  25.757   5.022  25.890  0.0120 -0.1696 -0.3664
32645W        W39245   3.944   3.565  26.014  0.0241 -0.0984  0.1526
32646W        W39246  19.422   3.408   5.235 -0.3799 -0.1431  0.1129
32647W        W39247  13.483   0.209  29.069 -0.1688 -0.1169 -0.1519
32648W        W39248  16.827   4.642  32.129 -0.1973  0.1381  0.3212
32649W        W39249   1.863   4.109  13.192 -0.2508 -0.3317  0.1225
32650W        W39250  22.266   3.485   7.667  0.0401 -0.0928 -0.0063
32651W        W39251  11.135   2.877  25.517  0.1781 -0.3750 -0.1059
32652W        W39252  21.104   0.655   5.698  0.3647 -0.0206 -0.0269
32653W        W39253  24.321   4.081   4.077 -0.1574  0.0625 -0.4009
32654W        W39254   1.578   2.292  15.046  0.0933  0.1912  0.1729
32655W        W39255   8.793   4.113  22.714  0.2452  0.1433 -0.0613
32656W        W39256   5.242   2.330   3.668 -0.0390  0.0022 -0.1439
32657W        W39257   3.395   6.139   8.122  0.1552  0.2879 -0.0591
32658W        W39258   5.830   4.264  11.736  0.1379  0.0808 -0.1368
32659W        W39259   8.424   4.332  11.253 -0.0612 -0.3366 -0.2432
32660W        W39260  21.631   3.704  30.311 -0.2746  0.0174 -0.0923
32661W        W39261  15.901   1.898  34.847  0.0258  0.2774  0.2207
32662W        W39262  11.482   1.780  10.446 -0.2487 -0.2892  0.2841
32663W        W39263  11.957   2.505  22.587  0.0467 -0.1407  0.2689
32664W        W39264  12.299   6.363  11.902 -0.0333 -0.0858 -0.2049
32665W        W39265   9.636   5.973  33.633 -0.0879  0.1761  0.2323
32666W        W39266   5.599   5.714  15.350  0.0315 -0.1455 -0.0044
32667W        W39267  16.142   0.908  30.731  0.0029  0.0097  0.2380
32668W        W39268  25.209   5.532  32.638 -0.1868 -0.1742 -0.1572
32669W        W39269  12.151   6.007  33.275 -0.2369  0.1813 -0.0623
32670W        W39270  18.869   4.550  25.474  0.0599  0.1675 -0.1311
32671W        W39271   3.814   4.910  22.204 -0.1511 -0.1253 -0.0758
32672W        W39272  13.152   4.716   2.373 -0.0278  0.0494 -0.0947
32673W        W39273  21.620   4.137   9.071 -0.2521  0.0830 -0.0834
32674W        W39274   4.240   4.289  21.549  0.1630 -0.0970 -0.0431
32675W        W39275   9.525   1.671  26.864  0.2166  0.2632 -0.0841
32676W        W39276  23.849   3.711  28.235  0.1337  0.2372  0.1212
32677W        W39277   3.891   5.084  31.649 -0.3572 -0.0737  0.0041
32678W        W39278  10.014   4.478  14.556 -0.1458  0.0691  0.0692
32679W        W39279   3.089   2.472  34.107 -0.0880  0.1396 -0.2394
32680W        W39280   8.746   0.736  31.514 -0.0498  0.0102  0.0171
32681W        W39281   5.971   3.032   2.702 -0.1834  0.0168 -0.1502
32682W        W39282  20.196   5.774  23.668 -0.0481  0.0081  0.0453
32683W        W39283  24.021   3.226  31.416  0.2967  0.1460 -0.0268
32684W        W39284  15.245   3.148  27.320 -0.3010  0.0020 -0.0126
32685W        W39285  20.981   5.489  34.188 -0.2045  0.0159 -0.0863
32686W        W39286  24.006   0.048   9.165  0.0226 -0.0376 -0.1679
32687W        W39287  19.258   1.926   0.520  0.3040  0.0228  0.0301
32688W        W39288  13.983   2.490  15.514  0.3047  0.2661  0.1196
32689W        W39289  26.261   4.623  21.670 -0.1294 -0.4588 -0.1363
32690W        W39290   4.578   1.215  14.013  0.0560 -0.0965  0.0395
32691W        W39291   8.949   3.892  23.659 -0.1147  0.1035  0.0817
32692W        W39292   2.282   3.357  32.133 -0.0260  0.1988 -0.1850
32693W        W39293  24.046   1.001   8.955  0.0085 -0.0548  0.0844
32694W        W39294  21.562   6.093   9.961  0.1150 -0.1467  0.0725
32695W        W39295  12.793   1.890  12.980 -0.3446  0.3377 -0.1556
32696W        W39296  18.805   1.730  31.239  0.1837 -0.2479  0.1060
32697W        W39297  13.908   2.249  13.930  0.2304 -0.0301 -0.0151
32698W        W39298   9.740   4.652  15.550 -0.0396  0.1010 -0.1379
32699W        W39299  17.487   0.278   0.039  0.0210 -0.2997 -0.1597
32700W        W39300  10.601   4.932  33.656  0.0264 -0.3663  0.0263
32701W        W39301  12.181   5.801   2.682  0.0999 -0.2163 -0.1638
32702W        W39302  10.742   5.467  32.386  0.2760 -0.1363 -0.2085
32703W        W39303   2.216   3.510  31.685 -0.1957 -0.3538 -0.0575
32704W        W39304   5.148   0.949  35.530  0.0692 -0.0720  0.2034
32705W        W39305   8.762   4.855   3.007  0.0879  0.0195 -0.1132
32706W        W39306   8.498   3.615   7.423  0.2531  0.1108  0.2282
32707W        W39307   5.655   1.911  33.846  0.2920  0.1531  0.2858
32708W        W39308   8.439   6.072  28.190  0.2597  0.3057  0.1414
32709W        W39309  10.684   0.800   8.340 -0.1505 -0.0903 -0.0207
32710W        W39310   8.583   3.888   9.634  0.2228 -0.3359  0.0861
32711W        W39311  22.799   4.739  23.634  0.3097  0.1222  0.0754
32712W        W39312   8.728   4.847  25.180  0.1347 -0.0039  0.0460
32713W        W39313  20.523   2.106  30.084  0.0695  0.0636 -0.1770
32714W        W39314   5.677   6.528  24.350 -0.0531  0.0890  0.0525
32715W        W39315  16.617   0.849   7.884  0.3170  0.5271  0.0358
32716W        W39316  23.683   4.227  12.968 -0.0225  0.0352 -0.0529
32717W        W39317  20.902   2.389  33.428  0.0784 -0.0023  0.4088
32718W        W39318   1.492   0.466  29.811  0.1042 -0.2714  0.1499
32719W        W39319   0.631   5.587  24.678  0.1105 -0.2717  0.2506
32720W        W39320  25.290   0.055  21.029  0.1567  0.3505 -0.3012
32721W        W39321  25.013   1.657  22.855 -0.3884 -0.6216  0.1600
32722W        W39322  13.042   2.458  31.314 -0.2933  0.0445 -0.1509
32723W        W39323   7.458   1.728  35.406  0.1799  0.0484 -0.1587
32724W        W39324  23.399   3.497  30.998  0.0879  0.1109 -0.0987
32725W        W39325   7.563   3.931  13.529  0.0498 -0.0551  0.3071
32726W        W39326   7.082   5.696  29.955  0.1308  0.0554 -0.3144
32727W        W39327   6.241   2.932  26.806 -0.0473  0.2799  0.1832
32728W        W39328  20.105   2.558  23.953 -0.0912 -0.3361  0.1345
32729W        W39329   3.132   2.352   7.367  0.0226  0.1880  0.0371
32730W        W39330   0.188   3.582  23.799  0.2593  0.1662 -0.1289
32731W        W39331  22.120   2.250   5.412  0.0181 -0.2449  0.0098
32732W        W39332   3.748   2.699  12.539 -0.0430 -0.0822 -0.1117
32733W        W39333  11.947   0.002   1.081  0.2371  0.2831 -0.0944
32734W        W39334  20.352   0.420   2.049 -0.2175 -0.1332 -0.1695
32735W        W39335  24.125   0.280  22.103 -0.1073  0.0801 -0.0617
32736W        W39336  10.428   6.351   4.571 -0.1436  0.0512  0.0866
32737W        W39337   1.992   3.404  26.635 -0.1636 -0.1117  0.0592
32738W        W39338  14.440   4.294  33.375  0.0305  0.0011 -0.2160
32739W        W39339   6.486   4.433  34.668  0.2839 -0.1785  0.0514
32740W        W39340   5.823   1.464  35.152  0.0076  0.0640 -0.0810
32741W        W39341  13.471   6.239   7.493  0.3608  0.0955  0.0346
32742W        W39342  13.636   3.263   1.477  0.1797 -0.0731 -0.0729
32743W        W39343  21.615   0.999  29.157  0.0565 -0.0194  0.1268
32744W        W39344  22.764   0.151  21.163  0.0653 -0.1013 -0.3242
32745W        W39345  24.860   3.592  13.458 -0.1869  0.1077 -0.2217
32746W        W39346  10.134   6.310   3.313 -0.2664 -0.1027  0.0507
32747W        W39347  17.524   0.733  22.756  0.0579 -0.0955  0.0220
32748W        W39348  17.058   3.053  22.990  0.1237  0.2090 -0.2771
32749W        W39349  16.496   6.174  24.933 -0.1221 -0.1554 -0.2343
32750W        W39350  17.031   2.511   4.066 -0.1067 -0.3062  0.0922
32751W        W39351  13.315   1.049  33.228 -0.3060  0.3461  0.0221
32752W        W39352  15.550   6.301  33.964 -0.1375  0.0188  0.0864
32753W        W39353  25.215   0.222  31.064  0.3985 -0.2007 -0.0599
32754W        W39354   5.467   2.036  22.826  0.1925  0.3258  0.1608
32755W        W39355  25.913   3.172  36.053  0.3030 -0.0421  0.0267
32756W        W39356   2.201   6.000  25.960 -0.1372  0.2614 -0.0268
32757W        W39357  17.812   1.758  34.925 -0.1143  0.2704  0.0542
32758W        W39358   0.333   4.683  30.285 -0.1254 -0.1256 -0.0915
32759W        W39359  19.978   2.854  28.773  0.0896 -0.1126 -0.0565
32760W        W39360  19.257   1.409   9.120  0.3871  0.1177 -0.0943
32761W        W39361   1.124   0.808  12.930 -0.0317  0.2901  0.0278
32762W        W39362   9.377   0.308  14.288  0.1182 -0.0526  0.1673
32763W        W39363  22.048   1.569   0.718 -0.0851 -0.0714 -0.0936
32764W        W39364  26.318   2.550   4.297  0.2282 -0.0292  0.0088
32765W        W39365   3.014   6.397  32.472 -0.0722 -0.1991 -0.0293
32766W        W39366  17.502   4.074  28.145  0.1611 -0.0562  0.1849
32767W        W39367  19.729   1.758   6.000 -0.0969 -0.0382 -0.1742
32768W        W39368   1.449   3.952  33.836  0.1659  0.0251  0.3993
32769W        W39369   4.002   3.080   2.057 -0.1603 -0.0469 -0.1636
32770W        W39370  16.718   6.514   9.939  0.1990 -0.1229 -0.0191
32771W        W39371  15.304   1.151  34.302 -0.1763 -0.0140 -0.1029
32772W        W39372   4.068   2.681  14.827 -0.0284 -0.3700 -0.4321
32773W        W39373  21.112   2.528  24.959  0.0000 -0.0950  0.1974
32774W        W39374   1.973   2.274   5.726 -0.2187 -0.1343 -0.2238
32775W        W39375  19.375   4.127  10.262  0.3799  0.0266 -0.2648
32776W        W39376  13.836   0.212  33.676  0.3147  0.1792  0.1827
32777W        W39377  26.256   5.464  26.617 -0.2644 -0.0648  0.3177
32778W        W39378   2.227   1.416   2.304  0.2596  0.0473  0.0624
32779W        W39379   6.169   2.277  28.105 -0.1857 -0.1578 -0.1086
32780W        W39380  19.498   4.825  24.571  0.0902 -0.1037  0.0958
32781W        W39381  20.396   2.990  21.482  0.0776 -0.1007 -0.0531
32782W        W39382  26.309   2.504   9.257 -0.2408  0.1761 -0.3311
32783W        W39383   9.439   1.653   3.217  0.3904  0.0339 -0.2963
32784W        W39384   5.033   2.310  13.305 -0.1418 -0.3183  0.0694
32785W        W39385  24.620   1.961  14.351  0.3518 -0.2915 -0.0535
32786W        W39386  25.865   2.773   4.291  0.0834  0.1408 -0.2612
32787W        W39387  15.931   5.291  31.261  0.2204 -0.2182 -0.0710
32788W        W39388   6.260   0.624   9.716  0.2980 -0.2010 -0.0931
32789W        W39389   4.449   4.298  28.872 -0.1489 -0.2336 -0.1524
32790W        W39390   4.899   6.153  26.732  0.2357  0.3025  0.3590
32791W        W39391   6.405   1.513   0.784  0.2969  0.2049 -0.3312
32792W        W39392   8.440   1.530  26.415 -0.0593  0.0704  0.0166
32793W        W39393  16.020   6.441   5.763  0.0462  0.0702  0.2180
32794W        W39394   6.832   5.740  15.605  0.2504 -0.1745  0.2924
32795W        W39395  16.237   5.175  33.129 -0.0562 -0.3093 -0.2718
32796W        W39396  20.462   1.808  30.647 -0.0639  0.2834 -0.1248
32797W        W39397  13.849   0.490  34.081  0.0338 -0.2295  0.1095
32798W        W39398  25.020   5.999   4.477  0.0763  0.0734 -0.0188
32799W        W39399  25.195   5.879   6.386 -0.1982 -0.1022 -0.0001
32800W        W39400  23.560   0.878   5.324  0.0968 -0.0460 -0.0102
32801W        W39401  10.478   2.217  14.094 -0.0472 -0.0609 -0.0051
32802W        W39402  24.391   2.588  30.784 -0.1128 -0.1532 -0.1938
32803W        W39403   2.924   6.211  14.344 -0.1406  0.0167  0.0255
32804W        W39404   6.664   3.123  20.500 -0.1063 -0.1134 -0.0589
32805W        W39405  18.620   6.300  14.446  0.0638 -0.1752  0.0986
32806W        W39406  12.283   6.103  14.681 -0.0858 -0.2410  0.4364
32807W        W39407   5.562   6.591   4.143 -0.2161 -0.0451 -0.3306
32808W        W39408  10.819   0.535  25.354 -0.0748  0.4009  0.2475
32809W        W39409   6.288   0.262  32.688  0.2267 -0.0137  0.1074
32810W        W39410   0.322   4.753  27.558  0.0546 -0.2234  0.1435
32811W        W39411  23.398   0.741  34.027 -0.1364 -0.2715 -0.0431
32812W        W39412  11.963   4.539  12.650 -0.1322  0.0876  0.2790
32813W        W39413   7.985   1.054  20.752  0.0844 -0.0526 -0.1913
32814W        W39414  22.651   1.423   8.997 -0.0544  0.1640  0.0487
32815W        W39415  20.993   3.535   9.361 -0.1154  0.0245 -0.0437
32816W        W39416   1.038   3.772  26.968  0.0337  0.0932  0.1105
32817W        W39417  22.974   4.975  21.626 -0.0372 -0.2152 -0.0674
32818W        W39418   8.807   5.815   3.129  0.2169  0.1088 -0.0767
32819W        W39419  15.402   3.776   4.757  0.1218 -0.4128 -0.3528
32820W        W39420  11.776   0.908   8.129  0.0797 -0.2151 -0.0727
32821W        W39421   9.094   5.583  24.252 -0.1337 -0.2132 -0.1122
32822W        W39422  10.890   5.832  21.093 -0.0696  0.0826 -0.0584
32823W        W39423   1.468   3.387  23.889  0.0780  0.0436 -0.0529
32824W        W39424  10.086   4.749  33.892  0.2346  0.0156  0.1608
32825W        W39425  22.571   5.748  23.640 -0.1904  0.0149  0.0620
32826W        W39426  12.172   2.380   1.174  0.1131 -0.1188  0.2131
32827W        W39427   6.268   5.202   4.363 -0.2535 -0.0792  0.4807
32828W        W39428   8.139   3.048   4.527 -0.1519 -0.0964  0.3267
32829W        W39429   9.801   3.133   1.825 -0.1090  0.0898  0.0480
32830W        W39430  12.569   0.918  32.060  0.1803 -0.1203 -0.1078
32831W        W39431  24.238   5.608  34.583 -0.0102 -0.1691 -0.2141
32832W        W39432   9.627   1.503  29.055 -0.0510  0.1520 -0.0247
32833W        W39433  26.098   3.430  23.740 -0.1458  0.0800  0.1652
32834W        W39434  15.765   2.724  24.657 -0.0452  0.2921  0.0723
32835W        W39435  10.826   4.360   0.484 -0.0196 -0.1432 -0.2895
32836W        W39436  23.683   1.296  12.361  0.0571  0.0772  0.1621
32837W        W39437   8.462   0.156  25.895 -0.1226 -0.0177 -0.2414
32838W        W39438   2.712   2.742  33.464 -0.0742 -0.0368 -0.1401
32839W        W39439  12.221   2.452  23.490  0.1391  0.0872  0.0944
32840W        W39440  17.713   0.255  29.650 -0.3451 -0.0604 -0.1429
32841W        W39441   7.704   5.950  13.179 -0.1783  0.0524  0.1365
32842W        W39442   7.599   0.920   2.648  0.2419 -0.0373  0.0813
32843W        W39443   1.104   4.750  28.245 -0.1115  0.0113 -0.0326
32844W        W39444   7.734   4.347  13.325 -0.2021  0.0347  0.2096
32845W        W39445   4.592   4.032  13.455 -0.1505  0.1553 -0.1940
32846W        W39446   0.973   1.288   3.033 -0.0890 -0.0715  0.0359
32847W        W39447  17.631   4.391   0.922 -0.4355 -0.2936  0.1990
32848W        W39448  15.373   5.936  33.738  0.2502  0.1316  0.0378
32849W        W39449  17.827   0.011  34.249  0.1677 -0.0022 -0.3853
32850W        W39450  14.063   2.932   1.335  0.2794  0.0226 -0.0511
32851W        W39451   7.785   4.401  13.883  0.1131  0.2101  0.0749
32852W        W39452   5.176   5.885  30.499  0.2844  0.0469  0.0664
32853W        W39453  19.067   1.606   3.599  0.0642 -0.2054 -0.1407
32854W        W39454   1.542   3.720   3.596  0.0701  0.1394 -0.0357
32855W        W39455  13.631   0.132  32.252 -0.0064  0.0053 -0.2243
32856W        W39456  24.829   5.205  29.838 -0.0141 -0.1030  0.0098
32857W        W39457  15.574   3.720  35.272 -0.0996  0.1668  0.1585
32858W        W39458  25.942   1.092  14.539  0.1616  0.4617 -0.0459
32859W        W39459  19.561   6.135  24.772 -0.0885  0.0723  0.0479
32860W        W39460   2.978   1.053  32.123  0.1022 -0.0057  0.4105
32861W        W39461   6.250   2.787  13.186 -0.0518 -0.0410  0.0769
32862W        W39462   1.435   5.966  21.311 -0.0360  0.1617  0.1080
32863W        W39463  16.037   6.229   5.178 -0.1214  0.1193  0.0096
32864W        W39464  16.979   5.330  31.341  0.3462  0.0668  0.0695
32865W        W39465  16.881   5.100  24.206 -0.0162 -0.2727  0.1387
32866W        W39466   5.666   4.897  26.791 -0.0319 -0.1436  0.2258
32867W        W39467  12.032   0.803  27.853 -0.0271 -0.0165  0.1425
32868W        W39468  19.548   5.268  26.311  0.2597  0.1283  0.0356
32869W        W39469  21.675   1.350  25.278  0.2952  0.1011  0.0531
32870W        W39470   9.636   2.370  13.885 -0.1990 -0.2018 -0.0473
32871W        W39471  18.184   0.582  31.125  0.0696  0.0683  0.0991
32872W        W39472   3.210   5.979  28.955  0.2004 -0.1024  0.1180
32873W        W39473   7.387   1.628   0.822 -0.0102  0.0032 -0.0887
32874W        W39474  13.365   1.386  34.841 -0.1116 -0.0855 -0.0467
32875W        W39475   6.061   4.338  33.424  0.0351 -0.1987 -0.1338
32876W        W39476   1.971   6.222  32.237  0.1039 -0.2310 -0.2367
32877W        W39477  17.687   4.128  21.259  0.2004 -0.1689  0.3321
32878W        W39478  12.273   4.796  30.544  0.5078 -0.4462 -0.2401
32879W        W39479   1.630   1.982  22.427 -0.0703  0.2200 -0.0916
32880W        W39480  23.228   0.286  21.247 -0.1907  0.1207  0.0004
32881W        W39481  22.903   4.681   7.123 -0.0252 -0.1543 -0.0603
32882W        W39482  12.966   2.930   6.820 -0.1964 -0.1884 -0.3171
32883W        W39483   8.058   3.058  34.488 -0.2704 -0.1042  0.2091
32884W        W39484   4.222   2.567  27.996 -0.0014  0.1201 -0.0105
32885W        W39485  23.108   4.247   7.188 -0.4457  0.0743 -0.0353
32886W        W39486  23.356   3.048  12.856 -0.3320  0.0654  0.1442
32887W        W39487   7.206   6.374  25.803  0.0222 -0.2344  0.2737
32888W        W39488  13.050   5.116  27.752 -0.2235 -0.2004  0.3247
32889W        W39489  24.944   1.703  32.647 -0.0634  0.1901  0.1016
32890W        W39490  16.223   3.546   5.297 -0.0309  0.1310  0.0296
32891W        W39491   6.803   6.579  30.236 -0.2622 -0.1000 -0.0818
32892W        W39492   5.455   3.742  14.484  0.0964 -0.0870 -0.1161
32893W        W39493   4.191   1.308  11.570 -0.0134 -0.2271 -0.2717
32894W        W39494   1.647   6.067  28.135 -0.0068  0.0503 -0.0371
32895W        W39495  21.773   4.614   9.000  0.0896  0.0052 -0.2526
32896W        W39496   0.261   3.753  33.831  0.1573  0.2062  0.0716
32897W        W39497   5.376   3.675  29.161  0.2406  0.0168  0.2824
32898W        W39498  20.751   5.193   1.739  0.0533  0.1292 -0.2078
32899W        W39499  12.412   6.401   4.552  0.3004  0.1901 -0.1849
32900W        W39500   6.678   1.115   8.129 -0.4216  0.0956 -0.0299
32901W        W39501  23.324   0.409  12.546  0.0290  0.0095  0.0285
32902W        W39502  14.527   4.089  31.490 -0.1262 -0.1823  0.0764
32903W        W39503  10.451   3.181   5.951 -0.0527 -0.4481 -0.1289
32904W        W39504   3.490   5.984   1.235 -0.0843 -0.1148  0.0080
32905W        W39505  23.848   2.226   9.195 -0.0406 -0.0966 -0.4057
32906W        W39506   4.767   2.765  31.082  0.1713  0.0031 -0.0741
32907W        W39507  18.551   2.622  32.004  0.0950 -0.0353  0.1075
32908W        W39508  17.993   3.524   4.532 -0.3164  0.1865  0.2159
32909W        W39509  25.727   3.953  21.021  0.1172 -0.0883  0.0657
32910W        W39510  22.162   4.899  10.750  0.0206  0.1785  0.0984
32911W        W39511  12.461   0.957   1.426  0.3205  0.0756  0.2442
32912W        W39512  15.478   0.907  33.401  0.0962  0.1466 -0.1292
32913W        W39513  15.149   6.143  29.372 -0.0531 -0.0445 -0.1245
32914W        W39514  23.118   4.450  21.633 -0.1842  0.0834  0.0803
32915W        W39515  13.770   3.956  27.916  0.1776 -0.1755 -0.2837
32916W        W39516  10.810   5.109  29.917 -0.1065 -0.0772  0.0537
32917W        W39517  13.534   2.983  24.785  0.1613 -0.3315  0.0013
32918W        W39518  12.331   2.141   9.388  0.0568 -0.1005  0.1027
32919W        W39519  17.630   4.299  35.693  0.1161  0.1093 -0.1902
32920W        W39520  10.056   3.910  21.942  0.1651 -0.0542 -0.1518
32921W        W39521  20.362   4.302  28.243  0.0727  0.0258 -0.2964
32922W        W39522   2.213   3.298  35.414 -0.2440  0.0976  0.1484
32923W        W39523  19.698   5.524  11.075 -0.0022 -0.0363 -0.5089
32924W        W39524  12.686   0.429  25.071  0.0725 -0.0612 -0.1453
32925W        W39525  24.214   2.580  12.114  0.1392  0.3186 -0.1924
32926W        W39526  21.555   0.827  14.558 -0.2068 -0.2253  0.2719
32927W        W39527   6.596   3.535  25.947 -0.0354  0.2716 -0.0830
32928W        W39528  10.717   0.627   7.290  0.0520 -0.2145 -0.1499
32929W        W39529   7.583   5.308   1.294  0.2519 -0.2870 -0.1590
32930W        W39530  13.907   1.702   4.668 -0.1220 -0.3824  0.0836
32931W        W39531   8.042   4.717   3.738 -0.0024  0.1448  0.1402
32932W        W39532  10.620   3.209  32.678  0.1031  0.1396  0.0353
32933W        W39533  23.735   0.153  28.813  0.1761  0.0579  0.3157
32934W        W39534  12.046   1.146  12.450 -0.2893  0.1377 -0.1623
32935W        W39535  19.849   0.297  25.442  0.0288  0.0315  0.2489
32936W        W39536  13.475   5.126  26.364  0.0553 -0.1665 -0.0531
32937W        W39537   6.737   5.793  28.995 -0.0416  0.1446  0.1725
32938W        W39538  11.785   4.920  10.411  0.1165 -0.0002  0.2470
32939W        W39539   8.353   2.225  26.981 -0.0731  0.0421 -0.1421
32940W        W39540  20.135   1.671   6.642  0.1252 -0.3021 -0.0301
32941W        W39541   4.231   5.780  14.935  0.2670  0.1088 -0.1944
32942W        W39542  18.377   5.771  35.356 -0.1342  0.0093 -0.2841
32943W        W39543  11.046   3.633  32.474 -0.1983 -0.1074 -0.0113
32944W        W39544  14.749   3.410  13.468 -0.1506 -0.0388  0.1038
32945W        W39545   3.967   5.195  34.135  0.0867 -0.0406 -0.2688
32946W        W39546   0.393   2.293  20.698  0.1477  0.0536 -0.1036
32947W        W39547  10.172   4.128  23.735 -0.0295  0.2714  0.1146
32948W        W39548   9.190   4.122  32.553 -0.0054  0.0057  0.2536
32949W        W39549   9.279   3.293  13.500  0.1352 -0.1534  0.3110
32950W        W39550  11.976   2.170   4.368  0.4311 -0.0508 -0.1363
32951W        W39551  12.923   2.931  22.162  0.0681  0.0903 -0.1889
32952W        W39552   7.827   3.448  34.759  0.3705  0.1540  0.1400
32953W        W39553   6.791   1.349  33.594 -0.2050 -0.1190 -0.0543
32954W        W39554   0.395   5.937   0.389  0.0652 -0.1510 -0.0776
32955W        W39555   1.250   0.013   2.783 -0.3190  0.4792 -0.0059
32956W        W39556  24.502   2.247  22.846 -0.3688 -0.0064 -0.0990
32957W        W39557  22.021   1.281  34.122 -0.0787 -0.1993  0.1268
32958W        W39558   6.991   1.361  25.897  0.1019 -0.0669 -0.2987
32959W        W39559   3.760   1.142  11.794 -0.0478 -0.1298 -0.2719
32960W        W39560   0.315   5.559  27.387 -0.0075 -0.2391 -0.3752
32961W        W39561  10.309   4.946  34.281  0.0496 -0.1218  0.1263
32962W        W39562  10.887   3.538  27.954 -0.0353  0.0258  0.1989
32963W        W39563  24.403   5.379  29.585  0.1649  0.0774  0.2586
32964W        W39564  11.446   6.274  12.658  0.0044 -0.1426  0.0510
32965W        W39565   5.466   3.231   3.607 -0.3971 -0.0437 -0.0611
32966W        W39566   2.577   6.270  10.463 -0.1375 -0.0866  0.0634
32967W        W39567  22.901   3.867  28.520 -0.1082  0.0068 -0.0153
32968W        W39568  25.817   3.565  31.207 -0.1721 -0.1755  0.1852
32969W        W39569   3.190   6.256   9.052  0.0538 -0.2717 -0.0165
32970W        W39570   8.413   4.304  11.801  0.1731 -0.0890 -0.0145
32971W        W39571  19.259   5.232  27.769 -0.1524  0.1535 -0.1992
32972W        W39572  24.314   5.235   7.456 -0.2767 -0.1295  0.2204
32973W        W39573   4.893   3.478  24.391  0.1021 -0.1255 -0.1669
32974W        W39574  15.682   0.870  29.602  0.2738 -0.0702  0.1466
32975W        W39575  11.403   3.850   6.639  0.0331  0.0862  0.0994
32976W        W39576  15.899   6.591  31.679  0.0216 -0.2992  0.0334
32977W        W39577   5.365   0.239  30.712  0.0203  0.0317  0.3345
32978W        W39578  25.234   4.597   6.527 -0.2182 -0.1050 -0.1237
32979W        W39579  13.423   3.219   2.297  0.0992  0.1856  0.2037
32980W        W39580   7.094   1.570  27.280  0.2099 -0.2187  0.1162
32981W        W39581   2.367   3.636  11.908 -0.0182  0.0853 -0.1882
32982W        W39582  19.058   4.424  20.713 -0.0371  0.1405  0.0160
32983W        W39583   5.499   2.717  34.713 -0.2531  0.2585 -0.4154
32984W        W39584   1.814   4.129  28.063 -0.3102 -0.1920  0.1338
32985W        W39585   1.513   2.201  29.509 -0.2838 -0.0122  0.3195
32986W        W39586  26.398   2.594   3.200  0.3037 -0.0440 -0.0701
32987W        W39587   4.955   5.278   5.210  0.3530 -0.2138  0.2180
32988W        W39588  12.861   5.598  29.143  0.1558  0.1977 -0.0419
32989W        W39589  17.886   2.577  31.914 -0.1403 -0.0627 -0.1053
32990W        W39590   9.959   4.982   5.351 -0.3736  0.2297 -0.0646
32991W        W39591  16.612   0.198  25.612 -0.0795  0.0348  0.1738
32992W        W39592   8.044   3.060   1.349 -0.1197  0.0608 -0.0970
32993W        W39593  23.848   2.265   1.540  0.1756  0.1202  0.0589
32994W        W39594   7.793   2.874  25.244 -0.0208 -0.0570  0.0991
32995W        W39595   1.291   1.634   0.681  0.1022 -0.1297 -0.0130
32996W        W39596  12.880   2.806   0.342 -0.1021  0.2811 -0.1485
32997W        W39597   3.025   2.035   7.025  0.0392  0.0644  0.1863
32998W        W39598   5.481   6.142  26.044  0.1794 -0.0532 -0.2859
32999W        W39599  24.819   5.486  26.766 -0.0573 -0.2127 -0.2718
33000W        W39600   0.480   3.970   2.004 -0.1777 -0.1526  0.0598
33001W        W39601  13.412   0.522  27.643  0.2547 -0.0441 -0.1694
33002W        W39602   4.342   1.192   1.824 -0.0536  0.0635 -0.2179
33003W        W39603  17.010   6.252  31.771 -0.0548  0.0300 -0.0189
33004W        W39604  26.137   0.693  26.566  0.1533 -0.1138  0.1927
33005W        W39605  15.856   6.175  11.727 -0.0525 -0.0310 -0.3256
33006W        W39606  20.215   6.146  27.756  0.1449 -0.0130 -0.1212
33007W        W39607   6.698   1.589  11.035 -0.0365 -0.1073 -0.1127
33008W        W39608   7.535   4.658   5.251 -0.2499 -0.3170 -0.1306
33009W        W39609  18.177   3.360  11.548  0.0164  0.0094 -0.2610
33010W        W39610  11.520   3.308  14.172 -0.1962 -0.0610 -0.1318
33011W        W39611  11.176   0.221   4.424  0.2098 -0.2019 -0.2178
33012W        W39612   8.056   5.681  22.136  0.2269 -0.1656  0.0780
33013W        W39613   9.743   0.144  22.838  0.0588 -0.0393 -0.0063
33014W        W39614  24.189   6.080  12.351  0.0136  0.2760 -0.3399
33015W        W39615  11.219   5.281   6.042  0.1439  0.0246  0.2464
33016W        W39616  10.526   6.041  35.619 -0.0542  0.0864  0.1582
33017W        W39617   1.780   5.800  32.165  0.1678 -0.0542 -0.0098
33018W        W39618  19.615   3.885  14.769 -0.2697  0.1729  0.2934
33019W        W39619   5.727   0.361  27.159  0.2216  0.1399  0.0104
33020W        W39620   9.883   2.401  29.848 -0.0697 -0.4598  0.3560
33021W        W39621  20.754   3.095   9.513  0.0086  0.2302 -0.2012
33022W        W39622  17.158   0.388  31.694  0.2246  0.0911  0.0100
33023W        W39623  22.555   2.715  13.716 -0.2217  0.0062  0.2992
33024W        W39624  23.899   2.798  24.309 -0.0128  0.4060 -0.0460
33025W        W39625  18.684   4.377  23.418 -0.3914 -0.2536 -0.0296
33026W        W39626  15.027   1.968  27.020  0.0167  0.0232  0.0251
33027W        W39627   7.415   4.620  28.631  0.0774 -0.0466 -0.0274
33028W        W39628  24.296   5.895  14.969 -0.0440 -0.0334  0.2859
33029W        W39629   8.902   0.133  21.171  0.0913  0.0078 -0.2517
33030W        W39630  21.781   3.161  23.043  0.1200 -0.2963 -0.0786
33031W        W39631  21.496   2.300  32.985  0.0432  0.0336 -0.0303
33032W        W39632   8.303   5.123   3.911  0.1532  0.1515 -0.0366
33033W        W39633  19.465   4.400  30.748  0.2025 -0.0362  0.1929
33034W        W39634  23.005   2.081  27.245 -0.0384  0.0632  0.0484
33035W        W39635  20.406   6.220  34.260  0.3950  0.2189 -0.1946
33036W        W39636   3.227   3.375  28.849  0.4379  0.1481 -0.0826
33037W        W39637  15.123   1.376   8.507 -0.1337 -0.0280  0.1820
33038W        W39638  23.207   3.169  21.996  0.0942  0.2431 -0.1461
33039W        W39639  22.026   0.235  25.025  0.3413  0.0122 -0.2512
33040W        W39640  24.871   5.337  20.298 -0.0942  0.1969  0.0546
33041W        W39641  12.947   1.579  29.553  0.0516 -0.0228  0.2280
33042W        W39642   0.938   3.547  11.630  0.1417 -0.5589 -0.1757
33043W        W39643  23.563   0.432  33.346 -0.0802  0.1220 -0.3622
33044W        W39644   8.846   5.734   9.751 -0.1388 -0.2500 -0.1324
33045W        W39645  23.525   4.366   9.221 -0.1451 -0.2351 -0.0972
33046W        W39646   1.860   4.140  23.808  0.1855 -0.0254 -0.1357
33047W        W39647  10.634   3.506   3.165  0.3412 -0.1928 -0.0772
33048W        W39648  14.858   5.585  13.436  0.1079  0.0562  0.2520
33049W        W39649   3.467   6.514  35.070 -0.0212 -0.0458 -0.1791
33050W        W39650  10.252   6.015   2.803  0.0255 -0.2185  0.1734
33051W        W39651  12.243   0.713  23.515 -0.2529  0.1032  0.1926
33052W        W39652  22.129   0.227   3.410  0.0228 -0.1208 -0.1122
33053W        W39653   9.446   0.583  32.829 -0.1652  0.1170  0.0599
33054W        W39654   3.259   5.101   3.480 -0.0120  0.0164  0.0838
33055W        W39655  23.271   0.273   8.147 -0.0464 -0.2129  0.1052
33056W        W39656   5.115   0.529  35.810  0.0188 -0.1018 -0.4440
33057W        W39657  19.657   0.184   0.557  0.0714 -0.0516  0.0148
33058W        W39658  18.547   1.744  35.851 -0.3275  0.4402 -0.1631
33059W        W39659  19.374   2.040   9.868  0.2483  0.4943 -0.0321
33060W        W39660   5.590   2.866  11.096 -0.0838 -0.0037  0.0842
33061W        W39661  22.047   2.330  20.800 -0.3667  0.1768  0.0930
33062W        W39662   3.192   2.589   2.180  0.0029  0.0601 -0.2123
33063W        W39663   1.820   2.482   4.101  0.2373  0.0262  0.0517
33064W        W39664   4.341   0.109  25.592 -0.1756  0.2454  0.0487
33065W        W39665  22.090   5.418  11.546 -0.0007  0.0793 -0.0896
33066W        W39666  10.645   4.554  26.139  0.0899  0.2773 -0.1578
33067W        W39667  25.652   4.023  12.343  0.0325 -0.2031  0.0199
33068W        W39668   9.830   2.913   9.352  0.0807 -0.0573  0.0138
33069W        W39669  24.381   5.061  26.661  0.2084 -0.1944  0.1261
33070W        W39670   1.697   1.171  23.257 -0.0032 -0.0088  0.3107
33071W        W39671  15.378   3.533  31.645  0.0146 -0.3315 -0.0639
33072W        W39672   7.215   2.620   7.841  0.1077 -0.0162  0.0339
33073W        W39673  16.525   2.243   5.098 -0.0893 -0.0551 -0.0629
33074W        W39674  20.528   4.138  31.918  0.1072  0.3335  0.0732
33075W        W39675   8.928   0.849   8.356  0.0811 -0.1464  0.1286
33076W        W39676   0.947   2.822  25.292  0.0831 -0.2139  0.1727
33077W        W39677  11.194   2.749  12.345  0.1104  0.2275  0.1397
33078W        W39678   2.598   0.000  23.472 -0.2167 -0.1150 -0.1350
33079W        W39679  12.121   1.682  13.719  0.0816 -0.1530  0.1046
33080W        W39680  21.314   2.570  26.706  0.0434  0.3940 -0.2903
33081W        W39681   6.223   4.663  10.749 -0.2904  0.1649  0.1012
33082W        W39682  24.166   0.652   3.380 -0.0766 -0.1794  0.0767
33083W        W39683  18.391   3.707  34.384  0.4154 -0.1824  0.0484
33084W        W39684  21.995   5.857  10.987 -0.0528  0.0897 -0.1666
33085W        W39685   8.013   0.976   2.244 -0.3755 -0.0230 -0.2091
33086W        W39686  18.679   1.825  13.274 -0.4987 -0.1925 -0.0995
33087W        W39687   3.121   0.558  15.265 -0.0683  0.0302  0.0611
33088W        W39688  11.653   0.668  14.597 -0.2463  0.1465 -0.1496
33089W        W39689   9.212   5.298  12.889  0.0803  0.2753 -0.2802
33090W        W39690  24.559   2.022   3.354 -0.1071 -0.1678  0.0763
33091W        W39691  11.412   1.506   6.546 -0.0998 -0.1162  0.1421
33092W        W39692  19.688   2.284  22.552 -0.2162  0.2659  0.0831
33093W        W39693  15.209   2.336  33.503 -0.1122 -0.1633 -0.2528
33094W        W39694   9.125   1.399  25.887  0.0480 -0.1235 -0.2480
33095W        W39695  14.254   0.090  12.352 -0.2525  0.2255 -0.1329
33096W        W39696   1.033   2.028  10.492  0.0747 -0.0942 -0.1642
33097W        W39697   7.678   3.756  29.069 -0.0209 -0.0290  0.0276
33098W        W39698   6.410   6.272  24.995 -0.1762  0.0242  0.0034
33099W        W39699  12.341   1.421  22.653  0.3622 -0.0738  0.0138
33100W        W39700  21.501   6.468  35.083 -0.1255  0.2480 -0.0329
33101W        W39701  19.179   4.458  14.107  0.2095  0.0129  0.2034
33102W        W39702  22.366   1.573   1.312  0.0090  0.1835 -0.0512
33103W        W39703  14.166   1.599  12.658 -0.0383  0.3422 -0.2987
33104W        W39704  17.053   4.785   0.083  0.2287 -0.2274 -0.0151
33105W        W39705  17.002   3.451   0.265 -0.1979  0.0385  0.1579
33106W        W39706  23.779   0.292  24.785  0.2211  0.1218 -0.1346
33107W        W39707  19.970   0.994   5.027  0.2831  0.1166  0.2231
33108W        W39708   8.362   4.364   0.879 -0.1784  0.0976 -0.1675
33109W        W39709   5.475   1.669   9.471 -0.0400  0.0438  0.0759
33110W        W39710  24.424   3.223  15.054  0.1720  0.2845 -0.0621
33111W        W39711  10.449   1.946  11.130 -0.0017 -0.1258 -0.0186
33112W        W39712  19.500   3.208  26.843  0.0927 -0.2599 -0.1728
33113W        W39713  20.043   4.899  28.850  0.2178  0.0272  0.0531
33114W        W39714   0.343   0.092  12.032 -0.2432 -0.0695  0.0448
33115W        W39715   9.134   0.574  12.216  0.0406  0.2097  0.1598
33116W        W39716  25.175   1.175  26.332  0.2404 -0.0998 -0.1548
33117W        W39717  22.666   0.916  25.993 -0.4353  0.1020  0.0937
33118W        W39718  10.602   5.376   4.038  0.3258  0.0705 -0.0982
33119W        W39719  10.499   3.708  34.911  0.0049 -0.0981 -0.1248
33120W        W39720  22.937   1.732   6.330  0.2363 -0.1015  0.1423
33121W        W39721   7.340   2.047  23.086  0.0252 -0.2616 -0.3187
33122W        W39722  22.889   1.602   1.347  0.0165  0.0682  0.0335
33123W        W39723  11.289   4.669   8.628  0.1472 -0.0433 -0.1319
33124W        W39724  18.124   2.312  22.466  0.0633 -0.0776 -0.0861
33125W        W39725  12.466   2.114   0.735  0.1659  0.2173  0.0815
33126W        W39726  22.059   5.927  24.960  0.0601  0.3963 -0.2023
33127W        W39727   6.177   1.679   4.413  0.1367  0.1833  0.0074
33128W        W39728  22.117   2.604  32.133 -0.2593  0.1141 -0.1659
33129W        W39729  26.186   4.146  34.583  0.1989 -0.2091 -0.0427
33130W        W39730  11.701   5.825  22.264  0.1699  0.0413  0.2614
33131W        W39731  25.940   3.642   7.284  0.0489 -0.0789 -0.2593
33132W        W39732  11.949   2.932   9.352  0.0773 -0.4144  0.2548
33133W        W39733   2.101   6.070  30.619  0.2559 -0.0341  0.0213
33134W        W39734   5.879   1.017  26.690 -0.1218  0.2849  0.1289
33135W        W39735   8.238   2.433  22.563 -0.1511 -0.3063  0.1308
33136W        W39736  19.450   0.351  25.165 -0.3430  0.0134  0.2510
33137W        W39737   4.813   2.900   5.306 -0.5110 -0.0734 -0.1650
33138W        W39738  23.405   5.498  32.952 -0.3042 -0.0192 -0.2217
33139W        W39739  25.953   0.363   2.962 -0.1328 -0.2161 -0.1654
33140W        W39740   3.395   1.693  27.583 -0.4231 -0.2268 -0.0508
33141W        W39741   4.317   6.148  26.815  0.0206  0.0671  0.0867
33142W        W39742   9.612   5.001   1.387 -0.0776 -0.3065 -0.1506
33143W        W39743  12.657   5.261  34.496  0.0260 -0.3263  0.0436
33144W        W39744  19.305   0.141  23.494 -0.4006 -0.2077  0.1914
33145W        W39745  25.852   0.009   0.415 -0.4852  0.3018  0.0731
33146W        W39746  18.320   3.337   1.110  0.2160  0.1811 -0.0408
33147W        W39747  10.542   5.443  10.874 -0.0705  0.0481  0.3842
33148W        W39748  17.015   0.467  28.916  0.0274 -0.1734  0.1909
33149W        W39749  17.273   2.801  14.343  0.2160  0.1043  0.1478
33150W        W39750   4.189   5.980  28.539 -0.2945  0.0768 -0.2657
33151W        W39751   0.561   3.515  31.824  0.0547  0.1177 -0.0203
33152W        W39752  19.386   3.531  35.256 -0.1239  0.1561  0.2977
33153W        W39753   4.661   5.187   3.692  0.1484  0.2759 -0.1316
33154W        W39754  20.431   0.794  22.737  0.1089  0.1432  0.3799
33155W        W39755  19.541   1.006   9.345 -0.1695 -0.3073 -0.3493
33156W        W39756  14.403   0.866  23.719  0.1296 -0.0458  0.2126
33157W        W39757  20.822   0.385   8.703  0.1868  0.2852 -0.2166
33158W        W39758  23.603   3.015  31.645  0.0029 -0.4573 -0.0127
33159W        W39759  21.954   0.281   4.177  0.3602  0.1726 -0.3795
33160W        W39760  11.642   4.745  29.066  0.4741 -0.0367 -0.2443
33161W        W39761   2.754   1.760   0.997  0.1051  0.1351 -0.1550
33162W        W39762  13.719   4.973  24.793  0.1628  0.1867  0.0858
33163W        W39763   8.989   5.109   5.833  0.0550  0.2154 -0.1790
33164W        W39764  22.096   1.582   8.217  0.1683 -0.1170  0.0985
33165W        W39765   5.592   4.199  13.161 -0.0241  0.1371 -0.3328
33166W        W39766   0.185   5.607   6.034  0.2048  0.3361  0.1065
33167W        W39767   7.998   1.799  32.920  0.1310  0.0215 -0.1343
33168W        W39768   1.757   0.530   8.057  0.3384 -0.1085 -0.3118
33169W        W39769   7.602   0.021  25.587  0.1124 -0.3207 -0.2029
33170W        W39770  24.383   1.749  22.081  0.1194 -0.2389  0.1223
33171W        W39771  25.402   5.762  31.073  0.0650  0.2869 -0.1601
33172W        W39772   3.394   1.252  34.661 -0.0245 -0.0564  0.0226
33173W        W39773  24.370   5.229  20.867  0.2871  0.0937 -0.4262
33174W        W39774   8.121   2.218  25.104 -0.0101 -0.1851  0.1903
33175W        W39775   0.296   0.624  21.456 -0.1290 -0.3537  0.0584
33176W        W39776   9.000   5.710  27.027 -0.1085  0.3508  0.1918
33177W        W39777  23.770   2.854   0.777  0.0416  0.2204  0.0589
33178W        W39778   4.746   1.404  22.816 -0.1002 -0.0842  0.0123
33179W        W39779  13.659   2.537   1.034  0.0975  0.0059 -0.1942
33180W        W39780  15.129   5.547   4.011  0.2469  0.1089  0.0902
33181W        W39781  11.619   4.812  30.113 -0.2289  0.2182  0.0093
33182W        W39782  19.346   2.902   3.206 -0.1013  0.2171  0.2570
33183W        W39783   0.129   2.857   1.335 -0.0409  0.1018 -0.1907
33184W        W39784  11.590   0.270   4.770 -0.0429  0.1261  0.1610
33185W        W39785   8.772   2.468  29.940  0.1476  0.0501 -0.0466
33186W        W39786  22.494   4.366   7.281 -0.0696  0.0386  0.2317
33187W        W39787  22.436   3.920   4.616 -0.1234 -0.1689 -0.0439
33188W        W39788   2.950   0.273   5.593  0.0278 -0.1451  0.4495
33189W        W39789  21.544   1.265  13.758 -0.0955 -0.1753 -0.2295
33190W        W39790   2.229   5.191  12.408  0.2110  0.1001 -0.0390
33191W        W39791  24.207   3.595   7.238  0.1618 -0.1707 -0.2755
33192W        W39792  13.788   4.737  25.365 -0.3036  0.0876 -0.1424
33193W        W39793  11.241   3.019  22.633 -0.0883  0.0458  0.1102
33194W        W39794   0.528   4.904  26.225  0.4019  0.3472 -0.1318
33195W        W39795  16.648   2.335  26.201 -0.0049  0.1729  0.1576
33196W        W39796  10.935   6.281   3.360  0.3277 -0.0424  0.1096
33197W        W39797  26.086   4.824  26.211  0.1228 -0.1030 -0.0652
33198W        W39798   2.563   2.032   2.724  0.4782 -0.0045  0.2566
33199W        W39799  22.043   1.218  29.110  0.0310 -0.0556  0.0449
33200W        W39800  23.022   2.852  26.202  0.1415  0.1899  0.1371
33201W        W39801  10.345   0.130  26.760  0.0596  0.2832  0.0035
33202W        W39802  15.803   5.946  25.869 -0.2729 -0.1690 -0.1981
33203W        W39803   6.846   2.039  15.137 -0.0804 -0.4171 -0.2621
33204W        W39804  12.778   3.317  35.814  0.1315  0.0013 -0.0117
33205W        W39805   5.220   6.529   6.106 -0.5017  0.2182  0.2079
33206W        W39806  25.512   6.260  35.515 -0.1181 -0.0600 -0.1324
33207W        W39807  19.455   4.017  20.796 -0.2851  0.0507  0.0785
33208W        W39808  14.485   0.351   1.315  0.2185  0.3871 -0.2712
33209W        W39809  15.527   0.613   1.445  0.0637  0.1643  0.0092
33210W        W39810   0.074   4.210   2.303 -0.1894  0.0510 -0.1688
33211W        W39811  24.609   6.539  24.858 -0.0185 -0.1237  0.1091
33212W        W39812   6.127   3.009  23.666  0.0363 -0.1424  0.5494
33213W        W39813   8.476   4.697   3.423  0.0034 -0.0613 -0.4001
33214W        W39814   0.665   1.972  31.667 -0.3093  0.1122 -0.1309
33215W        W39815  25.439   2.811  22.903  0.3002  0.1456  0.1609
33216W        W39816  14.489   3.903  33.720  0.0826  0.0426 -0.0390
33217W        W39817  20.848   2.981  24.990  0.2964  0.1936 -0.0921
33218W        W39818   4.294   0.506   6.497  0.1475  0.0097 -0.1525
33219W        W39819   0.288   2.235   5.997  0.1831 -0.1315  0.1857
33220W        W39820  23.960   6.104   9.049  0.2208 -0.2041  0.1083
33221W        W39821  18.581   2.856  33.805  0.2275  0.2126 -0.0074
33222W        W39822  17.055   4.368  22.112 -0.0855 -0.0542 -0.0903
33223W        W39823   5.960   0.493   5.433 -0.1072  0.0371  0.0550
33224W        W39824  22.108   4.415  14.949 -0.1453  0.0529 -0.2037
33225W        W39825  11.249   2.171   8.153 -0.0896 -0.1250  0.1426
33226W        W39826   8.544   4.277  27.705  0.0270  0.0605 -0.3634
33227W        W39827  21.689   5.719  28.367 -0.0068  0.1243  0.0226
33228W        W39828   2.825   5.777  12.629 -0.0167 -0.1703 -0.3054
33229W        W39829  11.363   2.225  23.308 -0.0533 -0.1441  0.1019
33230W        W39830  12.602   2.851  28.250  0.1699  0.0530  0.0296
33231W        W39831   5.890   5.533  13.614  0.1067 -0.2275  0.2710
33232W        W39832   7.526   6.195  22.659 -0.1015  0.2284  0.1522
33233W        W39833   6.904   3.864   1.377 -0.0228 -0.0909  0.0261
33234W        W39834  12.066   0.248  21.289 -0.0997  0.0644 -0.2744
33235W        W39835  15.982   4.741   0.810  0.1375  0.0460 -0.3576
33236W        W39836   4.566   0.770  29.979 -0.1419  0.0529  0.3240
33237W        W39837  25.855   3.689  30.228  0.0715 -0.0720  0.0180
33238W        W39838   4.321   5.525  35.292  0.0600  0.1399 -0.6482
33239W        W39839  19.108   6.122  13.117 -0.0751 -0.0187 -0.1922
33240W        W39840   1.949   0.555  28.440 -0.0570 -0.1166  0.1303
33241W        W39841   4.630   6.168  28.680 -0.2853  0.0796  0.1883
33242W        W39842  16.515   0.567  15.258  0.0328  0.5735  0.1383
33243W        W39843  14.801   4.270   3.542 -0.0644  0.2642 -0.2412
33244W        W39844   9.413   0.823  10.081  0.0039  0.1923  0.1328
33245W        W39845   4.829   0.359  13.474  0.3246  0.2203 -0.1394
33246W        W39846  18.858   6.250   0.204 -0.0658  0.1632 -0.2211
33247W        W39847   3.742   3.948  26.487 -0.1336 -0.0977 -0.3002
33248W        W39848  25.640   0.598  33.374 -0.1629 -0.0184  0.0803
33249W        W39849   3.065   3.634   3.067 -0.1475 -0.0459 -0.1593
33250W        W39850   1.817   6.533  33.102 -0.0012 -0.3991  0.0021
33251W        W39851  16.605   4.439  29.849  0.1876 -0.0598  0.0265
33252W        W39852   5.122   2.721  25.601 -0.1666  0.0076 -0.2946
33253W        W39853  25.653   5.421  34.381 -0.1037  0.1910 -0.1018
33254W        W39854   1.322   0.881  24.240 -0.0115  0.1385  0.1590
33255W        W39855   8.067   1.249  30.546 -0.0305 -0.2365  0.1568
33256W        W39856  12.552   1.602  35.175 -0.1040 -0.0376  0.0683
33257W        W39857  19.760   4.233  24.245 -0.1686 -0.3271 -0.0308
33258W        W39858   3.987   0.581   2.471 -0.0505 -0.0835 -0.2365
33259W        W39859  18.945   1.527   0.610  0.1012 -0.1471 -0.0322
33260W        W39860   1.284   2.454  25.651  0.1029 -0.4184 -0.0103
33261W        W39861  25.275   0.788  32.995  0.0020 -0.4813 -0.0219
33262W        W39862   9.661   1.903  14.389  0.1648  0.1956  0.1572
33263W        W39863  26.045   1.024  29.704  0.0843 -0.2269  0.3170
33264W        W39864  17.973   0.078   8.637 -0.0313  0.1757 -0.0233
33265W        W39865  13.946   4.322  21.452  0.1112  0.1594 -0.0208
33266W        W39866   6.858   1.642  28.263  0.2986  0.1774 -0.2157
33267W        W39867  13.751   5.644  21.858 -0.1905 -0.0305  0.0469
33268W        W39868  12.716   3.550  11.236  0.1575  0.2004 -0.2855
33269W        W39869  13.065   0.370  13.137 -0.1728 -0.3938  0.2800
33270W        W39870   7.767   0.550  32.267 -0.2580 -0.2231  0.1226
33271W        W39871  12.988   5.314  23.933  0.0520  0.2600  0.4531
33272W        W39872   6.448   0.757  20.763  0.1465  0.1215 -0.0293
33273W        W39873  10.856   2.968   8.031 -0.0929  0.0384  0.1531
33274W        W39874  26.231   4.757   6.997 -0.1679  0.0566  0.0105
33275W        W39875  24.317   2.945  27.458  0.0693 -0.1194 -0.0419
33276W        W39876  21.394   4.826   9.630  0.0675 -0.0482  0.2357
33277W        W39877   2.835   1.478   8.923  0.2389  0.1104  0.1303
33278W        W39878  12.963   6.210   5.846  0.0706  0.0944 -0.2257
33279W        W39879   1.707   3.901  13.606 -0.1031 -0.2094  0.0254
33280W        W39880  22.440   4.390  26.119  0.1972 -0.0679 -0.0801
33281W        W39881   6.339   3.853  24.557  0.1814 -0.0256 -0.0151
33282W        W39882  13.120   3.837   0.630  0.0671  0.1095  0.1558
33283W        W39883   5.134   3.933   7.119 -0.1363 -0.1655 -0.0496
33284W        W39884  10.874   0.997   0.806 -0.0902 -0.0106  0.2532
33285W        W39885  15.605   5.165  34.145  0.1613 -0.0255 -0.1106
33286W        W39886  21.973   3.756  20.780 -0.1218 -0.0115 -0.0307
33287W        W39887  23.333   2.979  25.465  0.0554 -0.2116 -0.0648
33288W        W39888   5.934   1.631  25.459 -0.0681  0.0942  0.1554
33289W        W39889  10.180   4.171   4.362 -0.1810 -0.2309 -0.1767
33290W        W39890   2.363   5.382   1.408  0.1267  0.2307 -0.0271
33291W        W39891  17.599   5.771  11.119  0.2715  0.4940 -0.0430
33292W        W39892  15.017   3.777   3.808  0.2239 -0.1257 -0.0776
33293W        W39893  10.479   0.203  31.582 -0.2968 -0.0683  0.1633
33294W        W39894  24.717   5.054  23.559 -0.1497  0.2209 -0.0729
33295W        W39895  21.257   5.177  22.852  0.1189  0.1673 -0.2666
33296W        W39896  10.216   6.328  14.971 -0.3205 -0.3074  0.2644
33297W        W39897   3.414   3.099   4.001  0.2026  0.0460  0.1273
33298W        W39898  22.527   2.784   8.481  0.0941 -0.0141 -0.1435
33299W        W39899  24.641   4.761  32.637  0.3324  0.0859  0.0017
33300W        W39900  24.594   4.481  24.343  0.0135 -0.3194  0.0799
33301W        W39901   2.693   4.278  13.397 -0.0423  0.0816 -0.0214
33302W        W39902   5.486   2.426  29.520 -0.1361 -0.1663  0.1579
33303W        W39903   2.344   1.077  10.044  0.0686  0.1967 -0.0396
33304W        W39904  18.091   3.730  14.454 -0.0961  0.3315 -0.1151
33305W        W39905  13.510   0.282  23.156  0.3540  0.0422 -0.3409
33306W        W39906  18.819   3.237  14.959  0.2075 -0.0923 -0.1537
33307W        W39907  18.992   2.513   4.101 -0.2886  0.0914 -0.1995
33308W        W39908   0.328   2.981  33.698  0.2733  0.2255  0.0881
33309W        W39909  16.617   2.740  10.312  0.0305  0.2552  0.4399
33310W        W39910  22.009   0.709   3.059 -0.0474  0.0315 -0.1178
33311W        W39911  13.305   3.165  35.490  0.0884 -0.0494 -0.1079
33312W        W39912   7.729   5.230  30.830 -0.2020 -0.0852 -0.1824
33313W        W39913   7.900   1.109  10.954 -0.1444 -0.1037  0.0465
33314W        W39914  25.405   3.890   0.981 -0.0258 -0.1147  0.3284
33315W        W39915   4.655   2.437  23.298  0.0553 -0.0166 -0.4418
33316W        W39916   0.150   3.961  23.451  0.0463 -0.0484 -0.1110
33317W        W39917   9.015   0.932  15.129  0.2305  0.0122  0.2026
33318W        W39918   7.508   5.979  25.899 -0.1790  0.0290  0.1480
33319W        W39919  10.307   0.997  32.115 -0.2736  0.0480 -0.1741
33320W        W39920   1.352   3.497  11.273 -0.2159  0.1473  0.0862
33321W        W39921  17.112   1.247  35.397  0.1394  0.0657  0.3521
33322W        W39922  23.491   3.680  26.100  0.1917  0.0723  0.0374
33323W        W39923   5.894   5.989  11.677 -0.0217  0.1419  0.0775
33324W        W39924  14.652   5.199  14.037  0.0908  0.0976 -0.0318
33325W        W39925  21.154   6.355  13.474  0.2749  0.1516  0.1276
33326W        W39926  15.372   3.539  32.376 -0.1485 -0.0816 -0.3104
33327W        W39927  23.936   3.515   1.908 -0.0868 -0.1091  0.0188
33328W        W39928  19.981   5.950  28.143  0.0954 -0.1018  0.2418
33329W        W39929   5.991   2.868  10.846 -0.1266  0.1332 -0.1180
33330W        W39930  11.876   5.907   4.045 -0.1774  0.1342  0.0476
33331W        W39931  21.940   4.744  12.037 -0.0054  0.1490 -0.1257
33332W        W39932  18.194   0.532   5.971  0.0134  0.0675 -0.1225
33333W        W39933   5.956   3.269  30.116 -0.0283  0.0481  0.1590
33334W        W39934   3.871   4.317  21.901  0.0634 -0.1910 -0.1981
33335W        W39935   4.529   1.201   8.780 -0.0814 -0.1260 -0.1791
33336W        W39936   0.202   5.647  35.222  0.2062  0.0796 -0.1497
33337W        W39937  21.800   5.240  30.262 -0.0270  0.0599  0.0980
33338W        W39938   3.184   6.238   7.619 -0.0597  0.0064 -0.3369
33339W        W39939  24.537   1.436  28.523 -0.1982  0.2668 -0.2145
33340W        W39940  14.280   3.790  27.383  0.1043 -0.1093  0.3040
33341W        W39941   6.207   3.524  32.683 -0.2869  0.3199 -0.1343
33342W        W39942   9.021   4.850   7.288  0.1232 -0.0084  0.2179
33343W        W39943   6.999   4.035   2.276  0.1285 -0.0629  0.1777
33344W        W39944   0.356   2.421   4.001  0.0012 -0.0784 -0.1239
33345W        W39945   1.947   1.845   7.685  0.1806  0.2038  0.0633
33346W        W39946   3.502   0.291   2.490 -0.1949  0.0805 -0.1467
33347W        W39947  21.579   0.751  26.469 -0.1088 -0.1811 -0.1538
33348W        W39948  17.130   2.098   0.652 -0.1979 -0.1061  0.1750
33349W        W39949  12.123   4.775  31.317  0.0308  0.1420 -0.3541
33350W        W39950  15.012   3.399   4.617 -0.1147  0.1568  0.0914
33351W        W39951   9.812   3.303  32.389 -0.0616  0.1499 -0.0342
33352W        W39952  11.084   2.458  15.123 -0.1881 -0.0413 -0.3418
33353W        W39953  21.579   6.458  30.851 -0.0988 -0.1000  0.2021
33354W        W39954   5.988   5.866   4.448 -0.1611 -0.0043 -0.0332
33355W        W39955  22.202   4.439  33.290 -0.4496  0.2532 -0.2803
33356W        W39956  19.018   1.470  15.542  0.2749  0.0405  0.0320
33357W        W39957   2.464   3.782  33.679 -0.0610  0.0096  0.0060
33358W        W39958  15.015   3.453  24.326  0.1670  0.2106  0.0329
33359W        W39959   5.714   0.096   4.640  0.2734 -0.3084  0.1127
33360W        W39960  10.320   1.759  15.184  0.1705  0.0811  0.1714
33361W        W39961   7.173   5.003  13.485 -0.1284 -0.0319  0.3098
33362W        W39962  21.976   6.042   3.147  0.1314  0.0988  0.0979
33363W        W39963   8.467   2.754  31.839 -0.0171  0.0086 -0.1088
33364W        W39964  18.366   0.944  12.784  0.2659 -0.0468  0.3500
33365W        W39965   7.384   1.076  12.569 -0.0765  0.2846  0.2874
33366W        W39966   4.023   0.747  28.840 -0.0977 -0.1569 -0.1307
33367W        W39967  15.414   6.012  10.093  0.3036 -0.2034  0.2400
33368W        W39968  13.928   6.291  14.998  0.0975  0.0103 -0.1537
33369W        W39969  17.224   3.443  12.110  0.1327  0.5078  0.0334
33370W        W39970   2.400   1.127   3.380  0.1203  0.1192 -0.1148
33371W        W39971   9.076   2.905   0.997 -0.2362  0.4287 -0.3473
33372W        W39972  19.495   1.827   0.989  0.0586  0.2536 -0.4403
33373W        W39973  11.929   1.976  14.135 -0.1978 -0.1034  0.2822
33374W        W39974  13.490   3.571  27.787 -0.0111  0.0507 -0.2348
33375W        W39975   2.091   3.070   9.249  0.2261 -0.1978  0.0099
33376W        W39976   6.817   2.853   0.811 -0.1037 -0.1547 -0.0364
33377W        W39977  21.783   0.207  30.477  0.0990  0.0084  0.0494
33378W        W39978  19.838   6.499  24.992 -0.0400  0.0331  0.3494
33379W        W39979  25.492   4.356  32.394 -0.1757  0.3507 -0.0419
33380W        W39980  23.090   4.733   2.009 -0.3692  0.2203  0.1125
33381W        W39981  11.987   2.298  11.891 -0.5541 -0.0161  0.0190
33382W        W39982  10.869   5.055  28.582 -0.1022  0.0391  0.3888
33383W        W39983   0.844   0.722  30.257  0.1041  0.0719 -0.3293
33384W        W39984   2.498   0.107   4.357 -0.0677  0.0569 -0.0781
33385W        W39985   2.757   4.470  34.720  0.1668 -0.0970  0.2488
33386W        W39986  20.152   0.149  21.665  0.1194  0.0013  0.2313
33387W        W39987  10.958   4.446  34.810  0.1280  0.1690 -0.3016
33388W        W39988   9.518   3.911   1.664 -0.0465  0.0571  0.1034
33389W        W39989  18.129   2.631  29.445 -0.2061  0.0970  0.0932
33390W        W39990  21.862   0.982   5.598 -0.3374 -0.0044  0.1401
33391W        W39991   1.964   3.907  33.703  0.2679  0.0948 -0.0812
33392W        W39992   5.650   3.977   7.367 -0.1364 -0.3038  0.0703
33393W        W39993  14.285   3.103  25.523 -0.1463  0.2693  0.2868
33394W        W39994  13.207   1.942  20.050 -0.0670  0.0859 -0.3888
33395W        W39995  21.825   1.935  14.985 -0.5120 -0.0649  0.2444
33396W        W39996  12.309   5.102  21.715  0.3419 -0.0882 -0.0967
33397W        W39997  19.798   4.688  32.127 -0.1652  0.2944  0.1056
33398W        W39998  25.582   1.971  24.081  0.1909 -0.0577 -0.1222
33399W        W39999   0.642   0.847  27.017  0.1746 -0.2081 -0.5262
33400W        W40000   7.365   0.672  30.521 -0.0946  0.3116 -0.1221
33401W        W40001   1.262   0.096  21.521 -0.1115  0.1182  0.2177
33402W        W40002  16.902   5.824  32.430 -0.0819 -0.0052 -0.0639
33403W        W40003   4.542   2.181  31.956 -0.0005  0.4090  0.0180
33404W        W40004  16.937   5.149  29.046 -0.0002  0.0350  0.0778
33405W        W40005   7.541   3.511  31.590 -0.1376 -0.0283 -0.0514
33406W        W40006   9.039   6.009   1.219  0.1172 -0.1166  0.0599
33407W        W40007  23.056   2.644  15.003 -0.0543 -0.4024 -0.0080
33408W        W40008  26.134   3.607  28.389 -0.0864  0.1760  0.0322
33409W        W40009  25.828   4.092   2.846 -0.1640  0.2317  0.2138
33410W        W40010  26.032   3.972   2.386  0.2307  0.0038  0.2580
33411W        W40011  10.681   6.541  14.962  0.4663 -0.1595 -0.0479
33412W        W40012   7.182   3.085  11.809  0.2046 -0.0565  0.1815
33413W        W40013  12.088   2.192   1.798 -0.2240 -0.1401  0.0370
33414W        W40014  16.385   0.793  23.625  0.3730  0.1172 -0.1254
33415W        W40015  23.203   1.383  31.247 -0.2724  0.0550  0.2358
33416W        W40016   5.011   4.887  13.316 -0.0938  0.2412 -0.0911
33417W        W40017   5.947   6.022  26.075 -0.0978  0.1891 -0.3752
33418W        W40018  20.113   2.876  12.091  0.0058 -0.1046  0.1689
33419W        W40019   0.225   0.151  31.557 -0.2511  0.0250  0.3960
33420W        W40020   9.049   0.052  13.632  0.3401  0.1082 -0.0634
33421W        W40021   3.817   4.035  16.006  0.1926 -0.2191 -0.1914
33422W        W40022  11.454   4.529   5.363  0.2233 -0.2774 -0.2244
33423W        W40023  23.994   2.931  26.190  0.2260  0.1816 -0.1618
33424W        W40024   8.713   4.249   6.082  0.0933  0.1650  0.2588
33425W        W40025  15.145   5.520  26.226 -0.3403  0.2059 -0.2933
33426W        W40026   6.441   1.468  14.704 -0.1092  0.0624  0.1953
33427W        W40027   4.927   5.208  24.329 -0.0740  0.0889 -0.0132
33428W        W40028  24.409   5.788  32.000 -0.1665  0.1803 -0.3472
33429W        W40029  19.861   2.371   9.029 -0.2662  0.1754 -0.0800
33430W        W40030  16.356   4.706  12.670  0.2087  0.1621 -0.1726
33431W        W40031  18.670   3.854   4.899  0.0267  0.3576 -0.1882
33432W        W40032  21.271   6.057  30.824 -0.2063  0.0006  0.2270
33433W        W40033  20.746   0.488  24.281 -0.0703  0.1754 -0.0016
33434W        W40034  14.587   2.430  35.686 -0.1704  0.0327  0.1612
33435W        W40035  22.205   2.324  14.981 -0.1257 -0.0632  0.1974
33436W        W40036  22.101   0.326  29.555  0.0818  0.2599  0.1612
33437W        W40037   0.893   3.367  11.097  0.0963 -0.2469 -0.1614
33438W        W40038  13.210   4.742  29.314  0.3605  0.0321  0.1907
33439W        W40039   3.914   0.516   9.688 -0.0897  0.3743  0.1250
33440W        W40040  26.116   3.084  27.799  0.1388  0.2369 -0.0911
33441W        W40041   4.407   2.668  31.843 -0.3037 -0.0148 -0.1257
33442W        W40042   3.055   4.431  12.434  0.0019  0.1562  0.0331
33443W        W40043   7.106   5.610   3.410 -0.2720  0.3084  0.0818
33444W        W40044   5.616   5.764  23.224  0.1824 -0.0302 -0.1283
33445W        W40045  25.992   3.761  32.787 -0.0928  0.2812  0.3009
33446W        W40046  16.138   1.068  26.032  0.1784 -0.3631  0.2360
33447W        W40047  19.532   2.374  13.646 -0.1198 -0.1697  0.1377
33448W        W40048  12.167   5.925  31.993 -0.3197  0.0201 -0.1748
33449W        W40049   8.392   2.354  26.406 -0.1639 -0.3586  0.2559
33450W        W40050   5.658   3.880  15.437 -0.1365  0.1810  0.1135
33451W        W40051  16.869   1.897  34.884  0.0878 -0.1501  0.0271
33452W        W40052   7.763   2.736  33.232  0.1278 -0.0937  0.0918
33453W        W40053  24.833   3.928  26.288  0.1306  0.1162 -0.0512
33454W        W40054  10.552   5.435  12.640 -0.0159  0.0676  0.2151
33455W        W40055  11.065   0.077  32.716 -0.0254  0.0987  0.4281
33456W        W40056   6.126   3.722  11.343  0.0516 -0.0820 -0.1782
33457W        W40057   3.999   3.259  11.716  0.0666 -0.4915  0.0548
33458W        W40058  10.398   6.293  31.818  0.2966  0.2711 -0.0289
33459W        W40059  25.722   3.850  11.823  0.1590  0.1241  0.0585
33460W        W40060  16.862   2.761   4.582  0.1339 -0.1724  0.3586
33461W        W40061  18.272   2.956  25.711 -0.0003 -0.4628 -0.0621
33462W        W40062  10.107   5.158   0.128 -0.2310 -0.1298  0.1447
33463W        W40063  21.900   2.848  34.445  0.0466 -0.4099  0.1310
33464W        W40064  24.132   4.456  29.084  0.0785 -0.0716 -0.0616
33465W        W40065  18.951   2.655  20.868 -0.0550  0.1532  0.2095
33466W        W40066  19.623   4.703  14.274  0.2375 -0.0461 -0.0556
33467W        W40067  13.891   3.624  35.221  0.0563 -0.1463  0.0227
33468W        W40068  12.286   2.630  28.850  0.1876 -0.1159 -0.2512
33469W        W40069  20.611   0.968  21.805  0.2547 -0.1077  0.1746
33470W        W40070  10.552   0.037  22.452 -0.2327  0.0969  0.0525
33471W        W40071  23.829   5.127  35.827  0.2340  0.3969 -0.2136
33472W        W40072  10.228   1.411  23.223 -0.0996 -0.0344 -0.1004
33473W        W40073   0.819   2.039  33.077  0.1158 -0.1667  0.0324
33474W        W40074  19.362   3.214  23.576 -0.1085  0.0467  0.0858
33475W        W40075  10.039   5.721  34.026 -0.0603 -0.0633 -0.3325
33476W        W40076  25.031   0.730  35.753 -0.2517  0.0119  0.2407
33477W        W40077  24.401   2.177  15.016  0.1293 -0.1810  0.0014
33478W        W40078  25.897   0.201  27.080  0.0003  0.2318 -0.0854
33479W        W40079   7.190   1.046  26.409 -0.0295 -0.1802 -0.0393
33480W        W40080   8.214   3.021  10.586  0.1271 -0.0065  0.0972
33481W        W40081  13.247   4.946  13.717  0.2934  0.0412 -0.1571
33482W        W40082   3.258   3.196   7.886 -0.3044  0.2715 -0.1938
33483W        W40083   4.073   4.765  14.668 -0.1367 -0.2013 -0.0915
33484W        W40084  13.662   3.296  22.485 -0.0328 -0.3041 -0.0045
33485W        W40085   8.684   1.325   7.577  0.2333  0.2963  0.0463
33486W        W40086  17.439   1.467  24.001  0.3219  0.3906  0.0572
33487W        W40087  21.074   2.089   9.174  0.3852 -0.0748 -0.0655
33488W        W40088  25.309   0.792  15.149 -0.1987 -0.1092 -0.1746
33489W        W40089  12.329   1.231  23.330 -0.1821  0.0695 -0.2138
33490W        W40090   4.367   5.802  30.732  0.2020  0.1232 -0.1212
33491W        W40091  12.194   1.791  28.784  0.0737  0.0344 -0.2465
33492W        W40092  13.664   4.541  23.278  0.2924 -0.1891 -0.2176
33493W        W40093  20.916   4.588  11.522 -0.2232  0.1669 -0.0258
33494W        W40094  16.628   3.333  26.761 -0.0443  0.2193  0.2050
33495W        W40095  24.642   5.274  26.276 -0.1906  0.1090  0.6280
33496W        W40096   4.828   1.578  11.717  0.3010  0.1804  0.0832
33497W        W40097  25.876   0.515   0.591  0.0609 -0.2232  0.3222
33498W        W40098  18.900   2.035   7.864  0.2952 -0.1765 -0.2815
33499W        W40099  13.718   5.891   3.771  0.0008  0.2495  0.2561
33500W        W40100  15.397   3.553  33.315 -0.1517  0.1323  0.2234
33501W        W40101   2.767   0.156  21.201  0.1297  0.0171  0.0492
33502W        W40102  23.224   4.356  24.065 -0.1803 -0.2404  0.2342
33503W        W40103  23.686   2.502  31.690 -0.3231  0.0627 -0.1793
33504W        W40104  14.960   5.114  31.659  0.1468  0.0643 -0.3384
33505W        W40105   1.366   2.888  21.344  0.0996 -0.0546 -0.0030
33506W        W40106  26.064   4.063  29.431  0.3890  0.0242 -0.0606
33507W        W40107  25.179   0.875  30.286 -0.0308 -0.0695  0.0667
33508W        W40108   9.060   4.145   7.776 -0.2358 -0.0998 -0.0093
33509W        W40109  17.100   2.508  27.190 -0.0035  0.4134  0.0771
33510W        W40110  11.048   2.625   8.370 -0.4275  0.0920 -0.0836
33511W        W40111   6.319   1.277   2.961  0.0853 -0.1562  0.1131
33512W        W40112   9.617   1.619   6.010 -0.1311 -0.1864 -0.0079
33513W        W40113  21.349   2.575  20.833 -0.1192 -0.0778  0.0307
33514W        W40114  22.028   3.248  28.204  0.1175 -0.1379 -0.0708
33515W        W40115  14.821   5.926  36.064 -0.0303 -0.4477  0.0454
33516W        W40116  12.836   0.647  20.445  0.1704 -0.0991 -0.4281
33517W        W40117   0.388   5.741  29.875  0.1722 -0.0399  0.0273
33518W        W40118  16.992   4.529  28.536  0.0462 -0.0853  0.2825
33519W        W40119  17.857   1.772  32.351  0.1109  0.1776 -0.0158
33520W        W40120  21.175   3.614  34.703  0.2739  0.0862 -0.1562
33521W        W40121   4.535   0.734   5.663 -0.2255 -0.0576 -0.0257
33522W        W40122   5.367   4.358   9.792 -0.0113 -0.1726  0.0899
33523W        W40123  11.573   2.692   0.496  0.1111  0.1361 -0.0700
33524W        W40124  17.337   6.078  26.402  0.0235  0.1669  0.2454
33525W        W40125   5.499   1.374  28.695 -0.1845 -0.3213 -0.1381
33526W        W40126  11.084   2.386   6.707  0.1311 -0.3125 -0.1169
33527W        W40127   0.956   5.849  33.632 -0.1221 -0.2297  0.1202
33528W        W40128  13.652   3.754  31.700  0.1269  0.1988 -0.3171
33529W        W40129  19.950   0.036   3.236  0.0173  0.4111 -0.1314
33530W        W40130   2.956   6.543   7.963 -0.1008 -0.0380  0.3718
33531W        W40131   5.197   1.466  24.487  0.0301 -0.2107 -0.1688
33532W        W40132   1.950   3.981   6.303  0.0274  0.3697  0.3494
33533W        W40133   4.182   4.064   0.267 -0.1399 -0.2301  0.1807
33534W        W40134  16.752   3.001  32.583  0.1307 -0.1459 -0.1199
33535W        W40135   5.371   6.335   3.410  0.4447 -0.0299 -0.0130
33536W        W40136  24.346   0.677  13.798 -0.2607  0.5778  0.1983
33537W        W40137  17.647   5.012  33.864  0.0545 -0.0219 -0.0266
33538W        W40138  12.333   2.197   2.277  0.0979  0.2415  0.2044
33539W        W40139  16.986   2.544  22.139 -0.0026  0.0072  0.3297
33540W        W40140   2.368   5.321   0.202 -0.0014 -0.0092  0.1676
33541W        W40141  16.456   0.827   2.715  0.0284 -0.0175  0.1464
33542W        W40142  26.044   3.171  13.772  0.0547  0.0321  0.0421
33543W        W40143   6.068   2.417  29.898  0.0656  0.2090  0.0315
33544W        W40144  15.499   4.287  15.548 -0.2529  0.0636 -0.2090
33545W        W40145   4.706   0.268  35.973  0.1380  0.0579  0.1439
33546W        W40146  17.174   4.717  25.995  0.0648 -0.3175  0.0556
33547W        W40147   5.381   5.009   5.342 -0.2127  0.2684  0.0446
33548W        W40148  16.678   3.959   4.170  0.0684  0.0505 -0.2937
33549W        W40149  11.727   4.452   2.770 -0.1895  0.1032 -0.2876
33550W        W40150  13.655   6.287   6.855 -0.1924 -0.1287  0.2519
33551W        W40151  21.685   5.581  21.031 -0.0189  0.1869 -0.1279
33552W        W40152  21.658   4.309  26.835  0.2192 -0.1309  0.4416
33553W        W40153   3.488   1.273   0.517 -0.2850  0.1842  0.2135
33554W        W40154   1.632   3.621   8.377  0.3531 -0.0868  0.0633
33555W        W40155  18.203   2.053  34.510 -0.0585 -0.1293  0.0900
33556W        W40156   8.903   6.342  23.360  0.4458  0.3492  0.1267
33557W        W40157  21.327   3.061   1.857  0.0860 -0.3339 -0.1431
33558W        W40158  20.142   5.833   3.445  0.0017  0.0870  0.0610
33559W        W40159  20.304   2.128   1.688  0.1900  0.1997  0.2752
33560W        W40160  16.272   1.963   1.871  0.2304  0.0253 -0.0464
33561W        W40161  11.918   3.470  29.210  0.0021 -0.2220  0.1140
33562W        W40162  18.728   4.162  29.316  0.0341  0.3076 -0.1029
33563W        W40163  18.504   0.597  10.237 -0.0499  0.2412 -0.0052
33564W        W40164   7.933   0.593  33.986  0.1413  0.0438  0.3092
33565W        W40165  18.560   4.393   4.485 -0.1122 -0.1455 -0.0913
33566W        W40166  14.843   2.792  12.340 -0.2303  0.2507  0.0599
33567W        W40167   5.147   5.929  11.309 -0.2007  0.0571  0.0791
33568W        W40168   0.775   1.468  12.729  0.2999 -0.2366  0.0002
33569W        W40169   1.224   2.825  32.431  0.0007 -0.1297  0.0206
33570W        W40170  26.139   3.884  20.793  0.1514  0.1277 -0.0419
33571W        W40171   3.725   3.393   3.602  0.0906  0.0190 -0.2803
33572W        W40172  11.196   2.829   6.278 -0.3187  0.0500  0.0784
33573W        W40173  22.476   3.968  21.081  0.3758 -0.1266  0.0163
33574W        W40174  17.382   1.287  26.424 -0.0049  0.1563 -0.0139
33575W        W40175  18.916   0.035  33.992  0.3301 -0.0146  0.1596
33576W        W40176   7.948   3.182  15.002  0.3295  0.0892 -0.1187
33577W        W40177  12.536   0.678  25.531 -0.3203  0.0577 -0.0591
33578W        W40178  19.345   3.485  24.721  0.3872  0.2684 -0.2615
33579W        W40179  10.336   3.626   4.114  0.0255 -0.1218  0.2195
33580W        W40180  19.913   4.243  13.022 -0.2751 -0.0046  0.0145
33581W        W40181  18.997   4.438  35.742  0.3939 -0.0589  0.1114
33582W        W40182   0.420   1.791  27.089 -0.1201 -0.3319  0.2762
33583W        W40183  10.611   2.167   9.078  0.2848 -0.1324  0.1276
33584W        W40184  17.691   5.599  35.274  0.3001 -0.2608  0.0945
33585W        W40185   2.744   0.691   3.626  0.0515 -0.1755  0.1087
33586W        W40186   9.163   2.819  26.523 -0.0988  0.0295  0.3228
33587W        W40187   7.709   3.234  29.254  0.0047 -0.4275 -0.2582
33588W        W40188  17.683   2.250  14.256  0.0181 -0.1992  0.1745
33589W        W40189   5.863   0.118  30.488  0.0003 -0.0491  0.2361
33590W        W40190  13.373   3.433  28.338 -0.1584  0.2330 -0.4117
33591W        W40191  18.928   2.806   3.550  0.0963 -0.2118  0.1239
33592W        W40192   0.179   5.767  14.683  0.1345  0.6762 -0.1370
33593W        W40193  13.240   0.582  26.208  0.2309  0.0688  0.2188
33594W        W40194  10.054   4.660   6.099 -0.0905  0.1711 -0.5637
33595W        W40195  14.888   4.156  26.858 -0.2053  0.0865 -0.1976
33596W        W40196   7.268   6.127   5.337  0.0106 -0.3607 -0.1662
33597W        W40197  18.672   0.197  28.833 -0.1565  0.1148  0.1223
33598W        W40198   7.931   4.021  11.732  0.1952  0.2110  0.1495
33599W        W40199   2.712   2.430  22.858  0.0406  0.0927  0.2398
33600W        W40200   4.150   4.975  23.794  0.0504 -0.0021 -0.1650
33601W        W40201  21.671   0.903  24.317  0.2300 -0.1046 -0.1081
33602W        W40202  17.784   5.978   3.703 -0.1509  0.0189  0.2989
33603W        W40203   3.067   0.178   9.919 -0.2093  0.0418 -0.1140
33604W        W40204  16.379   4.912  35.358 -0.1394  0.1398  0.1497
33605W        W40205  23.281   0.985  27.288 -0.2108 -0.0610  0.1782
33606W        W40206  14.772   3.548   8.055 -0.0018  0.0153  0.1751
33607W        W40207  24.222   5.485  14.687  0.0258  0.1260 -0.2182
33608W        W40208  14.883   5.576  33.140  0.0777  0.1942 -0.0478
33609W        W40209  23.177   6.362  32.306  0.0017  0.0138 -0.0767
33610W        W40210   8.165   0.250   4.231  0.2301  0.2018  0.3555
33611W        W40211  17.775   1.737  12.628 -0.1525  0.2784 -0.0071
33612W        W40212   1.763   6.026   0.336  0.2083  0.0342 -0.1242
33613W        W40213  26.236   5.205  33.670  0.0120 -0.1070  0.2172
33614W        W40214  24.796   4.285  25.365  0.0870  0.2924 -0.4008
33615W        W40215   8.742   4.117  25.812 -0.1786  0.2081 -0.2314
33616W        W40216  18.347   0.241   5.129  0.3337  0.0166 -0.0478
33617W        W40217  20.017   4.948   2.287 -0.0008  0.0876 -0.0358
33618W        W40218  16.592   1.779  27.035 -0.0118 -0.0737  0.0721
33619W        W40219   8.526   3.318  10.805 -0.1929 -0.0673  0.3075
33620W        W40220  21.522   2.479  14.113  0.0591 -0.0796  0.0399
33621W        W40221   3.493   0.552  10.022 -0.0769 -0.1364 -0.0215
33622W        W40222  16.679   4.584   5.976  0.1068 -0.1135  0.1718
33623W        W40223  25.197   0.161   7.880  0.3824 -0.2136 -0.1033
33624W        W40224  17.706   4.726   8.462 -0.1408  0.0282  0.0257
33625W        W40225   9.075   6.202  21.191 -0.1166 -0.0861  0.0726
33626W        W40226   4.186   2.355   1.068  0.3632 -0.0803 -0.0431
33627W        W40227   1.366   1.369  31.289  0.1341 -0.1075  0.0373
33628W        W40228   8.931   3.262   7.497 -0.0783  0.0826 -0.0511
33629W        W40229  11.034   6.085   8.600  0.1528 -0.1253  0.1310
33630W        W40230   9.646   1.560   8.219 -0.0017  0.1464 -0.0516
33631W        W40231  18.098   1.853   2.497 -0.0118  0.0972  0.1423
33632W        W40232   8.060   0.719  24.042  0.3031 -0.2066 -0.0293
33633W        W40233  14.719   5.446   8.840  0.2060  0.1092 -0.1726
33634W        W40234   0.018   4.108  35.442  0.3811  0.1701 -0.2441
33635W        W40235  20.012   1.342  11.288  0.0084  0.2872  0.1312
33636W        W40236  21.815   3.010  22.460 -0.1552 -0.1371 -0.0468
33637W        W40237   1.371   0.064  26.945 -0.1388 -0.1502 -0.1085
33638W        W40238  12.060   2.012  12.929  0.0187 -0.0242 -0.2329
33639W        W40239   0.402   4.650  28.914  0.1014 -0.1761 -0.0606
33640W        W40240  26.267   2.277   6.234 -0.1275  0.3085 -0.1804
33641W        W40241  12.098   0.421  14.747 -0.0796 -0.0496  0.2962
33642W        W40242  18.741   5.993  13.947 -0.0258  0.0526  0.2136
33643W        W40243  15.443   1.166   4.288 -0.0394 -0.1028 -0.1230
33644W        W40244  23.269   2.302  24.462 -0.0314  0.1745  0.2203
33645W        W40245  12.564   2.810   4.378  0.1888 -0.2158  0.1847
33646W        W40246   0.373   2.525   6.599 -0.1780  0.3180 -0.2664
33647W        W40247  22.077   0.294  21.405 -0.0653 -0.1920  0.3455
33648W        W40248  18.971   6.589  10.260  0.1144 -0.2686  0.1888
33649W        W40249   4.502   2.855  11.661 -0.0486 -0.2918  0.1196
33650W        W40250   8.912   1.863  34.358 -0.2723  0.0162 -0.0154
33651W        W40251  13.204   0.042  12.556 -0.0921  0.2737 -0.0368
33652W        W40252  20.702   6.073  20.571 -0.2815  0.0731 -0.1220
33653W        W40253  12.668   0.974  13.654 -0.0066 -0.3405  0.0369
33654W        W40254   5.782   1.553  10.484 -0.0214  0.0724  0.0372
33655W        W40255  10.420   5.701  15.580 -0.0240 -0.2332  0.0977
33656W        W40256  19.086   3.604   1.157 -0.0853 -0.2293  0.2223
33657W        W40257  21.365   0.022  27.013 -0.2520 -0.1161  0.1734
33658W        W40258  12.346   1.326  30.359 -0.0207 -0.1122 -0.1001
33659W        W40259  24.334   0.756  33.673 -0.0665 -0.2083 -0.0441
33660W        W40260  19.103   1.130  21.457  0.1782 -0.0924 -0.4736
33661W        W40261   4.139   5.324  27.172 -0.1469  0.0861 -0.0673
33662W        W40262   6.464   0.620  34.139 -0.0062 -0.3514  0.1793
33663W        W40263   3.522   4.351  10.605  0.2748  0.0503  0.0860
33664W        W40264  20.621   3.103  13.795  0.0216  0.0571  0.1619
33665W        W40265  26.342   5.673  25.982  0.0307  0.4601 -0.0452
33666W        W40266   8.081   5.281  24.386  0.2576  0.0526  0.0770
33667W        W40267  23.758   1.450   8.764  0.0659  0.1238  0.0388
33668W        W40268  18.728   0.271  32.640  0.0947  0.1982  0.0936
33669W        W40269  18.113   3.855  31.506  0.1948 -0.1272  0.1378
33670W        W40270  24.529   6.267  13.147  0.1102 -0.2345  0.2919
33671W        W40271  18.888   5.822  30.319 -0.1802 -0.0701 -0.0238
33672W        W40272  14.083   4.335  25.427  0.2912 -0.1781  0.0280
33673W        W40273   2.644   6.459  24.831 -0.1187  0.1924  0.0084
33674W        W40274  10.913   0.302  23.443 -0.1545 -0.0316  0.0677
33675W        W40275  10.027   5.684  33.506  0.1926  0.0563  0.0965
33676W        W40276  19.255   1.486   6.782 -0.2399  0.2278  0.1726
33677W        W40277  13.081   0.712   2.951 -0.0487 -0.2783 -0.1446
33678W        W40278  14.347   4.113   9.706 -0.1798 -0.0621  0.1973
33679W        W40279  23.496   5.650  12.599  0.1457  0.3046 -0.0768
33680W        W40280  15.989   5.938  14.085  0.3655 -0.0885 -0.0725
33681W        W40281  18.154   1.147  13.170 -0.0921 -0.1212  0.0312
33682W        W40282   4.810   1.413   1.958 -0.2769  0.0177  0.0411
33683W        W40283  19.231   6.243  34.904 -0.4354 -0.1690 -0.0073
33684W        W40284  15.556   6.323  11.373  0.3013  0.0691  0.1237
33685W        W40285   7.553   2.230   0.342 -0.0423 -0.0559 -0.2500
33686W        W40286   5.691   0.566  22.776 -0.1601  0.3217  0.0245
33687W        W40287  13.305   1.783  10.295  0.3163  0.0703 -0.1283
33688W        W40288  21.337   6.325   1.217  0.2662  0.3643 -0.0607
33689W        W40289   7.574   4.319  30.867 -0.2400  0.1029  0.0282
33690W        W40290  24.386   2.067  31.535  0.0148  0.0734 -0.0716
33691W        W40291   7.040   2.442   8.814 -0.1328  0.0526  0.0574
33692W        W40292  26.360   6.228  34.650  0.0506 -0.0344 -0.3557
33693W        W40293   2.014   4.304  31.403  0.2909  0.3483  0.0887
33694W        W40294  20.625   5.827  12.157 -0.0474 -0.0108  0.3114
33695W        W40295  11.390   1.963  32.871  0.2375  0.1291 -0.1152
33696W        W40296   2.664   5.203  35.770 -0.1056 -0.0858  0.0379
33697W        W40297   0.296   6.068   8.699 -0.0807  0.1373 -0.0038
33698W        W40298   9.590   2.777  10.368  0.3114 -0.0087 -0.1795
33699W        W40299   2.434   4.689  15.180 -0.1845  0.0911 -0.1220
33700W        W40300   3.448   1.670  29.049  0.2010  0.0426  0.0885
33701W        W40301  11.670   6.165  29.896 -0.2890 -0.2497 -0.2825
33702W        W40302  10.465   2.417  26.256  0.0097 -0.1991 -0.1917
33703W        W40303  20.310   0.244  12.899 -0.1378  0.0240  0.0273
33704W        W40304  26.371   1.112   5.507  0.2437  0.0176  0.2502
33705W        W40305   7.018   2.020  20.970  0.1300  0.3914 -0.0079
33706W        W40306   1.036   3.975  21.655 -0.0476  0.0577 -0.0163
33707W        W40307  16.638   5.794  27.749  0.4510 -0.0804 -0.0444
33708W        W40308   0.284   4.939  21.482 -0.0409  0.2583 -0.0745
33709W        W40309  11.543   0.298  34.092 -0.1717 -0.2081  0.0290
33710W        W40310  11.248   3.257  26.163  0.0775 -0.0485 -0.0374
33711W        W40311  20.593   0.832  26.226 -0.1700  0.0758  0.1534
33712W        W40312  13.254   3.009  10.633 -0.2668 -0.0863  0.2597
33713W        W40313   3.349   6.545  32.940  0.0038  0.3311 -0.1771
33714W        W40314  14.138   3.977  14.104 -0.1090 -0.1217 -0.0418
33715W        W40315  16.225   2.921  25.359  0.2040 -0.1469 -0.0816
33716W        W40316   3.072   0.718  25.302  0.0929 -0.0893  0.0011
33717W        W40317   8.766   5.534   6.052  0.1551 -0.2720 -0.2510
33718W        W40318   1.841   3.572  13.185  0.0037 -0.2638  0.0226
33719W        W40319  19.716   3.302  22.208 -0.0944  0.1670 -0.3193
33720W        W40320  19.873   6.205   8.833 -0.1802  0.2485  0.1637
33721W        W40321  17.069   6.320   6.069 -0.1258  0.1978 -0.1424
33722W        W40322   8.420   1.733  21.840 -0.1133 -0.4678 -0.2615
33723W        W40323   0.699   5.852   7.535  0.0544 -0.0902  0.3093
33724W        W40324   0.747   6.367   0.108  0.3257  0.0766  0.1245
33725W        W40325  10.026   3.556   4.519 -0.0727  0.0274 -0.1448
33726W        W40326  22.016   0.876  24.782 -0.1037  0.2915  0.0840
33727W        W40327  24.226   3.129  23.103  0.1244 -0.0096  0.1719
33728W        W40328   1.538   0.918   2.524 -0.1183  0.0923  0.0692
33729W        W40329  17.895   1.684  23.950  0.0476 -0.1419 -0.0956
33730W        W40330  23.559   1.197   8.140  0.0389  0.3459  0.3421
33731W        W40331  22.726   0.600  13.739  0.1576  0.0262  0.0404
33732W        W40332  17.884   3.988  12.776  0.0426  0.3410  0.0593
33733W        W40333  10.772   6.218  22.314 -0.0509  0.0052 -0.2479
33734W        W40334   6.763   0.623   9.941  0.0076 -0.0328 -0.1353
33735W        W40335  11.962   0.164   0.623 -0.0140 -0.2395  0.1985
33736W        W40336  16.377   3.196  34.617 -0.0269  0.0402  0.1310
33737W        W40337   7.465   2.325   9.962 -0.2843  0.0129 -0.2479
33738W        W40338   5.945   5.523   2.815  0.1387 -0.0416  0.1350
33739W        W40339  10.189   1.617  11.402  0.0542 -0.0475  0.1266
33740W        W40340   5.126   4.995   6.935  0.1561 -0.0141  0.1363
33741W        W40341   9.815   4.183   6.144 -0.0400 -0.1343 -0.2465
33742W        W40342   2.818   6.593  31.160 -0.3499 -0.0742  0.0663
33743W        W40343  25.447   4.307  28.481 -0.4017 -0.0946  0.2295
33744W        W40344  12.941   5.220  27.296 -0.2664 -0.1494  0.1484
33745W        W40345   9.522   0.293  25.780 -0.0361 -0.0840  0.1160
33746W        W40346   7.177   6.315  28.804  0.4007  0.2616 -0.1337
33747W        W40347   2.159   0.074  33.509  0.0758  0.1693  0.2212
33748W        W40348  14.572   3.060   7.097 -0.0798 -0.1125 -0.3451
33749W        W40349  15.553   4.675   5.924  0.2232  0.2031 -0.1781
33750W        W40350   7.943   0.985   8.659 -0.0221  0.0683 -0.2325
33751W        W40351   9.984   0.508  12.067  0.0725  0.0628 -0.2528
33752W        W40352  15.760   5.057   8.552 -0.1854 -0.0774 -0.3163
33753W        W40353  19.798   0.430  14.124 -0.4254 -0.2765  0.0518
33754W        W40354  15.896   1.337  27.207  0.2160  0.0645 -0.1238
33755W        W40355  19.894   5.566  30.409  0.0560 -0.0247  0.1172
33756W        W40356  21.547   2.121  29.926 -0.3585 -0.0671  0.0219
33757W        W40357  13.033   2.693  27.396 -0.0710  0.2087 -0.0015
33758W        W40358  10.557   6.462   4.019 -0.0328  0.2914 -0.2527
33759W        W40359  17.128   3.884   7.308 -0.1031  0.0366 -0.2443
33760W        W40360  11.701   0.663  29.409  0.0509  0.1212  0.3150
33761W        W40361   4.903   2.273  13.777 -0.1867  0.2492 -0.3240
33762W        W40362  22.700   5.802   0.917  0.2003  0.0917 -0.0441
33763W        W40363   8.922   1.805   0.571  0.3295 -0.2352 -0.1113
33764W        W40364  19.655   4.465  31.697 -0.0526 -0.0356 -0.2803
33765W        W40365  22.299   3.367  30.908  0.3661  0.2135 -0.0564
33766W        W40366  12.213   1.213  23.798  0.2147 -0.0859 -0.0951
33767W        W40367  21.765   1.014  23.455  0.2837  0.1815  0.0292
33768W        W40368  11.130   4.818  33.536 -0.1625 -0.5715 -0.0749
33769W        W40369  10.210   4.848  27.254  0.1902 -0.0465 -0.2279
33770W        W40370  23.847   3.105  22.101 -0.2181 -0.1133 -0.0578
33771W        W40371  14.335   4.784  33.321  0.1507  0.0603  0.0670
33772W        W40372  20.033   0.638   6.531 -0.1293 -0.0121 -0.0815
33773W        W40373   6.653   3.328  22.729  0.0384  0.0976  0.1395
33774W        W40374  15.616   3.127  25.854 -0.0510 -0.1571  0.1429
33775W        W40375  14.814   3.302   0.647  0.0540 -0.0604 -0.1884
33776W        W40376   0.255   4.948  15.329 -0.4279 -0.1083 -0.3689
33777W        W40377   7.270   5.165   5.411  0.0662 -0.0048 -0.0188
33778W        W40378  13.838   5.247  25.215 -0.1702  0.2872 -0.0869
33779W        W40379  16.678   3.678  11.926  0.1366 -0.4308 -0.0737
33780W        W40380   3.892   1.073  35.131  0.1117  0.0836 -0.1623
33781W        W40381  14.088   0.023   2.639 -0.0931 -0.1836 -0.0553
33782W        W40382   1.235   0.476   4.537 -0.3862  0.0668 -0.1864
33783W        W40383  19.369   2.463   9.010  0.0066 -0.2553 -0.0596
33784W        W40384  14.931   2.681   8.605 -0.1791  0.1198  0.1064
33785W        W40385   4.852   0.278  27.428  0.1116 -0.2887 -0.0146
33786W        W40386  22.433   6.141  23.337  0.1134 -0.0907  0.2305
33787W        W40387  22.551   6.532  26.382 -0.1637 -0.1760 -0.2558
33788W        W40388   9.942   1.132  12.522  0.2221  0.0742  0.4255
33789W        W40389   6.505   2.179  22.137 -0.0104 -0.0690 -0.0230
33790W        W40390   5.112   6.361   1.619  0.2808  0.0743  0.1564
33791W        W40391   2.253   2.655   1.387  0.0825  0.0344 -0.1959
33792W        W40392  25.288   5.443  26.925 -0.0895  0.1224 -0.1592
33793W        W40393   2.356   0.375  13.413 -0.1597 -0.0112 -0.1539
33794W        W40394   6.961   1.679  11.597 -0.2137  0.1293  0.2214
33795W        W40395  19.026   3.792  29.966 -0.0353  0.1613  0.0229
33796W        W40396  24.868   0.057   7.237  0.3604 -0.0978  0.0288
33797W        W40397   0.885   4.799  33.001  0.1512  0.0009  0.0226
33798W        W40398  12.634   3.340  27.946  0.1447 -0.2163  0.1759
33799W        W40399  13.409   0.917   6.663 -0.0001 -0.0784 -0.2536
33800W        W40400   3.140   6.373  12.054  0.1972  0.1773  0.3350
33801W        W40401  20.349   2.527  21.107 -0.4581  0.0243 -0.6757
33802W        W40402   4.786   5.066  11.686 -0.2920 -0.2491  0.1290
33803W        W40403  16.619   3.381  28.625 -0.2377  0.0464  0.2958
33804W        W40404   2.783   3.903  20.428  0.1362 -0.4024  0.0862
33805W        W40405  18.792   3.140  14.380  0.1496  0.2054 -0.0086
33806W        W40406  16.963   0.627   5.919  0.3104  0.3738 -0.0484
33807W        W40407   9.510   3.377  14.006 -0.1893 -0.0890  0.1583
33808W        W40408  23.354   4.025  15.038 -0.0157  0.1746  0.3323
33809W        W40409  16.100   3.846   8.331  0.0702 -0.1709 -0.0715
33810W        W40410  26.003   5.345   6.763  0.0066 -0.1129  0.2119
33811W        W40411   7.477   0.021   2.733 -0.0528  0.2571 -0.0371
33812W        W40412   4.907   5.611   3.880  0.1205  0.1787  0.3408
33813W        W40413  18.601   1.049   1.578 -0.2134  0.0126 -0.0663
33814W        W40414   3.192   3.365  11.316  0.2467  0.1115 -0.2854
33815W        W40415  18.491   5.710  34.831  0.1595 -0.3775 -0.1001
33816W        W40416  19.114   2.097   5.303 -0.0817 -0.0501  0.3046
33817W        W40417  14.272   2.802   6.810  0.1854 -0.0669  0.2143
33818W        W40418   3.240   6.069  33.135  0.2926 -0.1563  0.0708
33819W        W40419  15.571   3.171  21.510 -0.2735 -0.1287 -0.1249
33820W        W40420   6.752   5.295  11.934  0.1696 -0.1929  0.1020
33821W        W40421   7.667   4.346  14.462  0.0611 -0.0623 -0.1657
33822W        W40422   4.188   0.379  26.446  0.1093  0.3645  0.1730
33823W        W40423  24.820   3.657  25.873 -0.1006  0.2055 -0.0628
33824W        W40424  22.987   4.890  34.690  0.2966  0.3266 -0.0172
33825W        W40425  20.938   1.468  28.250 -0.0331  0.0548 -0.0025
33826W        W40426  17.958   1.066  22.917  0.1728  0.2743  0.2650
33827W        W40427   0.369   4.689  14.781 -0.1015  0.1125 -0.0195
33828W        W40428   5.321   3.257   0.446 -0.1500 -0.1368  0.1674
33829W        W40429  16.321   1.261  28.145 -0.0697  0.1939  0.0868
33830W        W40430  12.748   1.878   6.465 -0.2319  0.2714 -0.0429
33831W        W40431  16.931   2.817   6.877  0.1948  0.0610  0.0168
33832W        W40432   9.894   0.089  24.558  0.0907 -0.1909 -0.0364
33833W        W40433  21.188   2.585  15.604  0.2166  0.0868  0.1589
33834W        W40434  22.928   6.183  11.122 -0.0924 -0.0836 -0.1636
33835W        W40435  15.104   1.743  15.020  0.0484 -0.1996  0.2254
33836W        W40436  15.187   6.165   0.285 -0.0855  0.0620 -0.0803
33837W        W40437  16.071   0.489   2.805 -0.2490  0.0286  0.0836
33838W        W40438  14.390   5.725   7.429 -0.4058  0.1909 -0.0243
33839W        W40439   4.066   0.485   8.874  0.1677 -0.1461 -0.0264
33840W        W40440  24.132   1.841  35.013  0.1846 -0.0203 -0.0070
33841W        W40441  10.167   0.510   0.429  0.1635  0.0620  0.0673
33842W        W40442  14.522   5.388  31.469 -0.1263  0.0685 -0.2922
33843W        W40443   4.167   1.851  13.744  0.2037  0.3811  0.1699
33844W        W40444   8.925   3.394   5.101  0.2273  0.2753 -0.0917
33845W        W40445  14.279   0.848  14.345  0.0300 -0.0581  0.1400
33846W        W40446   8.453   4.869  14.127  0.2836  0.0789  0.0457
33847W        W40447  10.195   0.040   0.628  0.3534 -0.0780  0.1410
33848W        W40448  15.694   5.181  11.084  0.2155  0.0413  0.2898
33849W        W40449  18.027   1.628   2.031 -0.0801  0.1604 -0.2416
33850W        W40450  24.530   0.887   2.074 -0.0680 -0.0519  0.0009
33851W        W40451  25.923   4.313   4.321  0.0550 -0.0603  0.2434
33852W        W40452   6.245   0.379  22.811  0.1803 -0.0305  0.1072
33853W        W40453  26.364   2.439  24.615  0.0153 -0.2031  0.0708
33854W        W40454  13.377   2.387   6.105  0.2582  0.1336 -0.2262
33855W        W40455  22.076   6.103  31.761 -0.2083 -0.0561 -0.2181
33856W        W40456  19.708   3.898   2.306 -0.2663 -0.2140  0.0112
33857W        W40457   4.177   0.049   7.410  0.0987 -0.0621  0.1234
33858W        W40458  20.684   0.410  32.168 -0.2885 -0.1415 -0.1123
33859W        W40459  11.258   0.514  30.002  0.1375  0.0789 -0.2944
33860W        W40460   3.553   0.569  25.199  0.0237  0.0457 -0.1750
33861W        W40461  17.025   2.971  15.467  0.0278 -0.0313 -0.1187
33862W        W40462  24.614   0.436  11.389 -0.3036  0.1516 -0.3492
33863W        W40463  11.473   4.908  35.502  0.0156  0.1642 -0.1292
33864W        W40464  12.905   1.222  35.586 -0.0001 -0.1118  0.1464
33865W        W40465  19.955   5.477   6.880 -0.3971 -0.0433 -0.1668
33866W        W40466  17.192   5.774   7.830  0.2732  0.0899  0.1731
33867W        W40467  19.860   6.259   4.787 -0.0016 -0.1635 -0.2382
33868W        W40468  12.668   1.014  21.412 -0.0468  0.1923 -0.2132
33869W        W40469   3.230   4.688   9.456  0.2221  0.0081  0.1561
33870W        W40470   4.790   3.141  10.247 -0.2781  0.0277  0.3148
33871W        W40471   8.235   4.316  34.631  0.3041  0.0035 -0.1941
33872W        W40472   0.666   3.323  15.755 -0.4848  0.1114 -0.0468
33873W        W40473   8.934   4.833  12.869  0.2449 -0.0940  0.1309
33874W        W40474  24.514   0.600  35.751  0.2148 -0.0746 -0.1371
33875W        W40475  16.346   2.007   4.415 -0.0790 -0.5001  0.0953
33876W        W40476  21.698   3.454  23.961  0.0499 -0.0353  0.1184
33877W        W40477  24.301   0.207  21.036 -0.0519  0.1122 -0.1356
33878W        W40478   1.534   0.498   4.101  0.1034 -0.0843  0.0289
33879W        W40479  18.945   6.268  12.686 -0.1578 -0.0535 -0.2538
33880W        W40480   8.721   5.502  32.025  0.1223  0.1184 -0.5101
33881W        W40481  17.784   0.814  14.057  0.1883  0.0179 -0.0379
33882W        W40482   4.341   1.767  30.160 -0.3497 -0.1489  0.0751
33883W        W40483  25.946   0.160  12.553 -0.3199 -0.0108  0.3167
33884W        W40484  22.378   0.697  33.797 -0.3321 -0.1325  0.0318
33885W        W40485  17.299   5.143  25.665 -0.0806  0.1870 -0.0727
33886W        W40486  25.571   5.032   7.963 -0.0858  0.0618  0.0645
33887W        W40487   5.525   3.260  31.374 -0.0571 -0.3027 -0.1238
33888W        W40488  19.666   1.795  10.245  0.0568 -0.0178 -0.1865
33889W        W40489  21.906   3.741  11.982 -0.3691  0.0125  0.2219
33890W        W40490  20.918   0.065  26.732  0.0265  0.2692 -0.0874
33891W        W40491   4.533   0.530  11.673 -0.2541 -0.0426  0.1582
33892W        W40492   8.269   1.328  30.102  0.1063  0.2897 -0.0967
33893W        W40493   1.417   3.091   1.711  0.3329 -0.3076  0.2087
33894W        W40494  26.277   5.331  35.035 -0.0006  0.0318  0.2065
33895W        W40495   2.808   0.629  21.391  0.2369 -0.1076  0.0220
33896W        W40496   6.156   3.237  30.623  0.0240  0.2654  0.0046
33897W        W40497   1.482   1.831  32.307 -0.2574 -0.0219 -0.0382
33898W        W40498   2.560   6.094   3.809  0.0211 -0.0406 -0.0528
33899W        W40499  25.179   4.140  21.724 -0.0558  0.0261  0.1587
33900W        W40500   1.141   2.718  34.720 -0.1847 -0.1828 -0.0169
33901W        W40501  12.834   2.334   8.312 -0.0050  0.0949  0.0855
33902W        W40502  14.358   6.110  25.936  0.3163  0.2485  0.2253
33903W        W40503   3.774   2.287   2.591  0.2360 -0.0396  0.0495
33904W        W40504  25.401   6.337  12.844 -0.0141 -0.1554  0.0676
33905W        W40505  17.368   5.245   7.195  0.0504  0.1006  0.2791
33906W        W40506   2.496   5.786  11.700 -0.1078 -0.2517  0.0987
33907W        W40507   3.026   4.302   9.768 -0.1398  0.1744 -0.2087
33908W        W40508  24.168   3.151  12.051  0.0955 -0.1367  0.0061
33909W        W40509  11.952   4.194   4.574  0.0105 -0.0917  0.0742
33910W        W40510   6.939   3.945   0.519  0.2413  0.1143 -0.0095
33911W        W40511   4.517   5.623  15.355  0.2490  0.1594  0.0342
33912W        W40512  13.985   3.168   0.099  0.0391  0.0142 -0.0966
33913W        W40513  25.506   5.282  21.555 -0.0058 -0.0502  0.0967
33914W        W40514  22.370   1.425   6.150  0.0836 -0.0311 -0.0208
33915W        W40515   9.762   0.292  11.251  0.2632 -0.0614  0.3137
33916W        W40516  26.106   3.685   7.863 -0.2275  0.1868  0.0581
33917W        W40517   0.034   1.040  30.749  0.1004  0.0822 -0.1825
33918W        W40518  12.197   5.930   1.397 -0.3460 -0.2199  0.1974
33919W        W40519  11.479   3.255  27.811 -0.0561 -0.3369 -0.3102
33920W        W40520  14.511   1.828  12.041 -0.1397 -0.0530 -0.0019
33921W        W40521  21.949   5.124  14.628  0.0750 -0.1620  0.0956
33922W        W40522  17.508   1.244  23.476 -0.0971 -0.3707 -0.3001
33923W        W40523  17.401   2.255  34.198 -0.1624 -0.0076 -0.0284
33924W        W40524  21.042   2.456  16.079 -0.2627 -0.3670  0.0428
33925W        W40525   8.888   0.477   0.273 -0.0623  0.2177  0.0512
33926W        W40526   7.190   0.188  12.314  0.0225  0.2036 -0.0367
33927W        W40527   3.989   3.146  20.875 -0.0885 -0.2540 -0.2641
33928W        W40528   7.837   1.352  23.520  0.0532  0.2502  0.0027
33929W        W40529  13.993   4.722   0.339  0.1531  0.1634  0.1513
33930W        W40530  18.436   2.764  12.897 -0.0113 -0.1974 -0.0588
33931W        W40531  15.471   0.097   3.812 -0.0026  0.0344 -0.3664
33932W        W40532  22.793   4.094   3.378 -0.0014  0.2497  0.1461
33933W        W40533  23.788   1.931  29.024  0.3158  0.2175  0.0613
33934W        W40534   0.417   5.067  30.608 -0.1022 -0.1585 -0.0465
33935W        W40535  23.120   4.685  22.835 -0.1048 -0.0517  0.0564
33936W        W40536   9.735   4.366  13.099 -0.0910 -0.0681 -0.2030
33937W        W40537   4.270   3.634  31.040  0.0232  0.3226 -0.2360
33938W        W40538  20.727   6.308   5.017  0.1676  0.0130  0.0972
33939W        W40539  25.896   1.438  29.293 -0.0545  0.2639 -0.0917
33940W        W40540   7.600   2.011   4.718 -0.0681 -0.1056  0.0205
33941W        W40541   4.859   6.069   0.259  0.0481 -0.2166 -0.0603
33942W        W40542  26.125   5.253  14.069 -0.2648 -0.0782  0.1007
33943W        W40543  19.034   2.950   8.875  0.2471 -0.0579  0.1133
33944W        W40544  10.785   2.243  14.799  0.1182 -0.0855 -0.1279
33945W        W40545   2.505   3.553  34.968  0.2010  0.1493  0.0945
33946W        W40546   9.195   4.358  14.308  0.0571 -0.3703 -0.0080
33947W        W40547  24.300   5.680  22.257  0.2672 -0.2240  0.0425
33948W        W40548   3.295   1.911  23.391 -0.3727 -0.1085 -0.3274
33949W        W40549  20.949   3.031   2.250  0.1743  0.2150 -0.1895
33950W        W40550   4.713   4.342  35.042 -0.0225 -0.0681  0.1415
33951W        W40551  19.684   3.725  22.834 -0.1103  0.0908  0.3317
33952W        W40552  16.224   4.469  30.170  0.4051 -0.0440 -0.0975
33953W        W40553  18.904   1.362  11.695 -0.0282  0.0089 -0.2017
33954W        W40554   0.062   0.905  27.169  0.1627 -0.1935  0.0785
33955W        W40555  21.963   5.131  34.269  0.0044 -0.0647  0.0788
33956W        W40556  15.897   1.615  35.810  0.4430 -0.2538  0.0554
33957W        W40557  12.250   4.670  13.817  0.0741 -0.2042 -0.0853
33958W        W40558  16.897   4.041  21.438 -0.0083  0.0545  0.1297
33959W        W40559  12.200   1.965  29.289 -0.0396 -0.2433 -0.2545
33960W        W40560  12.288   3.291  21.537  0.0998  0.0629  0.1722
33961W        W40561  10.841   3.471   5.656  0.0951 -0.3201  0.0315
33962W        W40562  21.308   2.761  26.262  0.0272 -0.0358  0.0602
33963W        W40563  13.701   0.741   1.861  0.2750 -0.0111 -0.1363
33964W        W40564  26.261   3.914  14.771 -0.0908  0.1821  0.0734
33965W        W40565  24.445   3.228  34.810  0.1769  0.3180 -0.3436
33966W        W40566  14.484   1.127  34.470  0.1406  0.2533 -0.1824
33967W        W40567   1.122   5.449  33.247 -0.2634  0.1190 -0.1956
33968W        W40568   8.737   2.587  27.131 -0.0383 -0.3250 -0.3360
33969W        W40569  21.744   2.190  13.682  0.0816  0.1151 -0.0210
33970W        W40570  12.642   3.491  25.764 -0.2787  0.0742  0.2757
33971W        W40571  14.402   0.608   8.163 -0.5559  0.0268  0.0096
33972W        W40572  20.373   2.615   5.330 -0.0095  0.0969 -0.5781
33973W        W40573  16.781   3.328  34.391 -0.2035 -0.2030 -0.2117
33974W        W40574  11.406   2.550  33.728  0.1721  0.1563  0.1017
33975W        W40575  12.525   0.097  26.250 -0.0177  0.1382  0.3273
33976W        W40576   1.692   6.028  14.105  0.0024  0.1964  0.0548
33977W        W40577  23.219   1.596  22.719  0.1902 -0.0028 -0.1686
33978W        W40578  17.285   3.269  35.764 -0.0291 -0.2031 -0.0724
33979W        W40579  21.529   2.341   1.054 -0.0829  0.1097  0.1198
33980W        W40580   6.741   5.350  31.271 -0.0713  0.0440 -0.3134
33981W        W40581   2.398   6.003  22.990  0.0205 -0.3838 -0.0284
33982W        W40582  11.199   1.803   9.184  0.1162  0.0281  0.4258
33983W        W40583  16.177   5.361   3.916  0.0958 -0.1212 -0.1178
33984W        W40584  23.686   3.719  11.566 -0.0747  0.1912 -0.0581
33985W        W40585  16.378   1.021  15.087  0.1380 -0.1266 -0.2928
33986W        W40586  17.153   0.637  11.539 -0.4565 -0.1809 -0.3140
33987W        W40587   9.201   5.070   9.318 -0.0422  0.0569 -0.4583
33988W        W40588  14.434   5.073  31.881 -0.2457 -0.0292  0.1544
33989W        W40589  20.949   5.484  30.859  0.1921  0.0475 -0.1035
33990W        W40590  25.414   0.363  10.987  0.1954 -0.0764 -0.0043
33991W        W40591  17.367   4.404  22.705 -0.1497 -0.1334 -0.1936
33992W        W40592  10.420   0.386   8.295 -0.0981  0.2930 -0.1726
33993W        W40593   5.450   2.721  30.486 -0.1345 -0.0096  0.1859
33994W        W40594  18.152   2.875  35.643  0.0831 -0.1543  0.0865
33995W        W40595  16.645   1.989   3.041 -0.0776  0.0301 -0.0562
33996W        W40596   3.626   2.011  12.062  0.0279 -0.1969 -0.0167
33997W        W40597   1.870   6.543  28.994  0.1092 -0.0444  0.0330
33998W        W40598   7.171   1.179  21.405  0.0532  0.2629  0.1201
33999W        W40599   7.023   4.137   9.064 -0.3540  0.0181  0.1266
34000W        W40600   6.117   1.744   6.860 -0.1145 -0.0041 -0.0588
34001W        W40601   5.534   0.556   4.625 -0.1001  0.1801 -0.1186
34002W        W40602  10.990   6.210  30.971 -0.2765  0.0444 -0.2772
34003W        W40603  10.962   6.156   9.660 -0.4891  0.0111 -0.1454
34004W        W40604   4.462   3.372  23.189 -0.0827 -0.0268 -0.0969
34005W        W40605  22.804   5.144  26.391 -0.1033  0.0861 -0.2174
34006W        W40606  13.516   4.093  32.118 -0.0814  0.0971 -0.4197
34007W        W40607  11.827   4.383  33.201  0.1042 -0.1265  0.0363
34008W        W40608  10.687   1.472  21.106  0.2075 -0.2552  0.1012
34009W        W40609  17.669   2.344  27.649  0.0221 -0.0789 -0.0132
34010W        W40610  19.225   0.892  10.685 -0.0892 -0.2813 -0.0346
34011W        W40611  21.055   1.313  34.326 -0.2832 -0.1311  0.4672
34012W        W40612  15.081   5.291  28.206 -0.2542  0.2450 -0.0150
34013W        W40613   6.654   0.280   7.540  0.2734 -0.1253 -0.3178
34014W        W40614  11.176   6.212   6.065 -0.0257 -0.1419 -0.0873
34015W        W40615  23.764   5.472  15.175 -0.2865  0.0293 -0.0201
34016W        W40616  24.285   1.092  23.624  0.0124  0.0072  0.1226
34017W        W40617   5.627   2.030   0.294 -0.1075  0.0190 -0.1452
34018W        W40618  20.614   4.676  35.144 -0.0618 -0.0725 -0.1328
34019W        W40619  15.100   4.318   2.632 -0.1333  0.0394  0.1045
34020W        W40620   4.310   5.595  10.923  0.2229  0.1310  0.2178
34021W        W40621   8.259   5.182  34.749 -0.2580  0.1128  0.0412
34022W        W40622   9.197   4.958  13.306  0.0356  0.1130 -0.2569
34023W        W40623  24.800   0.350  20.868 -0.2656 -0.0949 -0.0706
34024W        W40624  20.095   6.064   0.335  0.2793 -0.4062  0.0773
34025W        W40625  15.974   0.845  34.854  0.1295 -0.3097 -0.1060
34026W        W40626  24.170   3.178   3.978  0.1621 -0.1308 -0.1841
34027W        W40627  20.313   0.663  30.575 -0.0673  0.0014  0.2018
34028W        W40628   6.654   1.613   4.497 -0.1346 -0.0860  0.1737
34029W        W40629  16.130   0.536   2.301  0.1512  0.2567  0.0735
34030W        W40630   6.627   5.116   8.024  0.2395  0.1064 -0.0685
34031W        W40631  13.559   5.120   9.995 -0.2020 -0.0549  0.0785
34032W        W40632   0.031   3.064  23.718  0.2193  0.1009 -0.0519
34033W        W40633  18.414   1.938   2.107 -0.1714 -0.1876 -0.0359
34034W        W40634   8.297   6.454  15.315  0.2447  0.1619 -0.0459
34035W        W40635  11.111   0.833   0.384 -0.0851  0.0876  0.1302
34036W        W40636   9.913   0.007  20.232  0.0677 -0.2796 -0.0371
34037W        W40637  17.318   3.269   2.566 -0.2303  0.1904 -0.1687
34038W        W40638  13.907   3.706  22.320  0.1488 -0.0956 -0.0997
34039W        W40639   8.942   5.491  34.289 -0.2051 -0.0560 -0.0828
34040W        W40640   2.593   5.753  10.260 -0.2361 -0.3325 -0.0887
34041W        W40641  11.122   2.711   4.683  0.2417  0.0080 -0.0982
34042W        W40642  18.235   3.057  31.942 -0.3097  0.2556  0.0319
34043W        W40643   0.306   1.551  21.230  0.0187 -0.0359 -0.2027
34044W        W40644  10.374   3.408  23.076 -0.1781 -0.1524  0.0626
34045W        W40645   7.728   0.770  24.394  0.1252 -0.1738 -0.0567
34046W        W40646   6.922   2.663   7.109 -0.3179  0.2467 -0.0337
34047W        W40647   2.810   4.567  32.572 -0.3692 -0.2242  0.2263
34048W        W40648  17.338   6.179  22.780 -0.0189  0.6539 -0.1179
34049W        W40649  22.252   5.612   7.357  0.3269 -0.0448 -0.1126
34050W        W40650  23.807   1.083   9.587 -0.0689  0.1432 -0.0516
34051W        W40651   1.667   3.381  25.745 -0.1131  0.1010 -0.0787
34052W        W40652  18.347   4.478   9.981  0.2190  0.1172  0.1368
34053W        W40653  14.001   4.253  32.281 -0.2076  0.0253  0.0675
34054W        W40654  19.395   3.733   9.726 -0.0104 -0.1524  0.1806
34055W        W40655  21.647   2.691   8.655 -0.0878 -0.1031  0.2484
34056W        W40656  25.280   2.088   5.365 -0.1595  0.1812 -0.0003
34057W        W40657  21.458   2.190  35.303 -0.0937  0.2191 -0.0111
34058W        W40658  11.854   3.161  13.820  0.1458 -0.2300 -0.0999
34059W        W40659  20.599   2.690  14.046  0.2414  0.0253 -0.1138
34060W        W40660   6.261   4.236   0.722  0.0637 -0.1086 -0.0541
34061W        W40661   7.539   1.398  27.349  0.1496  0.2328  0.2575
34062W        W40662  16.631   4.008  25.148  0.0022  0.1329  0.2129
34063W        W40663  14.741   4.612   4.460 -0.0621 -0.0929  0.0125
34064W        W40664   2.732   0.733  27.001 -0.2007 -0.0119 -0.1060
34065W        W40665   7.216   0.981   5.615  0.0171 -0.0859  0.2143
34066W        W40666  14.625   2.470  11.601  0.0413 -0.0207  0.3631
34067W        W40667  17.239   4.637  11.568  0.1066 -0.0725  0.1213
34068W        W40668  20.310   5.549  21.782  0.0808  0.3096 -0.0441
34069W        W40669  18.593   0.864   2.261 -0.0627 -0.0356  0.0569
34070W        W40670  14.521   6.049  21.944  0.1576 -0.3126  0.1855
34071W        W40671  15.827   1.171  25.593 -0.0683  0.3266  0.0401
34072W        W40672  26.384   6.300   0.567 -0.2044  0.3276  0.0435
34073W        W40673  20.258   5.871   8.938  0.0643  0.1511  0.3435
34074W        W40674  15.952   5.377   7.590  0.1363 -0.1759 -0.1633
34075W        W40675  10.941   1.291  33.292  0.0637  0.0176 -0.0196
34076W        W40676   7.081   1.540   8.494 -0.0593  0.0719 -0.1356
34077W        W40677   7.835   2.123  28.091 -0.0992 -0.1398  0.0394
34078W        W40678  11.104   4.381   4.694 -0.1905 -0.1474  0.1679
34079W        W40679   3.150   0.050   1.243 -0.2035 -0.1637  0.1370
34080W        W40680  15.730   2.345  33.671 -0.3076 -0.0288  0.2525
34081W        W40681  20.613   1.543   8.645 -0.1795  0.0294  0.2183
34082W        W40682  13.260   6.211   5.185 -0.0129  0.0688  0.1650
34083W        W40683  11.338   2.596  27.322 -0.6447  0.2984 -0.0195
34084W        W40684  12.759   5.649  15.478  0.0952 -0.0083  0.2809
34085W        W40685   3.214   3.846  29.671 -0.2411  0.4585  0.0587
34086W        W40686  15.524   5.795  11.619 -0.0528 -0.2224 -0.0659
34087W        W40687  24.973   5.845   9.928  0.0416  0.0254 -0.0973
34088W        W40688   2.010   4.229  32.809  0.2800  0.1026 -0.0743
34089W        W40689  18.624   6.045  24.481 -0.0762 -0.1028  0.0174
34090W        W40690  10.543   4.210   5.490  0.0030  0.0181  0.1568
34091W        W40691   3.407   5.389  12.108  0.2473  0.3222 -0.2120
34092W        W40692  10.545   1.255  12.006 -0.0866  0.2390  0.1592
34093W        W40693   0.465   5.776  11.964 -0.2312  0.0433  0.1011
34094W        W40694  12.265   0.725   6.391  0.1100 -0.0560 -0.0152
34095W        W40695  24.131   5.319   6.903  0.0408  0.0817 -0.0645
34096W        W40696  17.133   3.829   6.406 -0.3361  0.1350  0.0176
34097W        W40697  19.262   3.040  28.107 -0.1503  0.2120  0.2047
34098W        W40698  14.830   6.543   2.075 -0.1474 -0.2210 -0.0373
34099W        W40699  16.352   3.202  16.040 -0.4056 -0.1673 -0.0827
34100W        W40700   6.785   4.541  28.837  0.1490 -0.0503  0.0172
34101W        W40701  12.593   3.464  15.252 -0.2323 -0.1214 -0.5003
34102W        W40702   2.179   4.171  13.576  0.1473 -0.3335  0.0593
34103W        W40703  18.458   1.067  29.074 -0.0684  0.0138 -0.1162
34104W        W40704  22.365   1.976  23.851 -0.2093 -0.1066 -0.4289
34105W        W40705  13.884   6.272   3.025  0.0539  0.2336 -0.0196
34106W        W40706  13.408   4.387  15.900 -0.2762  0.5066  0.1157
34107W        W40707   8.511   1.869   0.213  0.0972 -0.0766  0.1362
34108W        W40708   2.812   1.545  14.753  0.1954  0.1523  0.1101
34109W        W40709   7.358   1.733  25.911 -0.0673 -0.1015 -0.1766
34110W        W40710  10.985   2.749   2.660  0.0940  0.2488  0.1245
34111W        W40711   4.857   2.043   5.948 -0.1770 -0.0507  0.2468
34112W        W40712  25.914   5.156   3.617  0.0406 -0.1848  0.1326
34113W        W40713   4.834   3.722  14.404 -0.1759 -0.1291  0.1371
34114W        W40714  15.706   5.599  30.081 -0.2332 -0.0159 -0.0615
34115W        W40715  12.804   2.522   5.161  0.0911 -0.1132 -0.2243
34116W        W40716   7.625   4.136   9.987 -0.1125  0.1132  0.4105
34117W        W40717   9.144   2.445  13.914 -0.3928  0.3051  0.0305
34118W        W40718  17.180   0.984   6.408  0.2175 -0.0692 -0.1248
34119W        W40719  15.970   0.520  34.438  0.1559 -0.1020  0.0473
34120W        W40720   0.128   3.865  27.519  0.2330 -0.0474  0.0747
34121W        W40721  20.727   4.498   2.412  0.1031 -0.2714 -0.0735
34122W        W40722  23.991   4.333   8.504 -0.0207 -0.0873  0.1242
34123W        W40723  13.667   4.826  15.090 -0.0450 -0.2266 -0.1032
34124W        W40724  12.464   4.485   1.856  0.2359 -0.1884 -0.0724
34125W        W40725   9.431   4.221  13.890  0.1275 -0.1782  0.4195
34126W        W40726   0.206   2.790   5.640  0.0616  0.1671 -0.1668
34127W        W40727   3.507   5.442   9.232  0.0425 -0.1161  0.2496
34128W        W40728  18.165   3.012   3.354  0.2395  0.0229  0.0616
34129W        W40729  18.431   5.995  30.145  0.2468  0.1347 -0.1382
34130W        W40730   8.472   5.981   6.227 -0.0289 -0.1544  0.0041
34131W        W40731  16.887   2.341  24.101  0.2164  0.4265  0.0771
34132W        W40732   8.147   4.214   9.514 -0.1233  0.2410  0.4570
34133W        W40733  16.405   3.939   9.132  0.1575 -0.1249 -0.2164
34134W        W40734   0.831   6.376   3.892 -0.2197  0.0297  0.0568
34135W        W40735   7.948   4.250  23.625  0.3488 -0.3250 -0.0626
34136W        W40736  10.977   0.917  30.047 -0.0763 -0.2930 -0.0746
34137W        W40737   1.708   4.631   1.598 -0.0962  0.3327  0.1673
34138W        W40738  13.138   0.775   7.932 -0.4698  0.1537  0.0557
34139W        W40739   2.845   3.825  13.294 -0.0815 -0.0825  0.2759
34140W        W40740  23.576   1.624  26.567 -0.2296 -0.0008 -0.4979
34141W        W40741   1.244   1.699  21.182  0.2244 -0.2373 -0.0873
34142W        W40742  16.575   2.879   3.278 -0.0188 -0.3108  0.0710
34143W        W40743   8.827   1.658  24.451 -0.2407  0.1296 -0.2578
34144W        W40744  13.963   5.156  30.934  0.1498  0.0832  0.1827
34145W        W40745  16.039   5.401   2.671 -0.1164  0.0392 -0.1334
34146W        W40746  12.953   6.546   0.210  0.0872 -0.0871 -0.0115
34147W        W40747  26.190   5.092  31.391  0.2569  0.0817  0.0324
34148W        W40748  18.684   5.958  22.614  0.2393 -0.2934  0.2241
34149W        W40749  19.266   0.963   1.454  0.0149 -0.1534  0.3635
34150W        W40750  24.409   0.327   5.237 -0.1081 -0.1314  0.0875
34151W        W40751  17.312   0.045  35.215 -0.2063 -0.1465 -0.1640
34152W        W40752   6.020   0.423  23.956 -0.0655  0.2344 -0.0191
34153W        W40753   5.756   5.248  22.515  0.3201  0.0950  0.2266
34154W        W40754  23.691   3.478   0.233 -0.0372  0.2081  0.0185
34155W        W40755  25.109   1.047  34.664  0.0553 -0.1829 -0.0328
34156W        W40756  13.044   3.864   3.097 -0.1598 -0.0031  0.2668
34157W        W40757  19.528   5.830  20.622 -0.0813 -0.1877 -0.0712
34158W        W40758  19.221   0.624   9.389 -0.1023  0.3054  0.0428
34159W        W40759  16.079   2.036   4.977 -0.0718 -0.0530  0.0144
34160W        W40760   1.720   0.597  34.498  0.1449 -0.0221 -0.0717
34161W        W40761  18.973   1.250  26.792  0.0640  0.0312 -0.0103
34162W        W40762   0.124   2.882  29.661 -0.1845 -0.3918  0.3567
34163W        W40763  17.034   1.753  13.328 -0.1852 -0.0472 -0.0638
34164W        W40764   8.049   2.984  35.828 -0.0330  0.0846 -0.2520
34165W        W40765  15.087   5.276  11.986 -0.2216 -0.0257 -0.1893
34166W        W40766  12.154   5.770   3.172  0.2340  0.0753 -0.2830
34167W        W40767   8.395   4.692   5.825  0.0528  0.2153  0.0989
34168W        W40768   8.571   4.204  28.362  0.0338  0.0523  0.0209
34169W        W40769   3.880   2.838  22.669  0.0591 -0.0363 -0.0544
34170W        W40770  11.693   5.254  35.815 -0.0823  0.0684  0.2051
34171W        W40771   1.517   3.122  33.185  0.0531  0.0633  0.1907
34172W        W40772   4.621   4.793  12.454 -0.1419  0.1462  0.0939
34173W        W40773  22.662   1.138  22.507  0.2338  0.2206  0.0929
34174W        W40774   7.233   2.292  15.489 -0.1458 -0.2045  0.2053
34175W        W40775  22.907   4.692  21.140 -0.0925  0.3436  0.0197
34176W        W40776  25.340   2.127  26.884  0.0325 -0.0368  0.0523
34177W        W40777  12.628   0.042  35.908 -0.2203 -0.2282 -0.0922
34178W        W40778  26.242   5.710  22.527 -0.0612 -0.1854 -0.0851
34179W        W40779  16.556   5.027  26.795 -0.0279  0.2153 -0.0292
34180W        W40780   1.274   3.760  22.688 -0.0007 -0.3813  0.1167
34181W        W40781   8.461   1.197  29.042 -0.0642  0.0397 -0.2905
34182W        W40782  12.747   0.422  31.111  0.0027  0.0424  0.1876
34183W        W40783   1.215   0.695  15.135  0.1108  0.0847  0.2324
34184W        W40784   1.481   1.067  35.359  0.0323  0.2051  0.3591
34185W        W40785  20.458   2.807   1.867  0.1082  0.0343 -0.0687
34186W        W40786  20.671   3.088   3.251 -0.1033 -0.1778  0.2040
34187W        W40787  15.619   6.112   2.902  0.1057 -0.0396 -0.2524
34188W        W40788   2.582   2.889   1.052  0.1849  0.0751  0.2509
34189W        W40789  23.249   4.225  27.199 -0.0503  0.1304 -0.1034
34190W        W40790  10.433   3.053   9.765  0.0333 -0.2335  0.0241
34191W        W40791  18.409   3.324  35.732  0.0624  0.2022 -0.0149
34192W        W40792   7.233   3.526  23.467  0.2844  0.0684 -0.0077
34193W        W40793   7.033   4.657  28.268  0.1345 -0.1361  0.0647
34194W        W40794  22.968   5.973   5.348 -0.2946 -0.0707  0.0351
34195W        W40795  18.082   3.898  33.282 -0.0784 -0.0242 -0.2383
34196W        W40796  23.571   4.993  33.196  0.0891  0.3065 -0.1239
34197W        W40797  25.437   5.118  28.408 -0.2637 -0.0282 -0.1129
34198W        W40798  13.765   2.487  35.279  0.0942 -0.1624 -0.1357
34199W        W40799  19.533   6.155   1.223 -0.0942 -0.1080 -0.1559
34200W        W40800  25.188   3.094   0.574  0.3122 -0.1184  0.0162
34201W        W40801   5.686   3.122   8.893  0.1489 -0.0173  0.1505
34202W        W40802   9.220   3.929  35.374  0.5872 -0.0472 -0.0699
34203W        W40803   1.657   3.659  21.825  0.1771 -0.1475 -0.0254
34204W        W40804   1.055   1.362  29.459 -0.5650 -0.0091  0.1478
34205W        W40805   0.272   4.446  14.326 -0.1751 -0.0404  0.2447
34206W        W40806  25.978   5.645   0.462  0.1890 -0.3057  0.0349
34207W        W40807   3.332   2.276  13.636  0.1567 -0.0523  0.0482
34208W        W40808  22.454   4.882  32.925  0.1754  0.0712 -0.0787
34209W        W40809   1.527   2.907  21.869 -0.0037  0.1812 -0.0467
34210W        W40810   3.430   4.205  30.765  0.1350 -0.0824 -0.1225
34211W        W40811  19.993   6.013  25.027 -0.3912 -0.1183 -0.0065
34212W        W40812  13.544   0.347  24.176 -0.0509  0.1630 -0.1330
34213W        W40813   6.482   5.550  30.897  0.1573  0.3249  0.1138
34214W        W40814  24.308   5.067  11.020  0.1778 -0.2191  0.0422
34215W        W40815  20.391   5.517  30.620  0.0203 -0.0476 -0.1497
34216W        W40816  18.858   4.426  26.310 -0.0080  0.1258 -0.0993
34217W        W40817   3.905   3.655   5.921 -0.0578 -0.3173  0.1068
34218W        W40818  13.106   2.622   1.207 -0.2698  0.2499 -0.0203
34219W        W40819   6.449   3.846  13.550  0.2061  0.4193  0.2038
34220W        W40820   3.902   2.899   7.090 -0.0011  0.2412 -0.0885
34221W        W40821  16.826   1.955   8.928  0.1080  0.2363 -0.0364
34222W        W40822   0.698   4.822  31.056 -0.1662  0.0795  0.0229
34223W        W40823   0.174   4.031  26.158 -0.0600 -0.0012 -0.0200
34224W        W40824  11.683   2.445   5.612 -0.0148  0.0711  0.0657
34225W        W40825  12.453   3.550  10.779 -0.2010  0.1667 -0.0011
34226W        W40826  20.726   1.484  22.261  0.0876 -0.4146  0.0682
34227W        W40827  19.761   4.718  14.775 -0.2666 -0.1044 -0.1861
34228W        W40828  11.494   2.190   2.388  0.0010  0.3319 -0.1937
34229W        W40829   7.499   4.634  34.947  0.0185  0.0338  0.4213
34230W        W40830  26.033   2.317   3.975 -0.0146 -0.2238  0.2629
34231W        W40831  13.327   0.633  28.215 -0.2580 -0.0038  0.0195
34232W        W40832   0.151   1.134  32.502  0.0092 -0.2184 -0.0300
34233W        W40833  16.474   5.277   3.194  0.2012 -0.1684 -0.0310
34234W        W40834  11.377   0.166   9.735 -0.0369  0.0180  0.3336
34235W        W40835  15.048   6.156  20.914  0.2393  0.2430 -0.0410
34236W        W40836   5.621   5.149  25.054  0.1630  0.0624  0.2650
34237W        W40837   5.760   4.687   7.750  0.0350  0.1292  0.2313
34238W        W40838  25.616   4.403  35.754  0.2676  0.3410  0.2366
34239W        W40839  10.061   3.129   4.103 -0.1815 -0.5988 -0.6086
34240W        W40840  13.310   5.500   6.251 -0.2604  0.2887 -0.1674
34241W        W40841   2.438   3.039  34.310 -0.1069  0.1298 -0.1997
34242W        W40842  16.536   0.405  33.218 -0.0635  0.0854 -0.1731
34243W        W40843  19.254   2.601  11.995  0.1412 -0.0493  0.0461
34244W        W40844   6.256   1.984  34.511  0.0229 -0.0171  0.1586
34245W        W40845  19.315   1.502  27.296 -0.1568  0.1033 -0.1626
34246W        W40846  22.363   2.547  35.276  0.2289 -0.3171  0.3650
34247W        W40847  15.629   4.219  35.535  0.0493 -0.1940 -0.1723
34248W        W40848   6.356   0.893   6.764 -0.0347  0.5119 -0.1007
34249W        W40849  23.802   3.814  30.896 -0.0583  0.0658 -0.0475
34250W        W40850   2.841   0.083   7.471  0.0637  0.0876 -0.0264
34251W        W40851  10.076   5.659  11.184  0.2629 -0.1910 -0.1271
34252W        W40852  10.161   4.809  12.224  0.2810 -0.1065 -0.0023
34253W        W40853  13.147   5.500  28.057  0.0509 -0.0369  0.0603
34254W        W40854  23.793   1.211  26.650  0.0233 -0.0361  0.0011
34255W        W40855   9.949   1.761  32.588  0.0460 -0.1372 -0.1041
34256W        W40856   8.278   3.813  11.416  0.0765 -0.1463  0.2018
34257W        W40857   4.834   4.284  15.525  0.3823  0.1315 -0.1193
34258W        W40858  11.689   0.360  13.523 -0.2593 -0.0390  0.1612
34259W        W40859   8.611   3.750  13.255 -0.0197  0.3127  0.2343
34260W        W40860   8.024   3.504  22.835  0.1541  0.0742 -0.0195
34261W        W40861  20.157   5.771  15.064 -0.2363 -0.0455  0.3452
34262W        W40862   8.542   3.547  23.863  0.1494  0.2588 -0.3188
34263W        W40863   2.902   2.265  25.130  0.0276  0.1692  0.1483
34264W        W40864  17.369   5.391  13.174  0.1347  0.1618  0.1423
34265W        W40865  25.019   3.194   9.249  0.0313 -0.2291 -0.1889
34266W        W40866  10.013   3.875  24.549  0.1068 -0.0480 -0.1925
34267W        W40867  20.869   4.849   6.601 -0.1763  0.0159  0.0433
34268W        W40868  22.868   1.612  15.247 -0.0554  0.2319 -0.0359
34269W        W40869  11.182   4.283   5.676  0.0325  0.0865 -0.0443
34270W        W40870  14.624   5.472  11.041  0.1142  0.1173  0.0873
34271W        W40871  15.841   1.650  23.447 -0.2032  0.1240  0.0886
34272W        W40872  14.129   4.804   7.459  0.1152 -0.1292  0.0205
34273W        W40873   8.258   0.126  34.404  0.1000 -0.0238 -0.2927
34274W        W40874   6.501   5.840  24.727 -0.4131  0.2168  0.0464
34275W        W40875   1.598   0.080  34.172 -0.0567 -0.0782 -0.1029
34276W        W40876   2.963   0.037  25.986 -0.2717  0.4529 -0.1900
34277W        W40877   2.587   1.521  21.025 -0.2403 -0.1618 -0.1739
34278W        W40878   6.949   5.706  30.932 -0.3973  0.1141 -0.1571
34279W        W40879   9.617   0.968  32.623 -0.1292 -0.2547 -0.2216
34280W        W40880   3.000   5.793   6.482 -0.0838  0.0455  0.0052
34281W        W40881   8.265   6.458  14.153 -0.0675 -0.0404 -0.1546
34282W        W40882  14.892   2.460  26.961  0.1797  0.1012 -0.0454
34283W        W40883   1.995   2.120   1.044 -0.1463  0.0521 -0.0146
34284W        W40884  11.127   5.147  15.185  0.1179  0.0173 -0.4149
34285W        W40885   9.699   5.884   4.663 -0.2425  0.2417 -0.0186
34286W        W40886  26.014   1.799   4.010  0.1735  0.5915 -0.0309
34287W        W40887  24.113   3.507  15.261  0.0784  0.1354  0.2867
34288W        W40888   5.505   3.192   4.125 -0.0808  0.3624  0.1424
34289W        W40889   6.900   4.408  30.141 -0.1291 -0.2665  0.2682
34290W        W40890  12.048   3.817  29.788  0.0730 -0.1909 -0.0134
34291W        W40891  23.759   6.110   0.152  0.2868  0.0892 -0.4195
34292W        W40892  18.669   0.899  26.516  0.2058 -0.0481 -0.1519
34293W        W40893  20.895   2.752  30.031  0.1047 -0.0945  0.1167
34294W        W40894  20.206   5.857   5.671  0.0801 -0.0733  0.3302
34295W        W40895  14.261   4.675  35.495 -0.1912 -0.0703 -0.1854
34296W        W40896  12.282   1.059   3.147 -0.0024  0.0071 -0.1083
34297W        W40897  17.141   1.099  11.783  0.3430  0.2741 -0.1717
34298W        W40898  13.627   2.559   9.880 -0.0517  0.2537  0.0021
34299W        W40899   2.456   5.189  22.160 -0.0134 -0.0799 -0.0129
34300W        W40900  19.598   4.177  25.067  0.0939  0.2367 -0.0013
34301W        W40901  22.724   3.727  22.477  0.3598 -0.0922 -0.1149
34302W        W40902  25.161   0.263  10.139 -0.3616 -0.1721 -0.2096
34303W        W40903   1.900   0.178  23.326  0.3367  0.1710  0.1564
34304W        W40904   7.693   5.918  26.846  0.2214  0.0389 -0.2002
34305W        W40905  11.879   6.142  13.875 -0.0962  0.0353  0.1942
34306W        W40906   2.346   5.727  12.450  0.1580 -0.2184 -0.3512
34307W        W40907   4.859   2.297  35.424 -0.0002  0.1543  0.1831
34308W        W40908  12.363   3.321  28.373 -0.0572 -0.1712 -0.2407
34309W        W40909  13.265   5.764  22.559 -0.1163  0.2070  0.2651
34310W        W40910  22.961   5.082   4.939 -0.1510 -0.0638 -0.1803
34311W        W40911  10.741   4.698   1.285 -0.1731 -0.0647  0.0181
34312W        W40912   1.270   6.477  34.973 -0.2188  0.0745 -0.4839
34313W        W40913  14.940   4.143  21.099  0.0961  0.1468  0.2024
34314W        W40914   7.338   4.588   9.764  0.2392  0.1519  0.0376
34315W        W40915   7.424   6.248   6.785  0.3323 -0.1994 -0.1102
34316W        W40916   5.117   1.386  26.395  0.0538 -0.4296  0.0015
34317W        W40917  16.823   0.405  10.618 -0.0604 -0.1442  0.4427
34318W        W40918  14.393   1.760   1.193  0.1330 -0.1067  0.0931
34319W        W40919  11.383   5.706  24.452  0.0341  0.0721  0.0923
34320W        W40920   9.044   6.082  27.476  0.1084 -0.2523  0.1121
34321W        W40921   9.561   5.399  28.574 -0.0671  0.1174 -0.0229
34322W        W40922  22.201   0.691  14.263  0.1075 -0.0322 -0.0035
34323W        W40923   3.373   0.239   3.314  0.2167 -0.0129  0.1246
34324W        W40924  25.919   1.880  34.709  0.4203  0.0376  0.0261
34325W        W40925  11.042   2.407  32.018 -0.1093  0.0076 -0.2251
34326W        W40926   6.136   6.134  14.893  0.2646  0.0979  0.0550
34327W        W40927   8.027   4.973   2.153 -0.0668 -0.0746  0.0089
34328W        W40928   1.013   3.470  14.995  0.3658 -0.0470  0.2077
34329W        W40929  17.569   0.880  30.819  0.0901  0.1785  0.0820
34330W        W40930  11.856   4.763  11.210 -0.2433  0.2487 -0.0757
34331W        W40931  15.910   2.211   6.693 -0.0308  0.1753  0.0651
34332W        W40932  21.846   2.113  10.942 -0.3231  0.2307  0.2318
34333W        W40933  20.786   0.495  20.643  0.0922 -0.1226  0.3405
34334W        W40934  16.976   3.470  30.766  0.1144 -0.0480  0.0769
34335W        W40935   0.412   2.995  32.053  0.2951  0.1752 -0.0937
34336W        W40936  16.941   0.671  29.450 -0.1948 -0.1351 -0.0092
34337W        W40937  10.766   1.602  32.302 -0.0407 -0.1247 -0.2232
34338W        W40938   2.137   4.768   5.175  0.1059  0.3944  0.1336
34339W        W40939   6.547   2.367  16.317  0.2406 -0.0318 -0.0973
34340W        W40940   1.568   2.079   1.404  0.2806 -0.0892 -0.0339
34341W        W40941  16.762   3.550  10.954  0.0489  0.0790  0.1235
34342W        W40942  20.203   3.868   6.967  0.0833 -0.1063 -0.0698
34343W        W40943  16.823   3.017  30.636 -0.0342  0.1272 -0.3093
34344W        W40944  22.100   4.834   6.609  0.1842 -0.1163 -0.2573
34345W        W40945  10.080   6.035  23.574 -0.0813  0.2033 -0.0174
34346W        W40946  17.125   3.033  34.183 -0.0096  0.0080 -0.1167
34347W        W40947  24.977   5.485  13.631  0.2427 -0.2883  0.1262
34348W        W40948   6.003   5.137  35.201 -0.0096  0.1926 -0.0158
34349W        W40949   5.569   4.984  28.656 -0.2621  0.0534 -0.0404
34350W        W40950   1.383   1.598  31.843 -0.1950  0.0975 -0.2584
34351W        W40951   4.609   3.002  27.139  0.0082 -0.3531 -0.3761
34352W        W40952  25.940   0.832   4.204  0.0256 -0.4088 -0.0043
34353W        W40953   8.443   0.549  14.509 -0.0650 -0.0045 -0.1353
34354W        W40954  20.444   5.543  11.750  0.0019  0.1349  0.0511
34355W        W40955  18.271   3.162  26.145  0.0312 -0.1215  0.0921
34356W        W40956   9.645   0.983  22.084  0.1490 -0.2345 -0.0163
34357W        W40957   5.178   1.590  15.517 -0.0202  0.0052  0.3716
34358W        W40958   9.158   0.354  34.233 -0.1782  0.1328  0.0699
34359W        W40959  21.677   0.047   3.860 -0.2742  0.0328 -0.0346
34360W        W40960   6.679   1.635   6.456  0.0445  0.3243  0.0887
34361W        W40961  17.082   0.829  27.067  0.3431 -0.0376 -0.0331
34362W        W40962   4.877   1.369  21.773  0.2486  0.2173 -0.0339
34363W        W40963  15.367   3.257   7.548  0.0795 -0.1221  0.1548
34364W        W40964  26.354   0.331   7.337 -0.3048  0.0966  0.0779
34365W        W40965  20.929   4.141  31.541  0.1696 -0.1468 -0.0549
34366W        W40966   5.024   2.832  10.705  0.3706 -0.3234  0.0419
34367W        W40967  24.816   5.147  14.697  0.1371  0.1683 -0.0261
34368W        W40968  24.927   4.029   5.722 -0.0154  0.1419  0.3330
34369W        W40969  12.066   3.068  24.737 -0.0686 -0.1378 -0.2809
34370W        W40970  14.991   5.973  28.385  0.0037 -0.1441  0.2430
34371W        W40971   0.954   4.422   8.107 -0.2476 -0.0554  0.2759
34372W        W40972   8.965   2.900   6.170  0.0244  0.2319 -0.2391
34373W        W40973  23.074   1.916  13.267  0.0263 -0.0624  0.1504
34374W        W40974  16.707   5.437  20.248 -0.0239  0.2798  0.0823
34375W        W40975  25.275   3.325   6.446  0.0240 -0.1726  0.2059
34376W        W40976  21.622   0.860  12.026  0.3885 -0.0111 -0.0868
34377W        W40977   7.160   4.043  31.062  0.2196 -0.0146  0.1330
34378W        W40978  13.800   4.363  28.607 -0.0664  0.2874 -0.3052
34379W        W40979  19.685   1.727   5.043 -0.4575  0.1587  0.0297
34380W        W40980  21.123   3.335  33.785 -0.1052  0.3387  0.1741
34381W        W40981  22.462   0.530  29.853 -0.1661  0.0363  0.1186
34382W        W40982  11.764   5.747  29.082  0.1097  0.0385 -0.3953
34383W        W40983  13.524   2.229  13.197 -0.1589  0.0287  0.0228
34384W        W40984   8.253   0.953   0.462  0.0327  0.1784  0.1905
34385W        W40985   4.113   1.033  21.499  0.0230  0.0351 -0.1180
34386W        W40986  24.925   5.184  21.104 -0.1383 -0.0070  0.0690
34387W        W40987  22.262   4.616  27.075  0.0533  0.0095  0.0552
34388W        W40988   2.718   4.242   4.650  0.0291 -0.0636  0.1535
34389W        W40989  11.008   2.041  23.770 -0.1027 -0.1470  0.1963
34390W        W40990  26.154   0.549   7.952  0.1229  0.1753 -0.1655
34391W        W40991   3.938   0.559  28.378  0.0191  0.1483  0.1906
34392W        W40992  10.667   2.466  30.095  0.1449 -0.1020  0.0858
34393W        W40993   2.414   2.487  26.381  0.0693  0.0105 -0.1132
34394W        W40994  14.957   6.354   7.200 -0.0655 -0.0525 -0.1909
34395W        W40995   9.233   1.939  28.101 -0.0793  0.0746 -0.1985
34396W        W40996   0.004   6.366  28.181 -0.1150 -0.0143 -0.0656
34397W        W40997  15.460   4.094   0.986  0.2133 -0.0227 -0.2303
34398W        W40998   0.649   1.383  14.094  0.2811  0.1275 -0.0956
34399W        W40999  14.171   3.043   3.478 -0.0507 -0.1612  0.0732
34400W        W41000  26.134   2.702  32.096  0.0115  0.0073 -0.1572
34401W        W41001  12.729   4.920  15.003  0.1107 -0.2842  0.2325
34402W        W41002   1.242   0.942  20.905 -0.1594 -0.1472 -0.2779
34403W        W41003   8.756   1.564  28.474  0.2001  0.5153  0.1311
34404W        W41004  24.073   1.002  11.111  0.1235  0.1975 -0.0111
34405W        W41005   2.977   5.769  14.313  0.1403  0.1031 -0.0215
34406W        W41006   0.215   6.228  32.221 -0.0269 -0.0537  0.3060
34407W        W41007  20.880   6.210  10.568  0.0995 -0.0872 -0.0940
34408W        W41008   3.231   2.477   5.920  0.1120 -0.3480  0.1349
34409W        W41009  16.996   0.834  35.740 -0.1846  0.2799  0.0270
34410W        W41010  11.030   0.423   9.420 -0.0070  0.0988 -0.1288
34411W        W41011   2.771   5.441  35.162  0.0090  0.0224 -0.0138
34412W        W41012   6.698   1.915  27.278  0.0998  0.1080 -0.1746
34413W        W41013   7.570   1.244  29.098  0.0674 -0.1568  0.0010
34414W        W41014  19.405   4.867  35.468  0.1332  0.0557  0.0706
34415W        W41015  12.990   1.533   9.121  0.2276  0.0041 -0.2656
34416W        W41016  25.407   6.487  31.912  0.1868  0.2362  0.1697
34417W        W41017  21.918   1.805  20.644 -0.0526 -0.1016 -0.1109
34418W        W41018  21.764   4.936  26.325 -0.0849 -0.1137 -0.0962
34419W        W41019   8.417   4.895  11.395  0.3602 -0.3289  0.2010
34420W        W41020  20.292   1.046  10.288  0.3079 -0.2314  0.2482
34421W        W41021   2.516   5.330  21.576  0.0255 -0.3039  0.1382
34422W        W41022  14.457   4.923   5.719 -0.0076  0.0991 -0.1586
34423W        W41023  23.088   6.270   0.685 -0.0302 -0.2712 -0.0175
34424W        W41024  11.856   1.073  33.260  0.1035  0.2399  0.1478
34425W        W41025   6.240   1.366  27.880  0.1567  0.2367 -0.1456
34426W        W41026   2.580   3.025  25.452  0.0905  0.1022 -0.2363
34427W        W41027  17.398   4.900   8.878  0.0626  0.0122  0.1746
34428W        W41028   6.319   0.660  25.866 -0.3429 -0.0038  0.2523
34429W        W41029   4.278   5.168  26.328  0.0513 -0.1473 -0.1216
34430W        W41030   2.188   3.927  32.308 -0.2563  0.2088 -0.0098
34431W        W41031   7.801   2.007  12.434  0.1366 -0.3735 -0.0893
34432W        W41032  25.936   0.974  12.764  0.1146  0.1999 -0.2769
34433W        W41033  15.259   4.124  32.628  0.1513 -0.0132 -0.0036
34434W        W41034   3.926   6.137  14.724 -0.1298 -0.0364 -0.2577
34435W        W41035  16.774   4.901   4.200  0.2558  0.1621 -0.0746
34436W        W41036   5.677   2.481  22.999  0.1498 -0.2807 -0.3060
34437W        W41037  23.068   0.290   8.975 -0.4643  0.1520  0.0838
34438W        W41038   8.573   1.659   3.545  0.1639 -0.2792  0.0018
34439W        W41039  21.133   5.156  30.098  0.1568 -0.0471  0.0487
34440W        W41040   0.389   6.389  14.142 -0.1846  0.4013  0.6186
34441W        W41041  13.006   4.726  31.753  0.1246 -0.2774 -0.3030
34442W        W41042   5.834   4.248  34.327  0.0167 -0.2182  0.3053
34443W        W41043  23.756   0.132  30.460  0.1341 -0.1224 -0.0376
34444W        W41044  10.620   2.236  16.182  0.2060  0.1507 -0.0365
34445W        W41045   8.219   1.206   3.972 -0.2189  0.0786  0.0190
34446W        W41046  21.314   5.160  29.114  0.2050  0.0111  0.1145
34447W        W41047   1.907   5.386   7.746  0.3531  0.2049  0.0955
34448W        W41048  24.621   6.183   6.459  0.2770 -0.1850 -0.1612
34449W        W41049  13.191   1.582  25.894 -0.0632 -0.2221 -0.1802
34450W        W41050  19.569   3.081  21.090  0.0403 -0.0519  0.3448
34451W        W41051   2.232   2.747   7.074  0.1383 -0.1771  0.0523
34452W        W41052   9.296   3.040  31.999  0.0303 -0.0514 -0.1288
34453W        W41053   8.762   3.729  30.044  0.0658  0.2112  0.1529
34454W        W41054  13.960   1.139  14.702 -0.3174  0.3685  0.4424
34455W        W41055   1.138   0.384   7.437 -0.2071 -0.0732 -0.1320
34456W        W41056  19.837   3.351  24.956 -0.0995 -0.1600  0.2094
34457W        W41057  24.487   3.649  30.351  0.1134 -0.2737 -0.1088
34458W        W41058  20.936   1.946  21.212 -0.0720 -0.0322  0.1298
34459W        W41059  21.080   1.302  10.304  0.1694  0.2102  0.2494
34460W        W41060  15.191   2.670   6.916  0.3879 -0.0242 -0.3138
34461W        W41061  10.438   1.293   6.757  0.1156 -0.0682  0.2652
34462W        W41062   8.709   2.766  27.880 -0.1206  0.2154  0.0398
34463W        W41063  16.283   0.389  28.120 -0.0534 -0.1221  0.2818
34464W        W41064   6.527   0.710   4.303 -0.2206 -0.2126 -0.0229
34465W        W41065   8.520   0.099  30.881  0.1824  0.1663 -0.2521
34466W        W41066  19.295   2.942  30.832 -0.0841 -0.0553  0.1223
34467W        W41067   7.352   1.268  10.382  0.1039  0.2187 -0.0162
34468W        W41068  25.476   2.728  33.329  0.1657 -0.0609 -0.1714
34469W        W41069   1.623   5.283   5.895  0.2236  0.2277 -0.1543
34470W        W41070   1.431   2.703  11.712 -0.0402  0.3079 -0.1451
34471W        W41071  24.190   4.737  20.757  0.1197  0.1801 -0.1494
34472W        W41072  23.810   2.774   2.636 -0.0182 -0.1930 -0.0992
34473W        W41073   2.950   1.444  24.143 -0.2093  0.1743  0.3099
34474W        W41074  15.887   1.708  28.274 -0.0472 -0.4106  0.2239
34475W        W41075   6.300   4.329  28.943 -0.0555 -0.0089  0.0539
34476W        W41076  16.664   6.154  35.072  0.0997  0.2585  0.1143
34477W        W41077  13.139   6.437  30.615 -0.3870 -0.0940 -0.1631
34478W        W41078  19.645   5.789  34.176  0.0460  0.2289 -0.2669
34479W        W41079  26.329   3.351   9.786  0.1410  0.1752 -0.0973
34480W        W41080  16.563   2.939  29.675 -0.1639 -0.0883 -0.0353
34481W        W41081  20.612   4.524   1.533  0.0327  0.2318  0.2140
34482W        W41082  23.630   4.866   0.565  0.0097  0.0268 -0.0193
34483W        W41083   8.233   3.357  12.283 -0.0551 -0.0171 -0.0470
34484W        W41084  15.968   1.624  21.331  0.2203  0.0252  0.2106
34485W        W41085   0.927   5.530  30.059  0.0361 -0.1329 -0.0030
34486W        W41086   3.745   0.826   5.881 -0.0823  0.0938  0.1903
34487W        W41087   0.415   3.002   8.700  0.0838  0.0129  0.0814
34488W        W41088  17.933   5.114   1.351 -0.0358 -0.0585 -0.2034
34489W        W41089  12.333   1.076   5.446 -0.2588 -0.0742  0.0447
34490W        W41090   6.018   1.473  32.908 -0.0008  0.1472 -0.1806
34491W        W41091   1.849   3.237  21.706 -0.1537 -0.2159  0.2461
34492W        W41092  11.631   0.247   8.712 -0.0875 -0.0187  0.1036
34493W        W41093  19.976   4.895   1.723  0.3049  0.1304 -0.0320
34494W        W41094   7.766   3.219  31.233 -0.2796 -0.1330 -0.0390
34495W        W41095  26.186   3.970  30.409  0.0188 -0.2411  0.0639
34496W        W41096  17.282   5.495  22.989 -0.1302  0.2010 -0.0270
34497W        W41097   5.746   0.881   4.128 -0.0029  0.2345 -0.2574
34498W        W41098   6.537   4.347  15.240 -0.1780  0.1247  0.2200
34499W        W41099   4.635   6.590  31.905 -0.1682  0.0434 -0.0150
34500W        W41100   8.078   4.340  10.067 -0.1042  0.0380  0.1181
34501W        W41101  17.009   4.742  32.627  0.2640  0.0945 -0.1075
34502W        W41102  16.231   2.466  13.901 -0.1160 -0.1257  0.3071
34503W        W41103  14.738   2.836  27.990 -0.0334  0.0619  0.0072
34504W        W41104  15.560   3.835  22.260 -0.2601  0.1843  0.1773
34505W        W41105  15.964   5.164  32.143 -0.0434  0.1426  0.1774
34506W        W41106  21.510   2.659  24.447 -0.0501  0.0185  0.1969
34507W        W41107   7.609   1.016  21.495  0.0713  0.0290 -0.1529
34508W        W41108  26.164   0.533  31.424  0.1055  0.0174  0.0526
34509W        W41109  22.574   4.967  29.402 -0.0767 -0.1417  0.0369
34510W        W41110   0.982   2.840  28.560 -0.2651 -0.0244 -0.1098
34511W        W41111  23.933   5.667  27.351 -0.0002 -0.1152 -0.2589
34512W        W41112   3.041   0.333  11.873  0.0729  0.3352  0.2754
34513W        W41113  25.330   3.267   5.533  0.2201  0.0528 -0.0736
34514W        W41114  24.472   5.659  28.458 -0.1052  0.2163  0.3975
34515W        W41115  15.768   1.815  31.189  0.2148 -0.0205 -0.0967
34516W        W41116   3.090   5.435  12.917 -0.2470  0.2145 -0.0946
34517W        W41117  17.734   0.468  25.883  0.1383 -0.0660 -0.0010
34518W        W41118  12.464   3.152  34.976  0.0540 -0.2238 -0.2476
34519W        W41119  23.604   2.146  22.304 -0.2288 -0.1830 -0.0432
34520W        W41120   5.743   1.752  11.985 -0.0939 -0.0007 -0.0673
34521W        W41121  23.559   3.483  23.741  0.3688  0.3944  0.3095
34522W        W41122  20.991   0.553  27.975 -0.1295  0.1334 -0.0320
34523W        W41123   5.462   4.357  31.264 -0.1103 -0.2711 -0.0664
34524W        W41124  12.587   0.651  23.167 -0.0947 -0.1753  0.3152
34525W        W41125  18.026   1.993  25.671 -0.0739  0.0820 -0.0220
34526W        W41126   6.984   5.570  35.036  0.1319 -0.1047  0.4525
34527W        W41127  24.756   3.871  30.772 -0.0725 -0.1021  0.0494
34528W        W41128  20.595   1.243  14.979  0.0891 -0.1464  0.1345
34529W        W41129  26.368   6.304  27.660  0.0354  0.0783  0.0452
34530W        W41130  11.351   4.600   5.997  0.1425  0.2127  0.2432
34531W        W41131  21.296   1.741   8.952  0.0309 -0.1349  0.0270
34532W        W41132   9.140   5.159  35.977  0.3094 -0.0493  0.1011
34533W        W41133  10.582   4.543   4.629  0.0474  0.3851 -0.0920
34534W        W41134  17.392   4.532  33.709  0.1572 -0.0451  0.2600
34535W        W41135  22.547   5.683  29.660  0.0251  0.2461 -0.0067
34536W        W41136  21.494   5.951  27.570 -0.0227 -0.2209 -0.2258
34537W        W41137  12.469   0.152  13.375 -0.1933 -0.2827 -0.1048
34538W        W41138   6.331   4.088  25.158 -0.1377 -0.0662 -0.1574
34539W        W41139  20.451   6.224  14.432 -0.0347  0.0334  0.2105
34540W        W41140  17.217   6.439  23.956 -0.0702 -0.0309 -0.1417
34541W        W41141  11.949   2.298  31.684 -0.3356 -0.0086  0.1081
34542W        W41142   6.609   1.246   9.704  0.1701  0.2941  0.0611
34543W        W41143   1.902   3.954  34.240  0.2299 -0.0901  0.1265
34544W        W41144   2.093   1.344  35.502 -0.2055  0.3671 -0.2363
34545W        W41145  11.295   4.816   1.977 -0.0572  0.0775  0.2216
34546W        W41146  11.182   1.940  33.399 -0.0370 -0.2657 -0.0515
34547W        W41147  25.239   2.673  29.121 -0.2421  0.1613  0.1400
34548W        W41148   3.054   4.762  27.916 -0.0953  0.0542  0.2336
34549W        W41149   1.262   3.060   5.527 -0.4236  0.3914 -0.1063
34550W        W41150   7.731   2.741   2.556  0.1749 -0.2264 -0.3641
34551W        W41151  12.791   2.570  28.666  0.1618 -0.2022 -0.1121
34552W        W41152  24.292   1.995  25.991 -0.1226 -0.1091  0.0777
34553W        W41153  23.363   5.292   0.273  0.1587 -0.0147  0.0221
34554W        W41154   7.091   1.229   5.189 -0.0614  0.1647  0.0185
34555W        W41155  14.590   0.737  34.829  0.1451 -0.2788  0.0625
34556W        W41156   0.820   5.007   5.323 -0.2083 -0.1343  0.0021
34557W        W41157  14.654   1.808  33.171 -0.0673 -0.0477 -0.1610
34558W        W41158   1.581   6.133   9.295  0.1129 -0.0572 -0.1436
34559W        W41159  25.559   1.754   4.437  0.0200 -0.1156  0.4970
34560W        W41160  24.952   0.350   9.670  0.1701  0.0813  0.0709
34561W        W41161   0.791   6.519   3.428  0.0501  0.0828  0.1953
34562W        W41162  20.812   1.054  35.872  0.2428 -0.1427 -0.0955
34563W        W41163   6.637   6.079  11.407  0.1269 -0.1202 -0.0951
34564W        W41164  11.179   1.829  36.029  0.2536 -0.1762  0.0868
34565W        W41165  23.519   6.598   5.827  0.2224  0.4825  0.1821
34566W        W41166  23.991   6.322   8.221  0.2062 -0.0640  0.1022
34567W        W41167   0.851   1.592   0.923  0.0455  0.0019  0.2474
34568W        W41168   5.822   5.436  21.639 -0.1933 -0.1650  0.0430
34569W        W41169   7.832   5.221  31.279  0.0547  0.1303  0.0760
34570W        W41170   3.385   3.853  25.009 -0.0844 -0.0260  0.2166
34571W        W41171   3.357   0.667  29.462 -0.0974  0.1647 -0.0666
34572W        W41172  10.373   1.899  34.985 -0.0630 -0.0296  0.1881
34573W        W41173  13.415   2.627  32.117 -0.1220 -0.0900  0.2629
34574W        W41174  20.098   6.274  26.513  0.0977  0.0221 -0.1219
34575W        W41175   6.575   4.081  31.032 -0.0890  0.0369  0.2159
34576W        W41176  12.219   4.451   3.120 -0.0310 -0.1105  0.4266
34577W        W41177  11.405   5.427   9.302  0.1278  0.1127  0.0554
34578W        W41178  10.325   3.737  26.220 -0.3677 -0.1162 -0.0616
34579W        W41179  15.914   3.844  12.865  0.0582  0.1460  0.1515
34580W        W41180   5.028   2.699  23.697 -0.2616  0.2603  0.2108
34581W        W41181  24.844   2.175   8.504 -0.0224  0.0569  0.0804
34582W        W41182  15.562   1.107  29.030  0.3638  0.3320  0.2241
34583W        W41183   8.470   1.284  21.592  0.0738 -0.0732  0.0263
34584W        W41184  20.155   3.992   4.872 -0.0867 -0.3628 -0.0478
34585W        W41185  13.228   0.458   6.275  0.0050  0.2282  0.1345
34586W        W41186  19.871   3.032   4.669  0.0547 -0.0565  0.0346
34587W        W41187  18.197   2.232  31.959  0.4509  0.0199 -0.0010
34588W        W41188  26.320   1.694  12.573 -0.0838  0.0500 -0.2133
34589W        W41189  16.497   2.322  24.447  0.1316  0.0624 -0.1318
34590W        W41190  19.819   1.483  27.014 -0.0182  0.1561  0.1469
34591W        W41191  15.651   4.400  26.142 -0.1477 -0.1564 -0.1888
34592W        W41192  17.023   4.256  24.731  0.2401  0.0246  0.1173
34593W        W41193   0.490   3.336   2.711 -0.0774 -0.0817  0.4438
34594W        W41194  11.390   2.298   5.049 -0.1277 -0.0661 -0.1774
34595W        W41195  16.361   2.547   3.778 -0.0087 -0.3144 -0.2121
34596W        W41196   4.307   4.572  31.105  0.0017  0.3025  0.1181
34597W        W41197   8.392   2.994  14.987  0.0042 -0.1171 -0.3257
34598W        W41198   0.329   1.540  12.413  0.2283 -0.2454 -0.0488
34599W        W41199   5.790   2.001  14.515 -0.1185  0.2104  0.1295
34600W        W41200  22.418   1.553  21.923 -0.0144  0.2174  0.1256
34601W        W41201   7.454   2.461  11.547 -0.2155  0.0940 -0.1770
34602W        W41202  21.604   2.732  11.119  0.0719  0.1190  0.1342
34603W        W41203  12.491   4.289  14.014  0.0830  0.0396 -0.1065
34604W        W41204   4.622   0.233  25.145 -0.0030  0.0939 -0.1883
34605W        W41205   3.258   1.289  28.231  0.1704 -0.2814 -0.1979
34606W        W41206  14.969   0.182  26.223 -0.0499  0.0560  0.0084
34607W        W41207   0.835   0.255  22.687  0.2068  0.2042  0.1039
34608W        W41208   3.069   5.267  31.590  0.0958 -0.2495  0.1501
34609W        W41209  13.621   2.212  26.168  0.1011  0.0470  0.1859
34610W        W41210  26.288   0.967  26.165 -0.1423 -0.0112 -0.0957
34611W        W41211  21.466   3.872   0.737 -0.2953  0.4566 -0.2516
34612W        W41212   5.680   4.468  27.549  0.0803  0.0218  0.1000
34613W        W41213  25.719   1.898  26.105 -0.0228 -0.0270  0.0979
34614W        W41214  13.169   2.206  20.884 -0.1748  0.4424 -0.2206
34615W        W41215   3.757   3.260   4.295 -0.4061 -0.0945 -0.0932
34616W        W41216  21.812   3.604  27.372 -0.2131 -0.0357 -0.3476
34617W        W41217  13.358   4.277  23.578  0.1484 -0.2728 -0.3153
34618W        W41218  23.430   2.923   4.169 -0.1181 -0.1044  0.1436
34619W        W41219  22.257   6.458  11.521  0.0032  0.0519  0.0083
34620W        W41220  13.811   2.520   9.354 -0.0553 -0.1432 -0.0151
34621W        W41221  15.127   5.337   6.410 -0.0482  0.0151 -0.0179
34622W        W41222  17.047   5.125  25.225 -0.0288  0.3083 -0.0893
34623W        W41223  23.534   0.820  31.810  0.4231  0.0216  0.2023
34624W        W41224   8.249   5.965  30.539  0.1489  0.1901  0.0844
34625W        W41225  20.454   2.807  24.279  0.0452 -0.2161  0.1540
34626W        W41226  12.983   5.146  15.463 -0.4066 -0.0711 -0.0285
34627W        W41227  19.074   2.503  33.315 -0.0057 -0.2053  0.1390
34628W        W41228   6.452   0.179  28.101 -0.3062  0.2199  0.3917
34629W        W41229  17.763   3.073   4.236  0.0421 -0.2829  0.1551
34630W        W41230  14.653   2.043   6.674  0.1945 -0.2064 -0.0716
34631W        W41231  20.056   5.930  34.720 -0.1752  0.1745  0.0412
34632W        W41232  24.727   2.073  27.287  0.2553  0.1631 -0.3718
34633W        W41233  23.843   1.579  11.646  0.0367 -0.4666 -0.0175
34634W        W41234   6.192   6.052  30.980  0.1525  0.0276 -0.3855
34635W        W41235  21.766   5.171  31.220  0.0489  0.0184 -0.4847
34636W        W41236   0.299   2.836  35.224  0.2284 -0.1485 -0.0370
34637W        W41237   5.456   5.149  29.427  0.1037 -0.3188  0.1295
34638W        W41238  25.845   2.348  24.767  0.0336 -0.4050 -0.4321
34639W        W41239  19.633   5.558  24.027 -0.0803  0.0253 -0.1237
34640W        W41240   9.090   1.254  30.960  0.0014 -0.4700  0.0986
34641W        W41241   3.879   0.365  21.259  0.3261 -0.1346  0.0740
34642W        W41242   1.347   0.541   9.407  0.2239 -0.0414  0.0851
34643W        W41243   9.185   5.116  15.344 -0.1997 -0.2227  0.0734
34644W        W41244  21.395   3.934   4.266 -0.1766 -0.2294  0.3316
34645W        W41245   2.594   1.834   4.625 -0.2144 -0.1789  0.0134
34646W        W41246  16.192   5.834  14.946 -0.0164 -0.3681 -0.2602
34647W        W41247   5.987   5.580  34.453  0.6043  0.0872 -0.0392
34648W        W41248   8.074   2.414  31.854 -0.2262 -0.1741  0.1989
34649W        W41249   3.100   2.078   1.881  0.3223  0.0664  0.2168
34650W        W41250   7.813   3.090  24.078  0.1117  0.1535  0.2788
34651W        W41251   4.352   5.942   7.798  0.1829 -0.0607 -0.0325
34652W        W41252  17.954   2.398  30.897 -0.1715 -0.1782  0.0767
34653W        W41253  10.722   2.691  28.048 -0.0529 -0.0886 -0.2402
34654W        W41254  22.944   2.164  34.646  0.1048  0.0509  0.0484
34655W        W41255   8.506   2.215   4.784 -0.0238 -0.1675 -0.1203
34656W        W41256  17.590   0.665  21.649  0.0914  0.1681 -0.5948
34657W        W41257  20.476   3.522   9.154 -0.0231 -0.1033  0.1958
34658W        W41258   7.604   5.024  35.278 -0.3193  0.0506 -0.0479
34659W        W41259  19.670   5.127   5.411  0.1406  0.4730 -0.0912
34660W        W41260  22.417   2.462  12.242  0.0013  0.2372  0.0984
34661W        W41261  23.991   0.906   0.792 -0.1240  0.1087  0.0107
34662W        W41262  19.289   3.190  33.265  0.4862  0.3421  0.1726
34663W        W41263  14.162   5.090  35.226  0.1340  0.0815 -0.2108
34664W        W41264   8.331   0.498  29.501  0.2428 -0.1356  0.3378
34665W        W41265   9.184   1.042   8.731 -0.0774 -0.4463 -0.4551
34666W        W41266  10.907   2.344  11.790 -0.0728 -0.3595 -0.0021
34667W        W41267  24.571   4.957  30.807 -0.0682  0.3285  0.0359
34668W        W41268   4.740   1.783  24.519  0.1250  0.0892 -0.0270
34669W        W41269  23.716   6.418   3.433 -0.1873  0.0637 -0.2143
34670W        W41270  14.030   3.359  32.388  0.0304  0.2471  0.0386
34671W        W41271  24.279   3.689   6.267 -0.0580  0.1432 -0.3563
34672W        W41272  16.910   2.823   6.036 -0.0377  0.1632 -0.1180
34673W        W41273   0.732   3.569  28.240  0.2527  0.0661 -0.1195
34674W        W41274   7.161   2.855  15.460  0.0554  0.1402  0.0361
34675W        W41275  22.747   4.815   5.447 -0.0132  0.1162  0.1091
34676W        W41276   6.915   6.034  23.488  0.0207 -0.0039 -0.2132
34677W        W41277  19.934   4.463   4.952  0.0787  0.2409  0.0773
34678W        W41278   1.226   3.424   5.907 -0.1948  0.2224 -0.0349
34679W        W41279   4.639   1.828  27.197 -0.0175  0.1156 -0.1264
34680W        W41280   4.305   3.257  23.655  0.1782 -0.1666  0.1491
34681W        W41281   0.504   5.784  23.759 -0.0229  0.1172  0.1358
34682W        W41282   3.930   2.910   5.491  0.2031 -0.0000  0.0611
34683W        W41283   4.539   0.215   1.088 -0.0492  0.1971  0.0178
34684W        W41284  12.033   0.758  29.740 -0.3604 -0.2726 -0.0586
34685W        W41285   7.042   2.914  13.175  0.0426  0.1118  0.0244
34686W        W41286   7.690   3.000  34.908 -0.0305 -0.2857  0.0528
34687W        W41287   3.346   5.761   7.665 -0.0232  0.1980 -0.0190
34688W        W41288   8.579   5.086  28.373  0.1968  0.1060  0.1238
34689W        W41289   6.938   0.590   3.432 -0.2039 -0.1107 -0.2194
34690W        W41290  17.224   5.090  20.959  0.0799 -0.2722  0.2785
34691W        W41291   8.368   0.775   7.577  0.5208  0.3965  0.0718
34692W        W41292  17.716   4.804   7.220 -0.0065  0.0448  0.0162
34693W        W41293   5.926   0.148   3.676  0.0301  0.1028 -0.0326
34694W        W41294  21.039   1.953  24.986 -0.1265 -0.0290 -0.1071
34695W        W41295   6.749   1.219  26.690  0.3917  0.0208 -0.0369
34696W        W41296   9.186   0.872  35.478  0.2112 -0.0191  0.2143
34697W        W41297   5.816   4.379   6.487 -0.1410 -0.0216  0.4020
34698W        W41298  13.943   0.887  25.450 -0.2001  0.0192  0.1189
34699W        W41299  25.249   0.884   5.417 -0.2559 -0.1811 -0.0547
34700W        W41300   5.622   4.982  30.830 -0.3347  0.1651  0.0131
34701W        W41301  14.902   1.810  35.092 -0.0230  0.0029  0.0425
34702W        W41302  13.299   1.620   5.075 -0.1543  0.0755  0.0363
34703W        W41303   8.169   5.713  23.533  0.0059  0.0249 -0.0837
34704W        W41304  21.302   0.295  30.040  0.0928  0.0922 -0.1827
34705W        W41305   2.365   0.216  31.110 -0.1775 -0.2544 -0.0512
34706W        W41306   8.895   1.470  21.732 -0.0720  0.0783  0.1420
34707W        W41307  17.239   1.131  33.305  0.1833  0.2009  0.0536
34708W        W41308   4.383   6.303  28.208  0.1195 -0.2447 -0.1042
34709W        W41309   4.985   4.941  21.434 -0.3714  0.1811 -0.0474
34710W        W41310  19.548   3.486  26.411 -0.1285 -0.0752 -0.0258
34711W        W41311   1.620   2.799  28.798  0.0376 -0.2484 -0.1524
34712W        W41312   3.694   4.015  10.962  0.3427 -0.0178  0.3326
34713W        W41313  14.504   0.281   5.219 -0.4407  0.1792  0.3079
34714W        W41314   1.863   4.977   5.515 -0.1830  0.1352 -0.1791
34715W        W41315  11.738   2.987  35.528  0.3003  0.1546 -0.0901
34716W        W41316   4.428   6.590  14.185  0.0240  0.0814  0.1705
34717W        W41317  15.321   2.094  14.229 -0.0955  0.0981  0.3431
34718W        W41318  10.077   4.392   7.905  0.2040  0.1021  0.0388
34719W        W41319   4.351   0.813  34.296 -0.0727 -0.1526  0.0812
34720W        W41320  20.741   2.137  10.238 -0.0443  0.0449 -0.0964
34721W        W41321  24.488   0.531  24.254 -0.1001 -0.0825 -0.2911
34722W        W41322   5.497   0.647  26.003  0.1388  0.0621  0.0189
34723W        W41323   8.117   4.357  15.579 -0.0556  0.0900 -0.2004
34724W        W41324  21.719   0.583  22.423  0.0706 -0.1453 -0.2505
34725W        W41325   5.120   0.722   6.427 -0.2326  0.0859 -0.0173
34726W        W41326  13.310   1.395  35.763 -0.0641  0.2322  0.0923
34727W        W41327  15.204   6.484  11.042 -0.1284 -0.0673 -0.0264
34728W        W41328  15.624   3.216  31.228  0.1312 -0.1941 -0.1203
34729W        W41329  11.047   5.785   4.141  0.2487  0.0037 -0.0912
34730W        W41330   4.087   6.152   0.868  0.1934  0.2950 -0.1059
34731W        W41331  25.351   5.701   2.938 -0.1743 -0.1074  0.0019
34732W        W41332  14.108   0.609  14.730 -0.0016  0.2094 -0.2294
34733W        W41333  25.729   2.380  11.932 -0.0916 -0.2431  0.0906
34734W        W41334  26.042   2.854  29.895  0.0134 -0.4770  0.2647
34735W        W41335   7.267   4.065  12.520  0.2297  0.0635 -0.0982
34736W        W41336  14.563   0.770  30.596  0.0993 -0.0001  0.1261
34737W        W41337   2.567   1.708   7.071  0.0843 -0.1093 -0.0134
34738W        W41338  25.327   4.187  14.087  0.2706  0.0881 -0.2893
34739W        W41339  11.351   2.870  20.409 -0.0175  0.0935 -0.1076
34740W        W41340   4.206   4.137   3.311 -0.2199  0.0628  0.0308
34741W        W41341  23.651   3.043  13.559 -0.2531  0.0978  0.0234
34742W        W41342   9.855   0.370   9.500  0.3843 -0.1152 -0.0924
34743W        W41343  26.344   5.811  12.264  0.0546  0.1283  0.4247
34744W        W41344  17.301   1.923   8.680 -0.2279  0.0316 -0.1157
34745W        W41345   1.661   4.812  31.188  0.1260  0.1711  0.1193
34746W        W41346  18.582   5.259   9.580  0.0286  0.1142 -0.0771
34747W        W41347  21.696   1.537  27.022 -0.0828  0.3351  0.1643
34748W        W41348  10.672   3.901   7.470  0.1199 -0.0078 -0.2877
34749W        W41349  18.858   4.280  29.769  0.0997 -0.1602  0.0291
34750W        W41350   5.890   0.548  34.925 -0.0239 -0.2042  0.0601
34751W        W41351  14.676   2.966  32.660  0.2075 -0.0381  0.0750
34752W        W41352   3.996   2.856  29.449  0.4090 -0.1376 -0.0551
34753W        W41353   1.491   1.329   9.765  0.2138  0.2249  0.1931
34754W        W41354  14.839   2.844  14.221  0.1696  0.0363 -0.0615
34755W        W41355   1.284   0.281  33.850 -0.0086 -0.1959  0.2283
34756W        W41356  24.650   5.956  21.328 -0.0458  0.0630 -0.1096
34757W        W41357   3.012   3.606   8.016 -0.0502  0.1775 -0.0413
34758W        W41358  12.526   5.481  22.577  0.2172 -0.0985  0.0732
34759W        W41359   5.049   5.406   1.998  0.0179 -0.0567  0.0906
34760W        W41360  24.479   0.201  13.868  0.0039  0.2044 -0.1697
34761W        W41361  17.520   2.560  26.159 -0.1671  0.1581 -0.2508
34762W        W41362   0.276   3.803   3.062  0.0588  0.1391 -0.1448
34763W        W41363   9.160   4.330  29.508  0.1277 -0.0461  0.0388
34764W        W41364  19.625   2.204  34.093 -0.0337 -0.3159 -0.0810
34765W        W41365  23.777   4.857  13.876  0.0889 -0.0316 -0.0461
34766W        W41366  10.464   1.160   2.300 -0.0381  0.0858 -0.2072
34767W        W41367  20.834   5.581   2.811  0.2694  0.0766  0.1630
34768W        W41368  19.596   2.924  33.914  0.1149 -0.0708  0.0857
34769W        W41369   3.865   5.207  28.133 -0.2691  0.3101  0.2614
34770W        W41370   7.615   5.143  13.210  0.1572 -0.1256 -0.0965
34771W        W41371  20.301   6.492   3.676  0.0579 -0.0139  0.3863
34772W        W41372   9.425   3.950  12.833  0.1370 -0.0253  0.0223
34773W        W41373  26.227   5.445  22.080  0.0252 -0.1451 -0.0456
34774W        W41374  18.679   3.676   3.141 -0.0584 -0.1766 -0.1715
34775W        W41375   9.635   4.189  29.751 -0.3140 -0.1007  0.2014
34776W        W41376  12.740   2.364  28.125  0.2078  0.2095 -0.0794
34777W        W41377   2.846   0.939  33.924  0.1733  0.0109  0.1160
34778W        W41378   8.104   3.386  11.656  0.0547 -0.0426  0.2311
34779W        W41379   4.909   3.973   5.193  0.0244 -0.0410 -0.0381
34780W        W41380  25.732   5.205   5.161 -0.1279 -0.1237  0.1103
34781W        W41381  12.815   3.531  30.291  0.0926 -0.0224  0.3804
34782W        W41382   5.071   4.807  12.060  0.0240 -0.4703 -0.0624
34783W        W41383  22.537   5.276   0.940 -0.0622  0.0065 -0.1605
34784W        W41384   1.370   2.306  20.681 -0.0211  0.0244 -0.0176
34785W        W41385  13.169   3.907  27.991  0.1449 -0.0516  0.1404
34786W        W41386  16.860   3.794   0.674  0.0133  0.1051  0.2433
34787W        W41387  10.118   1.134   1.421  0.1786 -0.0089  0.1495
34788W        W41388  20.004   0.149  26.306 -0.0737 -0.0502 -0.3175
34789W        W41389  20.548   3.137  13.306 -0.1371  0.0026  0.0192
34790W        W41390  20.126   0.888   3.994 -0.0892 -0.0694  0.0548
34791W        W41391  10.604   0.472  27.963 -0.1796  0.2418 -0.0939
34792W        W41392  18.247   2.206   7.326  0.3078 -0.0853 -0.0409
34793W        W41393   9.068   0.954   7.150 -0.3653 -0.0003 -0.2151
34794W        W41394  14.944   5.208  31.155  0.0892  0.0943  0.1416
34795W        W41395  18.115   1.861  23.530 -0.1986  0.3298 -0.4566
34796W        W41396  15.025   0.693  24.209  0.1270  0.3115 -0.1127
34797W        W41397  23.025   4.985  13.258  0.3150 -0.1876  0.0592
34798W        W41398  21.546   4.477  23.404  0.0556  0.1923 -0.1583
34799W        W41399  13.756   5.732   3.290  0.3685  0.3007  0.1982
34800W        W41400   8.499   2.226  25.445  0.2072  0.1932  0.0752
34801W        W41401  19.082   2.849  29.489  0.0284  0.0671 -0.0048
34802W        W41402  19.442   4.927   3.640 -0.1381 -0.0466  0.1858
34803W        W41403  18.963   3.851   9.964  0.1850  0.3862 -0.3637
34804W        W41404   2.417   2.372  21.019 -0.0191  0.2209  0.0198
34805W        W41405   2.005   3.400   4.348  0.0404  0.2624  0.0386
34806W        W41406  24.395   2.890  32.233  0.2183 -0.0524  0.0481
34807W        W41407  26.257   0.761  21.511  0.1365  0.1739  0.0615
34808W        W41408  16.002   1.618   0.470  0.1467  0.1017  0.0229
34809W        W41409  22.997   1.893   8.705 -0.1536 -0.1231 -0.3750
34810W        W41410   1.811   5.514  31.733  0.1570  0.2099  0.0013
34811W        W41411   6.473   5.772   3.299 -0.0119  0.1286 -0.0656
34812W        W41412   0.320   4.202   1.044  0.0874  0.1056 -0.1606
34813W        W41413  22.087   2.532   2.332  0.1748 -0.2118 -0.0728
34814W        W41414   9.555   1.055  31.029 -0.2542 -0.1195 -0.1414
34815W        W41415   4.612   1.348  11.266  0.0264 -0.2927  0.0304
34816W        W41416  16.540   5.651  28.234  0.1638 -0.0112  0.4642
34817W        W41417  12.715   6.195  14.902  0.2195 -0.5562  0.2629
34818W        W41418  25.439   1.972   3.379 -0.2558 -0.1858 -0.0852
34819W        W41419   7.560   3.274   9.259 -0.1345 -0.0546 -0.3414
34820W        W41420  15.306   6.405  25.139  0.0248 -0.0558  0.0181
34821W        W41421  12.982   5.522  29.645  0.0760  0.2037 -0.1062
34822W        W41422   2.340   1.490  22.077  0.2121 -0.0326 -0.2549
34823W        W41423  25.631   5.128  23.975  0.2050  0.0472  0.0635
34824W        W41424   3.839   5.598   6.239 -0.2036  0.4676 -0.2874
34825W        W41425  24.128   0.334  29.662 -0.0777 -0.0130  0.0795
34826W        W41426   2.649   1.623   5.545 -0.0393 -0.2344  0.3344
34827W        W41427   9.218   1.455  10.872  0.1054  0.1002 -0.0769
34828W        W41428  10.151   4.707  30.714  0.0801  0.1981  0.1827
34829W        W41429  22.288   1.163  32.889 -0.1135  0.2345  0.1426
34830W        W41430  12.272   3.600  11.500 -0.0210  0.2388 -0.2859
34831W        W41431  16.511   5.503  31.119  0.3769  0.0831  0.0394
34832W        W41432  16.313   1.094  30.238 -0.2829  0.0052 -0.0806
34833W        W41433  10.228   3.857  25.086  0.0744  0.0824 -0.0670
34834W        W41434   6.179   3.496   0.965  0.1830 -0.0311 -0.2718
34835W        W41435   9.316   1.019  14.483  0.2351 -0.3948 -0.2172
34836W        W41436  14.939   4.591  30.333  0.0165  0.0657  0.0412
34837W        W41437   2.014   1.825  34.851 -0.2142 -0.0307  0.0621
34838W        W41438  12.682   1.101  34.495 -0.0511 -0.0672  0.3260
34839W        W41439  24.847   0.663  23.778  0.0935  0.1365 -0.0521
34840W        W41440  15.233   2.088   7.850 -0.0352  0.0444 -0.2307
34841W        W41441   4.524   3.398  26.415 -0.1239 -0.0443 -0.1532
34842W        W41442  22.253   3.779  11.595 -0.1995 -0.3171  0.0855
34843W        W41443   0.887   1.256   4.936  0.2834  0.1093 -0.1164
34844W        W41444  24.581   6.060  26.766 -0.2506  0.1905  0.2425
34845W        W41445  24.170   2.818   8.700  0.0403 -0.0924  0.2768
34846W        W41446  19.375   1.109  15.573  0.0606 -0.0959  0.4363
34847W        W41447  14.219   5.816  27.704 -0.0490  0.2561 -0.0644
34848W        W41448  12.173   5.834  22.848 -0.1964  0.0528 -0.0321
34849W        W41449   0.072   3.711  21.931  0.0736  0.0122  0.0924
34850W        W41450   6.714   3.990   4.952 -0.1127 -0.1365 -0.1017
34851W        W41451   9.086   3.013  29.696 -0.0443 -0.1070 -0.0234
34852W        W41452  11.622   1.347  10.920  0.3055  0.2335  0.1853
34853W        W41453   3.597   0.619   5.056  0.1525  0.2055  0.1256
34854W        W41454  17.839   0.281  10.011 -0.0237 -0.2495 -0.1585
34855W        W41455  18.757   1.562  14.574  0.0810  0.2349  0.0155
34856W        W41456  11.357   5.227  26.044 -0.0048  0.0464 -0.0291
34857W        W41457   7.940   6.105   0.134  0.2568  0.3385  0.0679
34858W        W41458  22.868   3.981  26.147 -0.0155  0.1443  0.0744
34859W        W41459  22.332   3.549   2.478  0.0185  0.4932  0.0191
34860W        W41460   5.760   5.536   6.792  0.0046  0.0108 -0.1908
34861W        W41461   8.939   1.997   8.900  0.0183 -0.1625  0.1521
34862W        W41462  10.034   2.205  34.056  0.0049  0.2114  0.1026
34863W        W41463  23.370   5.019  34.950  0.1909  0.0546  0.2067
34864W        W41464  11.945   3.284  27.468 -0.0017  0.1615 -0.1695
34865W        W41465  20.835   6.127  28.944 -0.0193 -0.2020  0.0383
34866W        W41466   1.987   1.041  32.246 -0.1346 -0.1254  0.0025
34867W        W41467   1.963   0.451   2.786 -0.4252  0.1707 -0.1979
34868W        W41468   7.806   4.505  24.925 -0.0183  0.1008  0.0822
34869W        W41469  20.326   1.394  28.710 -0.3739 -0.2151  0.2193
34870W        W41470  14.428   1.078   5.325 -0.1093 -0.0811  0.0173
34871W        W41471  19.257   4.954   0.869  0.0548  0.2516  0.1263
34872W        W41472  14.433   6.175  33.267 -0.1941  0.2485  0.1074
34873W        W41473  23.411   3.018  31.166 -0.0444 -0.2751 -0.0460
34874W        W41474   5.397   6.119  23.674  0.1999 -0.3964 -0.1408
34875W        W41475  10.762   5.094  24.314 -0.3834 -0.2058 -0.2110
34876W        W41476  11.918   2.840  11.786 -0.1111 -0.1744 -0.2491
34877W        W41477  11.487   4.014  26.368 -0.1193  0.1490 -0.2229
34878W        W41478  24.985   3.544  34.865  0.1954  0.1443 -0.0546
34879W        W41479   2.948   2.454  21.217  0.1332 -0.0100  0.2175
34880W        W41480  11.172   0.666   6.931  0.1584  0.0838  0.0979
34881W        W41481  15.648   6.362  13.502  0.2874  0.1507 -0.1455
34882W        W41482  22.531   0.418  20.277  0.0914  0.1904  0.0362
34883W        W41483  11.836   4.232  25.578 -0.1659 -0.1578  0.1866
34884W        W41484   9.621   0.718  22.854 -0.3194 -0.2628  0.4845
34885W        W41485   1.208   3.063   8.781 -0.0702  0.1399 -0.3373
34886W        W41486   2.128   4.598   5.683 -0.4698  0.1128  0.1869
34887W        W41487   5.429   2.575  12.395  0.0208 -0.0562 -0.3029
34888W        W41488  16.011   3.022   7.528  0.0218  0.0904 -0.1823
34889W        W41489   9.325   3.892   4.038 -0.2057 -0.0772 -0.4139
34890W        W41490  26.110   5.501   2.363  0.2078  0.0725 -0.1043
34891W        W41491  15.115   1.150   4.791 -0.0218  0.0372  0.0703
34892W        W41492   8.451   5.026   6.254  0.1277 -0.3012  0.0223
34893W        W41493   6.896   6.226  21.686 -0.3270 -0.0922  0.1238
34894W        W41494  14.490   4.154  23.135 -0.0167 -0.1491 -0.2021
34895W        W41495  21.751   0.488  34.357  0.2492  0.2612 -0.2018
34896W        W41496  19.500   5.243  23.354 -0.0795  0.1146  0.3361
34897W        W41497  14.779   2.335  27.813 -0.0017 -0.2268 -0.2909
34898W        W41498   6.809   4.841  11.466  0.0686  0.1368 -0.0339
34899W        W41499  26.287   0.299  35.136  0.2329  0.1162 -0.2008
34900W        W41500  20.827   4.628   1.940  0.0409  0.0506  0.0344
34901W        W41501   6.545   2.671  14.234  0.2317  0.0031  0.0660
34902W        W41502  15.506   4.656   2.516  0.2732  0.1346  0.1177
34903W        W41503  13.914   2.119   0.824  0.1586 -0.2259  0.0151
34904W        W41504   0.934   1.017   4.394  0.0541  0.2628  0.0406
34905W        W41505  25.747   5.341  31.237 -0.2284  0.2175 -0.2203
34906W        W41506  13.791   5.708   1.104  0.0843 -0.1395 -0.1648
34907W        W41507   9.716   3.976  22.397 -0.0138  0.2353  0.1062
34908W        W41508  22.359   3.415   1.551  0.1361 -0.0969 -0.0925
34909W        W41509  14.510   0.454  12.063 -0.0011  0.1092 -0.0624
34910W        W41510   5.485   1.904   3.910 -0.2051  0.1950  0.1940
34911W        W41511  22.304   3.314  29.189  0.0683  0.1172 -0.0265
34912W        W41512   5.264   0.417   6.069  0.0026  0.0833 -0.0666
34913W        W41513  25.329   0.504   0.766 -0.0197  0.3142 -0.0361
34914W        W41514   7.939   2.113  33.792  0.0012  0.1249  0.1567
34915W        W41515  25.310   5.235  22.985  0.0804 -0.0087  0.0504
34916W        W41516  23.881   2.203   2.023  0.1217 -0.0142  0.2351
34917W        W41517   9.049   5.920  15.134 -0.0571 -0.0935 -0.2870
34918W        W41518   6.047   5.578  28.237  0.2265  0.0298 -0.1066
34919W        W41519  17.638   4.279   1.679 -0.2770  0.1591  0.0057
34920W        W41520  12.921   3.838   1.130 -0.0550 -0.1147  0.0384
34921W        W41521   1.024   6.369   4.350  0.2182 -0.1773 -0.1243
34922W        W41522   9.709   0.195   5.064  0.0773 -0.1859 -0.2041
34923W        W41523   0.905   2.971  21.795 -0.2601 -0.0381 -0.3785
34924W        W41524  24.765   4.427  30.808 -0.2362 -0.1150  0.1502
34925W        W41525   7.793   2.898  35.416 -0.3556 -0.2979  0.2534
34926W        W41526  12.120   3.662  12.554  0.0507  0.3462  0.1414
34927W        W41527   2.133   0.918   7.422  0.0644  0.1954  0.1832
34928W        W41528  20.530   3.804  14.133  0.0352  0.1396  0.2651
34929W        W41529  14.461   6.072   9.845  0.2382 -0.1479 -0.1689
34930W        W41530  18.578   0.540   8.092 -0.2154  0.3345 -0.1923
34931W        W41531   4.651   5.734   2.518 -0.0436  0.0976 -0.1322
34932W        W41532   6.138   5.915   3.651  0.1502  0.1990 -0.0822
34933W        W41533  22.690   3.187   2.397 -0.2000  0.1289 -0.2693
34934W        W41534  21.973   3.721  11.153 -0.2046 -0.2699 -0.0755
34935W        W41535   2.741   1.421   7.976  0.1386  0.3281 -0.0288
34936W        W41536  24.039   3.923  27.431  0.0600  0.2598 -0.0156
34937W        W41537  24.569   2.455  31.814 -0.0453  0.0709  0.1334
34938W        W41538  13.482   1.660  11.194 -0.3261  0.1135 -0.1662
34939W        W41539   3.083   1.985   4.706 -0.0480 -0.2143  0.0706
34940W        W41540   5.408   0.105  26.129  0.0857  0.2023 -0.0797
34941W        W41541  14.543   6.314  12.320  0.0247  0.1109 -0.0512
34942W        W41542   9.060   5.093   2.107  0.5590  0.1971  0.2715
34943W        W41543  23.426   0.666   1.287 -0.1858  0.1628 -0.0143
34944W        W41544   2.009   0.083   9.304  0.2219 -0.1000 -0.1923
34945W        W41545  10.302   2.322  15.571 -0.0032 -0.1413  0.0020
34946W        W41546   5.019   0.131  10.896 -0.1117  0.2166  0.2863
34947W        W41547  23.536   5.452  26.040 -0.1026  0.2002  0.0737
34948W        W41548   1.199   3.314   7.206 -0.1227  0.1615 -0.0293
34949W        W41549  15.244   2.539  14.493  0.2450  0.0279  0.1425
34950W        W41550   9.715   1.499  11.519  0.0737 -0.1686 -0.0633
34951W        W41551  20.868   6.287  28.436  0.1562 -0.0251 -0.1932
34952W        W41552  14.352   3.710  14.859 -0.0477 -0.2508  0.0249
34953W        W41553  15.139   0.136   5.576 -0.1997 -0.0196 -0.0181
34954W        W41554  14.386   2.332  35.256 -0.1632  0.0233  0.0214
34955W        W41555   7.897   0.438   8.234  0.2122  0.0691 -0.1083
34956W        W41556   1.317   3.928  11.470  0.0839  0.0261 -0.1211
34957W        W41557   6.877   4.694  25.548 -0.0209  0.2183  0.1477
34958W        W41558  18.921   6.052  10.727 -0.0969  0.1526  0.2944
34959W        W41559   2.996   5.440   3.893 -0.0596  0.2622 -0.2124
34960W        W41560  13.423   2.043  33.389  0.1245  0.0594 -0.1504
34961W        W41561  14.529   3.952  14.423 -0.1241 -0.3007  0.1372
34962W        W41562  23.633   1.386  25.030 -0.2084  0.0642  0.0595
34963W        W41563  14.184   6.321  31.742 -0.2370  0.4059 -0.3473
34964W        W41564  18.051   6.065  29.208 -0.0966  0.1356  0.1159
34965W        W41565   4.471   5.972  31.387 -0.2109 -0.2433 -0.1887
34966W        W41566   3.474   3.631  26.220  0.2070  0.0763  0.1082
34967W        W41567   4.649   1.955  24.983 -0.1442 -0.0229 -0.2945
34968W        W41568   7.461   0.029  35.349 -0.0541  0.0345  0.0714
34969W        W41569  21.847   2.309   7.837  0.0050 -0.3442 -0.0114
34970W        W41570  11.034   5.318  27.574  0.2837  0.0000  0.0943
34971W        W41571  12.015   3.139  34.696  0.0195 -0.3297 -0.1526
34972W        W41572   5.097   3.042   1.729  0.0344 -0.0207 -0.1689
34973W        W41573   1.219   1.673   1.952 -0.1109 -0.1973  0.1914
34974W        W41574   6.968   0.934  28.242 -0.2458 -0.0988  0.3105
34975W        W41575  18.242   1.814   9.207  0.0908  0.0837 -0.2760
34976W        W41576  19.073   0.052  36.000 -0.0290 -0.0133 -0.1705
34977W        W41577   6.819   5.528  25.427 -0.2055 -0.2069 -0.1346
34978W        W41578   4.022   2.574  22.229 -0.2199  0.0174 -0.0799
34979W        W41579  19.779   5.115  33.639 -0.0179  0.2479  0.0241
34980W        W41580  11.935   6.327   0.136 -0.2921 -0.1771 -0.2129
34981W        W41581  24.912   0.147  31.975  0.0960 -0.0628 -0.1533
34982W        W41582   2.359   1.048   2.076  0.2251 -0.0320 -0.0181
34983W        W41583   1.667   6.437   0.604  0.1462  0.1109  0.2177
34984W        W41584  20.697   2.343   8.357 -0.3554 -0.3129  0.1314
34985W        W41585  13.211   5.202  24.865  0.0821  0.1910 -0.3422
34986W        W41586  13.227   5.958  27.625  0.0129  0.0437 -0.0046
34987W        W41587  21.572   4.155   2.504  0.0037  0.2095 -0.1083
34988W        W41588  17.464   2.770  28.066  0.2161  0.2984 -0.1601
34989W        W41589   3.217   5.827   0.419  0.0844 -0.2208  0.4354
34990W        W41590   1.248   5.127   9.713 -0.2517 -0.0786 -0.2058
34991W        W41591   7.445   0.569   3.484  0.0461  0.0809  0.2115
34992W        W41592  11.412   6.400  27.382  0.2251 -0.3116 -0.2246
34993W        W41593   7.052   2.776  10.325  0.1372 -0.0792  0.0649
34994W        W41594  19.297   2.309  23.068 -0.0243 -0.1927  0.0007
34995W        W41595   7.752   3.685  10.216 -0.0787 -0.1213 -0.2303
34996W        W41596  25.561   5.475  26.048  0.1539  0.0237 -0.3095
34997W        W41597   5.508   2.734  28.758 -0.0612  0.1934  0.0742
34998W        W41598  10.521   5.287  34.775  0.4338  0.0308 -0.2323
34999W        W41599  19.043   3.794  12.874  0.1156 -0.2437 -0.0518
35000W        W41600  14.465   1.250   3.600 -0.0517  0.1713 -0.0146
35001W        W41601   3.975   6.478   4.422 -0.2073  0.1766  0.3578
35002W        W41602  22.753   3.659  25.757  0.0591 -0.1171  0.1600
35003W        W41603  19.518   3.053  35.447  0.0983  0.2091  0.1358
35004W        W41604  10.620   2.709  22.733 -0.1105 -0.0727  0.3131
35005W        W41605  23.465   2.645  29.193 -0.0586 -0.0830  0.1423
35006W        W41606  10.667   3.790   5.270 -0.0474 -0.1701 -0.0133
35007W        W41607   9.063   6.227  13.381  0.1075  0.1529 -0.1830
35008W        W41608   3.881   1.306  26.438  0.1003  0.2032  0.3480
35009W        W41609  16.006   2.129   9.985  0.1188  0.1670 -0.0967
35010W        W41610  18.110   2.358   3.332  0.1578  0.1786  0.0099
35011W        W41611  17.974   2.575  25.744  0.1056  0.3310  0.1343
35012W        W41612   0.477   2.510  30.942 -0.1489 -0.1733 -0.0944
35013W        W41613  12.808   0.037  22.443  0.1551  0.0048 -0.0068
35014W        W41614  15.279   6.332  14.065  0.0930  0.1706  0.0335
35015W        W41615  24.345   4.469  13.057 -0.0377 -0.2559  0.3043
35016W        W41616  11.758   3.735   9.898  0.2178  0.3471 -0.0938
35017W        W41617   3.626   3.309  32.127  0.0227 -0.1586  0.1435
35018W        W41618  21.319   4.149  33.285 -0.2265  0.2874  0.3527
35019W        W41619   3.645   2.317  15.120  0.1046  0.0899  0.3827
35020W        W41620  16.965   3.216   3.129  0.1764 -0.2958  0.0841
35021W        W41621  20.471   5.203  27.492  0.0091  0.0465 -0.1935
35022W        W41622  15.848   2.395  10.351 -0.1142 -0.3394  0.0269
35023W        W41623   5.817   0.537  29.215  0.1241  0.0958  0.0238
35024W        W41624  12.525   3.582  30.974 -0.0790  0.0759  0.1274
35025W        W41625  17.575   4.214  22.167 -0.0427  0.1920 -0.0369
35026W        W41626  11.263   6.082  20.274 -0.4143  0.1604 -0.0587
35027W        W41627  16.517   2.333  12.694 -0.1516 -0.1626  0.1173
35028W        W41628   7.402   2.618  23.024 -0.1719  0.0297 -0.0757
35029W        W41629  17.848   0.385  22.927 -0.1358 -0.1331  0.1187
35030W        W41630  20.052   2.744  33.331 -0.1088  0.2635  0.2399
35031W        W41631  19.666   0.141   1.050  0.0227 -0.1754 -0.1050
35032W        W41632  21.338   0.799  22.794  0.1368  0.0388  0.0384
35033W        W41633   6.695   4.136  13.194  0.1112 -0.1411 -0.3138
35034W        W41634   2.622   5.216   8.992  0.1193 -0.3714 -0.1081
35035W        W41635  24.985   3.591  31.083  0.1146  0.0058 -0.1677
35036W        W41636  18.208   0.966  13.637  0.3403 -0.1297  0.2859
35037W        W41637   8.364   3.930  32.264  0.0659 -0.2331  0.0354
35038W        W41638   3.139   2.805  10.018  0.0413 -0.1963 -0.1653
35039W        W41639  22.075   6.583  30.904 -0.1324 -0.2167  0.1641
35040W        W41640   5.662   0.154  34.592 -0.0974 -0.0402  0.1151
35041W        W41641   2.401   3.269   4.690 -0.0425 -0.0958 -0.2799
35042W        W41642   5.148   1.549  32.870  0.3774 -0.3186  0.1077
35043W        W41643   5.397   4.063  22.883  0.0442 -0.1935 -0.2439
35044W        W41644   0.493   3.224  24.597  0.2759  0.0344 -0.0685
35045W        W41645   2.381   5.877  32.202  0.1337 -0.0176  0.1236
35046W        W41646   4.406   0.448  28.133 -0.3001 -0.2757 -0.1287
35047W        W41647  16.840   2.779  33.691  0.1555  0.2723  0.2091
35048W        W41648   3.042   5.662  33.338 -0.1862 -0.0102  0.0443
35049W        W41649  14.736   4.256  32.679 -0.3442 -0.1874  0.2694
35050W        W41650   6.426   0.505   3.474  0.2997  0.1037  0.2574
35051W        W41651   3.954   2.000  11.189 -0.1319 -0.2295  0.0880
35052W        W41652  18.661   4.250  15.581 -0.0999  0.0990 -0.0795
35053W        W41653  18.162   2.036  11.929  0.0658  0.0644 -0.0090
35054W        W41654  10.670   4.321  29.180  0.0314  0.0169 -0.3500
35055W        W41655   4.695   4.322  26.535  0.0347 -0.1497  0.2315
35056W        W41656  15.293   1.649  20.589  0.1396  0.3131  0.2622
35057W        W41657  14.485   5.202  23.186  0.1187 -0.0655  0.0355
35058W        W41658   8.186   2.217   5.126 -0.1102 -0.1771  0.2664
35059W        W41659   3.720   0.960  28.014  0.1453 -0.2235 -0.3147
35060W        W41660  20.932   6.469  35.878 -0.1299  0.3686 -0.1907
35061W        W41661   2.624   5.176  15.250  0.2148 -0.0372 -0.2180
35062W        W41662  17.193   1.209  31.639  0.1784  0.0340 -0.0808
35063W        W41663  14.704   0.931  33.608 -0.3178  0.5347 -0.0533
35064W        W41664  23.779   5.039  35.219  0.1124 -0.1690 -0.4390
35065W        W41665   7.399   1.778  12.214  0.2255  0.0950 -0.1419
35066W        W41666   3.364   5.297   8.255 -0.0564 -0.2425  0.1208
35067W        W41667   7.913   6.044   5.314 -0.0873 -0.4168 -0.0613
35068W        W41668  18.054   6.379  27.583  0.1806 -0.1298  0.1441
35069W        W41669   6.439   4.373  30.439 -0.0103  0.1384 -0.0205
35070W        W41670   9.357   4.189  26.476 -0.0047 -0.0344  0.0983
35071W        W41671  24.642   4.748  13.922 -0.1387 -0.0766 -0.1957
35072W        W41672  16.445   1.843  29.888 -0.1226 -0.0156  0.0397
35073W        W41673   0.776   3.841  34.462  0.1254 -0.0727  0.0696
35074W        W41674  17.503   3.105  11.126 -0.3363 -0.0083  0.1607
35075W        W41675  23.549   3.281  11.287 -0.1625 -0.0809  0.3169
35076W        W41676  18.412   2.501  35.390 -0.1598  0.1471 -0.4676
35077W        W41677  26.313   6.205  31.211  0.2396  0.0011  0.5112
35078W        W41678   0.020   2.870   8.398  0.2188  0.1821 -0.2930
35079W        W41679  22.688   3.421  30.493  0.3487 -0.0775 -0.2200
35080W        W41680   7.542   6.089   7.708 -0.0043  0.1476  0.1783
35081W        W41681   3.426   1.007  26.202 -0.0646 -0.1263 -0.1055
35082W        W41682  23.158   3.688   9.881 -0.3118  0.2373 -0.3471
35083W        W41683   3.208   3.506  22.893  0.0157 -0.1758  0.0812
35084W        W41684   1.284   4.750   7.495  0.1443  0.2057 -0.1426
35085W        W41685   5.222   1.752   7.808  0.2544 -0.3209  0.0714
35086W        W41686  21.231   0.864  23.852 -0.1527 -0.1289  0.1393
35087W        W41687  19.140   1.896  15.284  0.0130  0.2007  0.0526
35088W        W41688   1.448   4.901  26.124 -0.1592  0.0383  0.2066
35089W        W41689   5.432   6.412  30.423  0.4601 -0.2319 -0.2964
35090W        W41690  26.288   5.664  23.613 -0.1193  0.1104  0.1841
35091W        W41691  24.762   2.735   0.465 -0.1068 -0.2653 -0.0655
35092W        W41692   5.347   3.462  20.921 -0.0469 -0.0933  0.1259
35093W        W41693   3.381   2.058  26.547  0.1214  0.0622  0.4939
35094W        W41694   3.112   5.249  15.094 -0.2540  0.2296  0.3600
35095W        W41695  25.175   0.475   6.256  0.2356 -0.3252  0.2188
35096W        W41696  19.480   0.052   7.677  0.0921 -0.2160  0.2794
35097W        W41697  26.212   5.380  23.126  0.0415  0.0131  0.0558
35098W        W41698  20.822   3.740   1.733 -0.2667 -0.0450 -0.2766
35099W        W41699   1.341   5.101   3.813  0.1093  0.2926 -0.0757
35100W        W41700  13.121   1.662   3.266 -0.1993 -0.1748  0.1483
35101W        W41701  21.761   5.091  22.657  0.0204  0.0078 -0.0543
35102W        W41702   5.843   1.156  33.476 -0.0445  0.0948 -0.1952
35103W        W41703   9.284   4.299   3.042  0.2453 -0.0768 -0.0471
35104W        W41704   5.880   4.564  30.380 -0.1227 -0.1437 -0.0651
35105W        W41705  20.546   4.215  10.440  0.1186 -0.1620 -0.0301
35106W        W41706   1.454   5.735  33.488 -0.1594 -0.1730  0.0832
35107W        W41707   3.831   1.621  21.793  0.3253 -0.1515  0.0532
35108W        W41708   3.619   5.133  27.168 -0.0642 -0.0012 -0.2136
35109W        W41709  11.511   3.073  21.005  0.0799  0.3774 -0.0658
35110W        W41710  14.068   4.228   5.543  0.0383  0.0331 -0.1296
35111W        W41711  14.958   2.162   1.879  0.0475  0.0852  0.2928
35112W        W41712  22.525   3.451   7.043 -0.0076 -0.5377  0.1584
35113W        W41713  22.959   0.200  20.232 -0.2463 -0.1711 -0.0315
35114W        W41714  21.155   5.862   3.131 -0.0742  0.3148  0.1081
35115W        W41715  23.292   3.706   4.264 -0.1056 -0.1193  0.1416
35116W        W41716   3.187   4.361   7.213 -0.0348  0.1295  0.0354
35117W        W41717  20.389   5.748  14.246 -0.2053  0.0734  0.2175
35118W        W41718   3.564   0.737  14.927  0.1384 -0.1352 -0.1756
35119W        W41719  22.752   1.773   4.092  0.1175  0.1432 -0.0248
35120W        W41720  10.845   6.363   1.404  0.1110  0.1877 -0.1108
35121W        W41721  10.724   5.600   7.335  0.2575 -0.1324 -0.2232
35122W        W41722   4.561   6.554  11.765 -0.0771 -0.0150 -0.2732
35123W        W41723  17.997   3.901   8.079  0.1361 -0.0362 -0.0974
35124W        W41724  21.101   1.177   4.638 -0.0756 -0.1671  0.1153
35125W        W41725   2.717   4.537  28.544 -0.2027  0.2237 -0.2668
35126W        W41726  22.973   3.703  13.345 -0.3338  0.2999 -0.3155
35127W        W41727  23.616   3.921  33.101  0.1691  0.0266  0.0040
35128W        W41728  15.725   5.764   1.840  0.0031  0.0333 -0.2127
35129W        W41729  22.282   1.936   1.008  0.1542  0.1171  0.0969
35130W        W41730  13.374   4.584  26.628 -0.2799  0.3354 -0.2107
35131W        W41731  16.004   2.934   5.770 -0.0075  0.2781  0.0764
35132W        W41732  15.886   5.654  14.553  0.1546  0.0427 -0.0986
35133W        W41733  14.471   1.484  28.119 -0.0269 -0.1481  0.2006
35134W        W41734  23.943   6.372  33.977 -0.3049  0.5052  0.2326
35135W        W41735  17.905   2.508  34.170  0.2620 -0.1306 -0.1066
35136W        W41736  11.610   4.057  13.845  0.2122 -0.2310  0.1510
35137W        W41737   9.460   5.548  32.664 -0.1686 -0.3832  0.4096
35138W        W41738  19.440   2.903   7.866 -0.1066  0.0775 -0.0088
35139W        W41739  17.829   1.897  21.087  0.0035 -0.1105  0.2155
35140W        W41740  11.362   2.099   5.711 -0.1462  0.0366 -0.0687
35141W        W41741  16.523   5.409  12.018 -0.0336  0.2840 -0.1270
35142W        W41742   2.142   5.197  11.406  0.0336  0.1564 -0.0560
35143W        W41743   8.552   3.422   3.811  0.1042  0.3406  0.0196
35144W        W41744   3.252   3.568   4.910 -0.1080  0.2422 -0.0704
35145W        W41745   5.110   2.209   9.272  0.3262  0.3164 -0.3212
35146W        W41746  25.472   3.381  14.845  0.1102 -0.1110  0.1644
35147W        W41747   3.757   4.647  35.698 -0.1046 -0.2641  0.3060
35148W        W41748   4.275   2.392  26.555 -0.1618  0.0879 -0.0053
35149W        W41749   2.976   3.539  31.001 -0.1013 -0.0588  0.2269
35150W        W41750  17.046   2.134  14.827 -0.3853 -0.2513 -0.0933
35151W        W41751   7.393   4.854  29.605 -0.4243 -0.0277 -0.0789
35152W        W41752   4.336   2.678  34.046  0.0863  0.2301  0.2504
35153W        W41753  17.695   6.311   8.841 -0.0968 -0.1108  0.0873
35154W        W41754  23.182   5.188  35.356 -0.1613 -0.1432  0.0576
35155W        W41755  18.166   2.018  14.279  0.0187 -0.0284  0.3136
35156W        W41756  20.374   1.174   5.338 -0.0754 -0.1719 -0.2344
35157W        W41757  17.374   3.544   3.102 -0.0718 -0.0180  0.0552
35158W        W41758   3.381   4.707  32.358  0.0585 -0.0045  0.1283
35159W        W41759   3.585   2.574  32.150 -0.1192  0.4069 -0.0513
35160W        W41760  25.627   4.637   6.825  0.2524 -0.1048  0.2307
35161W        W41761  16.326   0.877  13.214 -0.3907 -0.0712 -0.0187
35162W        W41762  18.225   1.682  13.908 -0.0228  0.2300  0.1363
35163W        W41763   6.228   2.404  10.828  0.0610  0.1098  0.1607
35164W        W41764  12.177   0.378  25.758 -0.2295 -0.1884  0.0120
35165W        W41765   8.304   1.449   1.087 -0.0519  0.1573 -0.0804
35166W        W41766  24.247   0.868  27.917 -0.1557  0.0701 -0.1784
35167W        W41767  10.427   2.130   7.763 -0.1989  0.1826 -0.2058
35168W        W41768  22.305   1.780  27.025 -0.5918  0.2191  0.0239
35169W        W41769  25.827   6.359  20.820 -0.0073 -0.0985 -0.1615
35170W        W41770  24.590   2.776  20.494  0.2244 -0.0136 -0.1093
35171W        W41771  16.982   1.017  28.672 -0.0531 -0.0169  0.2206
35172W        W41772  18.048   1.756  25.171  0.1971  0.0811 -0.1028
35173W        W41773   1.179   2.028  14.118 -0.0130 -0.4314 -0.0093
35174W        W41774  24.468   4.395  22.867 -0.1688  0.1358  0.3290
35175W        W41775   0.756   1.640  14.505  0.0455  0.2174  0.2302
35176W        W41776   7.615   3.950  12.963 -0.2940  0.1038 -0.0537
35177W        W41777   7.927   5.456   5.759  0.0291  0.2595  0.2411
35178W        W41778  19.107   0.523  30.082 -0.0212 -0.1793  0.0800
35179W        W41779  24.614   5.419  33.073 -0.1773 -0.3906  0.0133
35180W        W41780   6.676   3.239  35.829 -0.3313 -0.0827  0.1418
35181W        W41781   5.847   5.199  10.770 -0.2562  0.4351  0.0421
35182W        W41782  15.020   5.809   0.949  0.1663 -0.0407 -0.2767
35183W        W41783  25.855   6.356  10.983 -0.1802 -0.0969 -0.2650
35184W        W41784   1.432   3.785  27.274 -0.0232 -0.0125 -0.0488
35185W        W41785   5.298   3.598  31.669  0.1299  0.2594  0.0209
35186W        W41786  18.829   5.436   2.100  0.0596 -0.0919 -0.0877
35187W        W41787  24.427   5.186   0.293  0.1485 -0.4825  0.0214
35188W        W41788  13.029   6.384   9.292 -0.0252  0.1136  0.0107
35189W        W41789  19.265   6.163  33.051  0.0642  0.3746  0.1397
35190W        W41790  15.921   2.680  30.340  0.4378 -0.0781 -0.2390
35191W        W41791  24.685   3.565   1.183 -0.0392 -0.0806 -0.0313
35192W        W41792   1.854   0.106  29.943  0.3139  0.2749  0.2380
35193W        W41793   9.456   2.075  31.831  0.3510  0.1181 -0.0381
35194W        W41794  16.230   0.560  28.603 -0.0819 -0.0366 -0.1318
35195W        W41795   6.015   4.290  24.417  0.2103  0.2128 -0.0111
35196W        W41796   8.322   1.162  10.611  0.0684  0.0301 -0.0051
35197W        W41797  20.001   5.129  21.274 -0.0812 -0.0568 -0.0455
35198W        W41798   6.354   6.228  23.825 -0.0354  0.0744  0.0605
35199W        W41799   7.342   5.985   1.934  0.2930  0.0328  0.1529
35200W        W41800   6.338   2.169  13.157  0.3229 -0.1855  0.2525
35201W        W41801  21.141   4.479  28.296 -0.2515 -0.2006  0.1088
35202W        W41802  18.254   5.521   8.809 -0.2710 -0.0360 -0.3159
35203W        W41803  12.951   5.203   6.326  0.3993  0.2268 -0.1420
35204W        W41804   3.578   1.154  21.763  0.4832  0.1580  0.0513
35205W        W41805  18.408   1.963  10.074 -0.0171  0.0206 -0.1426
35206W        W41806   0.238   0.071   5.226 -0.1027  0.3178  0.1709
35207W        W41807   8.925   4.130  13.058 -0.1284  0.0215 -0.0529
35208W        W41808   8.654   1.288  10.138  0.4593  0.0567 -0.0205
35209W        W41809  20.604   2.206  24.926 -0.1326  0.1730  0.0198
35210W        W41810  15.780   6.577  25.238 -0.2074 -0.0595  0.0110
35211W        W41811  19.695   1.621   6.479 -0.0832  0.2667  0.2146
35212W        W41812   5.450   4.943   4.010  0.0124 -0.1843 -0.5966
35213W        W41813   5.078   5.991   5.259  0.0081 -0.2628 -0.0323
35214W        W41814   5.156   5.539  27.562  0.0829 -0.3000  0.2050
35215W        W41815  21.262   3.536  32.708 -0.1063 -0.1545  0.0264
35216W        W41816   9.542   4.566  24.194  0.2034 -0.1212 -0.0195
35217W        W41817  16.474   3.710   4.892 -0.3404 -0.1654  0.2719
35218W        W41818  25.621   1.870  20.066  0.0791  0.0314  0.0815
35219W        W41819   6.303   4.486  15.675  0.4586  0.1374  0.0431
35220W        W41820  22.750   4.777  31.977  0.0038  0.1949 -0.0144
35221W        W41821   2.954   1.757  15.506  0.1016 -0.0235  0.2612
35222W        W41822   7.595   1.264  35.630  0.4798 -0.0182 -0.0286
35223W        W41823  14.605   1.639   2.585 -0.0150 -0.0852  0.0555
35224W        W41824  13.941   4.963   6.674  0.0515 -0.2514  0.0725
35225W        W41825   3.693   1.458   2.213  0.0832  0.0138 -0.1383
35226W        W41826  13.776   3.350  21.503 -0.2569 -0.1241 -0.0917
35227W        W41827   2.874   0.162  24.000 -0.0022  0.1500  0.1529
35228W        W41828   5.013   6.197   3.075  0.1575 -0.1303 -0.2914
35229W        W41829  20.081   0.537  27.569  0.1811 -0.0133  0.1638
35230W        W41830  24.419   1.542  29.576  0.1304 -0.1421  0.1410
35231W        W41831   1.337   5.535   2.715 -0.1758 -0.3022  0.2279
35232W        W41832  23.370   1.262  13.267 -0.2884  0.2068 -0.0334
35233W        W41833   4.787   3.182   7.345 -0.0096 -0.1617  0.1429
35234W        W41834   6.442   2.949  24.473  0.2857 -0.0774 -0.1160
35235W        W41835   4.351   6.224  13.850  0.2923 -0.0018  0.2517
35236W        W41836  26.286   3.272   1.322 -0.1157  0.1482  0.1276
35237W        W41837   3.680   6.087   2.459  0.4010 -0.2072 -0.2498
35238W        W41838  19.324   2.110  33.156  0.1120  0.1676 -0.0471
35239W        W41839   3.343   6.033   2.843  0.1704  0.2052  0.0911
35240W        W41840  21.589   3.361   8.158 -0.1553  0.0126 -0.1235
35241W        W41841  18.521   0.531  33.486  0.0067  0.3266  0.1385
35242W        W41842   5.801   6.070  28.422 -0.2330 -0.0293  0.2529
35243W        W41843   9.493   2.191   1.079 -0.4503  0.3340 -0.1427
35244W        W41844  17.732   2.932  34.003 -0.0060  0.2927 -0.1449
35245W        W41845  11.783   1.295  35.474 -0.1600 -0.2903  0.0558
35246W        W41846  19.630   1.700  14.310 -0.3791 -0.2073  0.1545
35247W        W41847   7.891   2.214  32.640 -0.0774  0.2626  0.0492
35248W        W41848  18.299   6.349  21.785 -0.2661 -0.0819  0.0168
35249W        W41849  21.440   1.056  33.895  0.1293  0.2432  0.0633
35250W        W41850  12.745   4.296   3.201  0.3047  0.0382  0.1291
35251W        W41851   2.674   5.932   4.288 -0.2070  0.1388  0.2368
35252W        W41852  22.658   0.645  31.912 -0.0137  0.1136 -0.0539
35253W        W41853   7.412   4.809   4.291 -0.1579 -0.1086 -0.0121
35254W        W41854  25.872   4.353  13.243 -0.0541 -0.1832 -0.0505
35255W        W41855  12.537   3.095  31.203 -0.1513  0.1018  0.4385
35256W        W41856  18.745   3.491  23.054  0.1000  0.1759 -0.1016
35257W        W41857  24.853   1.764  25.024 -0.0034  0.2654 -0.1026
35258W        W41858   7.817   3.278   4.968  0.1346 -0.0759  0.1716
35259W        W41859   2.158   6.373  34.495  0.0191  0.0662 -0.2507
35260W        W41860  22.677   1.297   9.941  0.4528 -0.0789  0.3791
35261W        W41861   4.869   3.847  26.942  0.2958 -0.0408 -0.3494
35262W        W41862   2.940   1.147  21.850 -0.0108 -0.1122  0.0459
35263W        W41863   6.700   2.586  24.210  0.1323  0.1812 -0.0323
35264W        W41864   5.498   2.829  21.682  0.1539  0.1558 -0.1982
35265W        W41865   0.047   4.739  33.353 -0.2253 -0.0284 -0.0783
35266W        W41866   1.440   2.624  22.491  0.0556 -0.1268  0.0069
35267W        W41867   5.607   3.965   4.787  0.1747  0.2849  0.1858
35268W        W41868  11.201   5.302  26.494  0.0576  0.2378 -0.0192
35269W        W41869  23.062   1.314   0.882 -0.1217  0.2899 -0.0960
35270W        W41870  14.116   0.911  13.425  0.0934 -0.0813  0.0561
35271W        W41871  13.156   4.416   5.271 -0.1397  0.2193 -0.0496
35272W        W41872  23.940   6.314  25.071 -0.0729  0.0203  0.0431
35273W        W41873   7.461   4.114   2.073  0.0695 -0.0034  0.2939
35274W        W41874   8.716   4.199  30.796 -0.0521 -0.0178  0.1090
35275W        W41875  23.844   4.280  15.303  0.1031  0.0293 -0.0251
35276W        W41876  18.819   4.148  24.705  0.3211  0.0025 -0.1390
35277W        W41877   1.777   5.062  12.278  0.0331 -0.1782 -0.4101
35278W        W41878  10.699   1.972   1.845  0.1655 -0.1736 -0.0182
35279W        W41879   4.043   0.888   4.890  0.0171  0.2627 -0.0363
35280W        W41880   2.154   0.697  11.919 -0.1513 -0.1400 -0.1653
35281W        W41881   5.890   1.864  14.051  0.0244  0.0994 -0.0131
35282W        W41882   3.742   0.709  13.299 -0.1620  0.0954 -0.0949
35283W        W41883  12.546   2.352   5.564  0.2063  0.0309  0.0364
35284W        W41884   5.408   3.448  11.844 -0.2489  0.0616  0.3087
35285W        W41885   9.761   6.494  14.889  0.1893 -0.1966  0.1504
35286W        W41886  23.636   2.057  22.819 -0.3657  0.1361  0.3798
35287W        W41887   3.825   4.541  11.115  0.0646  0.1896 -0.3267
35288W        W41888   9.342   2.361  13.417 -0.1879 -0.0804  0.4213
35289W        W41889   4.896   5.795  29.014  0.2766 -0.1629 -0.0607
35290W        W41890   4.043   5.975  23.625 -0.0402 -0.0241  0.1056
35291W        W41891   1.246   3.975   3.013 -0.2632  0.4189  0.2054
35292W        W41892  12.125   1.618  14.486 -0.3446 -0.0231 -0.2134
35293W        W41893   8.110   5.844  28.507  0.1723 -0.0689  0.1119
35294W        W41894  10.694   2.633  34.723 -0.0469  0.1182 -0.2416
35295W        W41895   1.583   5.383   9.912  0.0798  0.0488 -0.0310
35296W        W41896  17.452   6.531  23.520  0.0148 -0.3621  0.3194
35297W        W41897  11.420   4.626  12.644 -0.0543 -0.2485  0.3775
35298W        W41898  10.543   1.121   6.327 -0.0669 -0.1686 -0.0111
35299W        W41899   5.539   4.286  23.539 -0.0461  0.2726 -0.1843
35300W        W41900  16.243   3.957   7.367 -0.1428 -0.0474  0.0644
35301W        W41901  22.346   6.043  28.399 -0.2671 -0.0599  0.1361
35302W        W41902  12.656   5.524   3.238 -0.2859 -0.0621  0.1161
35303W        W41903   0.716   5.050  24.187 -0.0978  0.0809  0.2345
35304W        W41904  21.906   2.851   0.417  0.0477 -0.0897 -0.3581
35305W        W41905  19.306   0.934  14.785 -0.0165  0.3405  0.0088
35306W        W41906  12.955   6.359  27.616  0.0942  0.1409 -0.0930
35307W        W41907  16.398   0.364   0.801  0.0531  0.0099 -0.1504
35308W        W41908  14.881   0.055  34.395  0.1423 -0.3397  0.1788
35309W        W41909  20.188   5.554  10.921 -0.0839  0.3459 -0.1867
35310W        W41910  11.299   4.634  24.014  0.1444 -0.0018 -0.1455
35311W        W41911  14.123   4.438   4.610 -0.0580 -0.0935  0.2188
35312W        W41912   5.583   3.645  21.923 -0.0475 -0.3072  0.0044
35313W        W41913   8.027   1.816  13.677  0.0934 -0.0654 -0.1773
35314W        W41914   4.735   1.799  21.546  0.0341 -0.1396 -0.1666
35315W        W41915  11.510   2.944  25.869 -0.2808 -0.0499  0.0723
35316W        W41916   1.432   2.325   6.669  0.0246  0.0630  0.0816
35317W        W41917  24.703   4.147  25.828  0.3340 -0.0835 -0.0114
35318W        W41918  18.695   0.901  34.359 -0.1571 -0.0012  0.1380
35319W        W41919  23.608   3.297  23.257 -0.1737 -0.0450 -0.0860
35320W        W41920  12.095   4.213   8.251 -0.0628  0.0704 -0.2453
35321W        W41921  12.775   4.218  32.766 -0.0268  0.0457  0.2254
35322W        W41922   1.821   0.836  25.076  0.0779 -0.0732  0.4941
35323W        W41923   2.030   5.106  22.844 -0.2092  0.1465 -0.1952
35324W        W41924   9.328   3.110   7.284  0.1778 -0.0891  0.0599
35325W        W41925  18.943   5.272  33.265 -0.0376  0.0521  0.0334
35326W        W41926  20.187   2.326   2.190 -0.0919  0.1387 -0.0125
35327W        W41927  12.995   4.487   8.804  0.0401  0.3189 -0.1740
35328W        W41928  25.890   1.469  11.904 -0.1776  0.2274 -0.0211
35329W        W41929   6.700   4.313  28.226  0.0405  0.4823  0.0189
35330W        W41930   2.750   5.164  34.664  0.2039 -0.0062 -0.0797
35331W        W41931   3.368   0.518   0.407  0.0736 -0.1876  0.0013
35332W        W41932  12.277   4.080  22.449 -0.0195  0.1926 -0.0045
35333W        W41933  22.251   0.862  11.812  0.1837 -0.3353 -0.0829
35334W        W41934  12.797   6.365   5.392  0.1204 -0.1591 -0.1033
35335W        W41935  19.446   6.097  24.261 -0.0799  0.2401 -0.1674
35336W        W41936  16.213   3.027   0.975 -0.1747  0.1932 -0.2112
35337W        W41937  21.572   2.385   2.437  0.1447  0.0390  0.0343
35338W        W41938  18.086   1.134  32.641  0.0615 -0.4011  0.3345
35339W        W41939  11.457   4.678   6.721  0.2940 -0.0858  0.2072
35340W        W41940  13.328   4.504  31.125  0.3899 -0.1045  0.2253
35341W        W41941  18.357   4.680  22.536  0.0210  0.2034  0.4112
35342W        W41942   0.761   6.271   7.212 -0.3596 -0.0771 -0.2844
35343W        W41943   3.070   4.068   2.624 -0.3635 -0.0834 -0.1182
35344W        W41944   7.383   1.745  22.061  0.0653  0.1182  0.2157
35345W        W41945  22.912   3.749   1.090 -0.0518 -0.0565  0.1099
35346W        W41946  22.473   2.190  26.376  0.1219 -0.0130 -0.1023
35347W        W41947  20.201   1.665   6.123  0.2934 -0.3381  0.0879
35348W        W41948   9.286   2.375   2.642 -0.0724 -0.1021 -0.3099
35349W        W41949   2.890   2.664  25.463 -0.2247 -0.1514 -0.1311
35350W        W41950   1.998   1.126   9.223  0.0479 -0.1935 -0.1722
35351W        W41951  10.394   0.564  25.934 -0.0985 -0.0689 -0.0198
35352W        W41952   9.519   1.329  34.608  0.0357 -0.2531 -0.0642
35353W        W41953  12.672   3.558   1.509  0.1040  0.2618  0.0868
35354W        W41954  21.370   2.191  11.805 -0.1604  0.0724 -0.1570
35355W        W41955   2.459   4.518  10.816  0.0747 -0.0774 -0.0196
35356W        W41956   3.935   5.722   1.423  0.2865 -0.2225 -0.0003
35357W        W41957   7.306   4.421  20.920 -0.2258 -0.2748  0.1237
35358W        W41958   8.430   5.740   3.438  0.0165 -0.0031  0.0843
35359W        W41959  10.255   2.620   9.200 -0.2767  0.1563  0.2088
35360W        W41960  20.004   4.125  32.587  0.0245 -0.2434 -0.0449
35361W        W41961  10.563   1.395  10.407  0.3377  0.2107 -0.1640
35362W        W41962  14.790   3.426  26.270 -0.0556  0.1988 -0.2117
35363W        W41963  25.300   1.037  10.769  0.2733 -0.0736  0.1145
35364W        W41964  16.610   3.270   0.648 -0.1209 -0.0449  0.3038
35365W        W41965  17.961   5.058  35.379 -0.0796 -0.0146 -0.0124
35366W        W41966   5.810   4.690  35.626 -0.0226  0.1207  0.1619
35367W        W41967   0.081   3.468  31.224  0.2956 -0.1788 -0.1192
35368W        W41968  20.555   0.133   8.209  0.0073  0.1414 -0.2226
35369W        W41969  21.978   3.526  34.136  0.1924  0.1082  0.1281
35370W        W41970   6.475   0.989  33.304  0.1752 -0.3847  0.1563
35371W        W41971  15.242   6.219  26.038  0.0240 -0.0521  0.0127
35372W        W41972   5.585   5.753   2.625  0.0863  0.0980 -0.1487
35373W        W41973   6.328   1.682  22.370 -0.2730  0.0117 -0.0699
35374W        W41974   5.208   1.848   6.344  0.0046  0.0402  0.0686
35375W        W41975  21.570   3.164  28.073  0.2736  0.1789 -0.2491
35376W        W41976   7.279   3.900  33.004  0.1968 -0.1250 -0.1968
35377W        W41977  20.847   2.452   5.946 -0.1141  0.0380 -0.0472
35378W        W41978  24.639   1.583  33.019  0.0241  0.1636  0.3661
35379W        W41979   2.862   1.220  12.332 -0.0300 -0.1090  0.0651
35380W        W41980   9.777   6.051   5.864 -0.2520 -0.0596 -0.0181
35381W        W41981  25.137   3.393  35.758  0.0963 -0.1201 -0.1440
35382W        W41982  25.301   0.516  21.453  0.0030 -0.1578 -0.2150
35383W        W41983  15.100   3.674  35.838 -0.0787 -0.0653  0.2685
35384W        W41984   3.772   3.698  14.748 -0.0144  0.0671  0.1506
35385W        W41985  22.807   1.978   4.627  0.0890 -0.2413 -0.1247
35386W        W41986   5.933   1.339  22.586 -0.2379  0.1421  0.1011
35387W        W41987  24.536   2.992  21.607  0.1279 -0.0917 -0.2498
35388W        W41988   3.613   2.922   2.793 -0.0445  0.0995  0.3989
35389W        W41989   5.126   4.899  29.705  0.0564 -0.0780  0.0642
35390W        W41990  17.824   3.674   1.625  0.1469  0.3137  0.0464
35391W        W41991  24.454   6.309   3.879  0.0894 -0.0082 -0.0192
35392W        W41992   0.578   4.372  26.234 -0.2795 -0.3738 -0.1532
35393W        W41993   4.567   2.689   3.496  0.0871 -0.1976 -0.0437
35394W        W41994   5.412   1.489  22.633 -0.2294 -0.0209  0.1180
35395W        W41995  20.420   6.519  29.638 -0.0156  0.1965  0.0145
35396W        W41996  12.086   6.395   6.263  0.0008 -0.2121  0.2782
35397W        W41997  20.245   3.702  26.955 -0.1500  0.0713 -0.0870
35398W        W41998  15.913   4.540  15.434  0.2648 -0.0100  0.1681
35399W        W41999  13.793   2.876  29.772  0.1432  0.0848 -0.3734
35400W        W42000   9.554   0.484   6.046 -0.0246 -0.0570 -0.2571
35401W        W42001  19.696   0.599  23.373  0.0764 -0.2646 -0.3154
35402W        W42002  12.860   3.029   3.487 -0.2616 -0.2235  0.1282
35403W        W42003   4.404   5.301   9.921 -0.0500  0.0835  0.2129
35404W        W42004  16.164   3.006   5.300 -0.2169  0.1482  0.1474
35405W        W42005  12.763   0.234  14.763  0.2831  0.4803 -0.2322
35406W        W42006  10.390   2.413  32.719 -0.1633  0.3782 -0.1746
35407W        W42007  25.735   0.069  32.330 -0.0924  0.0634  0.0888
35408W        W42008  18.741   1.237   1.989  0.0832 -0.1452  0.1530
35409W        W42009  18.145   4.381  21.171  0.0883 -0.1339 -0.2284
35410W        W42010   1.864   1.428   7.939 -0.3010 -0.0139 -0.0005
35411W        W42011  11.742   1.350  13.573  0.0633  0.0142 -0.0536
35412W        W42012  10.424   5.927   6.805  0.0616 -0.1920  0.1392
35413W        W42013  18.343   0.071   0.915  0.4377  0.0508 -0.0366
35414W        W42014   6.907   1.283   0.804  0.0118 -0.1147  0.0724
35415W        W42015  22.786   5.373   5.666 -0.0255 -0.2059  0.0301
35416W        W42016   3.249   1.262   7.718  0.1028  0.2872 -0.2354
35417W        W42017   2.283   4.944  20.758  0.1020  0.0333  0.0041
35418W        W42018  18.759   3.407  12.061  0.1760  0.0078 -0.0774
35419W        W42019   0.611   1.993  31.172 -0.1430 -0.0626 -0.0572
35420W        W42020  10.745   5.146  35.207 -0.1516  0.0386  0.0390
35421W        W42021   7.069   0.202  23.910  0.2095  0.1651 -0.2120
35422W        W42022   8.121   5.616  26.678  0.3538  0.1473  0.0767
35423W        W42023  19.932   4.226  29.112  0.0720 -0.0747  0.2267
35424W        W42024   0.863   2.140  25.556  0.0512  0.0481  0.0150
35425W        W42025   7.740   2.476  22.611 -0.0047  0.0282 -0.2928
35426W        W42026  12.288   5.983  10.202  0.2664 -0.0830  0.3638
35427W        W42027  11.465   2.059  13.247 -0.3774 -0.1772 -0.0607
35428W        W42028   3.899   5.232  33.257 -0.0576  0.0725 -0.1049
35429W        W42029  12.595   6.223  33.461  0.2977  0.2246  0.0439
35430W        W42030   9.455   2.840  14.138 -0.0767  0.0032  0.4051
35431W        W42031  15.913   2.814  33.653  0.0760 -0.3523  0.1012
35432W        W42032   6.305   5.008  33.162 -0.0997 -0.0893 -0.0598
35433W        W42033  10.823   3.502   7.213 -0.0958  0.0478  0.2233
35434W        W42034   4.480   2.703  21.480 -0.0227  0.0710  0.1735
35435W        W42035  13.341   3.555   0.272  0.1671  0.3420 -0.1564
35436W        W42036   1.662   1.807  20.538 -0.0614 -0.2057 -0.0464
35437W        W42037   8.083   2.325  10.887  0.1879  0.2452 -0.0799
35438W        W42038  20.506   1.558  12.855 -0.2123  0.0329 -0.0359
35439W        W42039  20.871   2.345  13.749 -0.0027  0.0712  0.0774
35440W        W42040   7.042   0.482  30.148  0.1232 -0.0121 -0.0742
35441W        W42041  17.406   0.442   5.686 -0.3117  0.1503  0.1317
35442W        W42042  14.202   2.087  29.396  0.1453 -0.2433 -0.4860
35443W        W42043  15.335   2.327  11.068 -0.0420 -0.0002  0.1065
35444W        W42044   2.117   5.929  14.780 -0.2105  0.1027  0.0568
35445W        W42045  23.652   3.396  15.035 -0.0670 -0.1952 -0.1251
35446W        W42046  25.530   1.491  13.193 -0.4103 -0.0715  0.4448
35447W        W42047   4.506   6.334  33.477  0.0368  0.0533 -0.0929
35448W        W42048  18.506   3.554  21.145  0.0887 -0.1405  0.0915
35449W        W42049   1.823   5.704  35.006 -0.1495  0.0213 -0.1933
35450W        W42050   0.339   2.439   4.529 -0.1789 -0.2264 -0.3843
35451W        W42051  15.885   6.008  10.891 -0.1705  0.2195  0.3607
35452W        W42052   1.527   5.637  32.855 -0.1462 -0.2484  0.4108
35453W        W42053  14.660   5.117  21.456  0.1884  0.2451 -0.2348
35454W        W42054  21.274   2.680   3.474  0.0215  0.0868  0.1161
35455W        W42055  20.786   4.821  33.808 -0.0619 -0.1505 -0.0189
35456W        W42056   6.669   4.139  23.061 -0.0419 -0.1442  0.1689
35457W        W42057   6.335   2.625  32.181  0.1418 -0.3929  0.1665
35458W        W42058   5.360   4.004  28.777  0.1181  0.1379 -0.0219
35459W        W42059  24.969   4.881  31.095 -0.0871  0.3777  0.0081
35460W        W42060   2.062   1.243  26.608  0.0978  0.1566  0.0641
35461W        W42061  16.101   4.801  25.744  0.2485 -0.0149  0.0940
35462W        W42062   0.294   2.324  25.621 -0.1421 -0.0881 -0.0427
35463W        W42063  11.006   5.982  30.327  0.0221  0.0674 -0.1925
35464W        W42064  19.834   0.852  25.587 -0.0640  0.0455  0.1986
35465W        W42065  18.938   3.103  29.080  0.3932  0.3607 -0.2072
35466W        W42066  22.776   6.250   0.229  0.1148 -0.1819 -0.2863
35467W        W42067   2.972   4.990   4.093  0.0448 -0.0021  0.0488
35468W        W42068  23.969   6.107  26.591 -0.0539  0.1804 -0.0936
35469W        W42069  24.902   2.970   6.425 -0.2130 -0.1456 -0.2071
35470W        W42070   4.018   1.260  23.651  0.1076  0.1087  0.0212
35471W        W42071   8.389   2.140   3.758  0.3306  0.3827 -0.2052
35472W        W42072  25.428   5.736  26.438  0.3921  0.1406 -0.1060
35473W        W42073   7.904   0.514   9.723  0.1681  0.0397  0.0903
35474W        W42074  21.371   0.782   9.247 -0.0523 -0.0045 -0.4150
35475W        W42075  20.465   2.558  31.360  0.0341 -0.1954  0.3815
35476W        W42076  17.528   0.303  11.798 -0.0207  0.4907  0.4248
35477W        W42077  23.660   3.491  30.569  0.3966  0.0455  0.0454
35478W        W42078   1.738   1.088  13.433 -0.2109  0.0365  0.0724
35479W        W42079  11.578   3.078  12.187  0.1141  0.0359 -0.2156
35480W        W42080  16.077   3.681   0.074 -0.2152  0.3509 -0.0010
35481W        W42081  24.748   4.430  29.212  0.0126 -0.0829  0.2309
35482W        W42082  12.486   4.574   8.229 -0.1853 -0.0570  0.0962
35483W        W42083  14.547   5.096  11.931  0.0320 -0.1150 -0.1204
35484W        W42084   2.772   5.782  34.806 -0.0466  0.1730 -0.2749
35485W        W42085   7.043   5.672  33.725  0.0689  0.1580  0.5390
35486W        W42086  17.514   1.510  30.118 -0.0874 -0.0471  0.2157
35487W        W42087   0.331   5.847  25.166 -0.1893  0.1662  0.3841
35488W        W42088  19.832   4.360   2.431 -0.1369 -0.2551 -0.3072
35489W        W42089   6.676   3.484   1.588 -0.2895 -0.3658 -0.1860
35490W        W42090  13.329   3.056   3.436 -0.1419  0.5263 -0.0125
35491W        W42091  21.294   5.151  26.565 -0.2197  0.2469  0.1151
35492W        W42092  22.358   5.623  10.200 -0.0069  0.0251  0.0516
35493W        W42093  16.021   1.514   8.372 -0.0853  0.0643 -0.0243
35494W        W42094  21.167   0.089  21.948  0.0131 -0.1131 -0.4703
35495W        W42095   7.106   5.353   2.611  0.0948  0.0467 -0.1450
35496W        W42096   1.887   6.008  23.045 -0.0541  0.3258  0.3086
35497W        W42097   5.782   0.618   2.424  0.1596  0.0644 -0.1970
35498W        W42098  21.666   5.133   0.247 -0.0584  0.0237  0.1261
35499W        W42099   6.773   4.624  24.094  0.0117 -0.1711  0.3806
35500W        W42100   1.492   5.365  25.009 -0.0880 -0.0443  0.1513
35501W        W42101  13.613   0.455   0.165  0.3506 -0.0929 -0.0326
35502W        W42102   7.914   4.926  10.626 -0.3539 -0.3172  0.0523
35503W        W42103   6.454   5.862  23.452  0.0964  0.0087 -0.1306
35504W        W42104  22.886   5.542  13.813  0.1055 -0.0158 -0.0605
35505W        W42105  24.958   4.992  22.741 -0.0678  0.1346  0.1113
35506W        W42106   5.385   1.279   7.640  0.1816 -0.0571 -0.1042
35507W        W42107  18.918   0.851  35.801 -0.3364 -0.0594 -0.2131
35508W        W42108   8.565   4.303   2.135 -0.0333 -0.1588 -0.1348
35509W        W42109   2.038   1.878  32.323  0.1099 -0.3606 -0.0119
35510W        W42110   9.945   0.017  21.060 -0.1997  0.0941  0.1548
35511W        W42111   9.841   2.036  35.125 -0.0409 -0.1340  0.3087
35512W        W42112  20.918   0.522  21.991 -0.0749 -0.1880  0.0281
35513W        W42113  26.072   0.388  28.774  0.0085  0.2481 -0.1696
35514W        W42114  17.602   6.127  35.127 -0.1843 -0.0641  0.2970
35515W        W42115  26.343   0.654   6.300 -0.0821  0.0364 -0.1597
35516W        W42116  21.938   4.785   2.533  0.0774  0.0518 -0.2818
35517W        W42117   9.573   2.492  22.053  0.2702  0.0420 -0.1652
35518W        W42118  12.782   5.052   6.992 -0.0319  0.4685  0.0329
35519W        W42119   3.444   0.601  12.009  0.2050 -0.0613 -0.0822
35520W        W42120  16.216   4.576  34.627 -0.0977 -0.0642 -0.2320
35521W        W42121  13.608   0.751  25.804 -0.0505 -0.1792  0.2121
35522W        W42122   1.045   3.649   0.944  0.0763 -0.1499 -0.2038
35523W        W42123  25.619   5.036  30.501  0.1155 -0.3248  0.3294
35524W        W42124   2.606   3.360  31.345  0.0835 -0.2380 -0.0420
35525W        W42125  16.549   4.805   4.720 -0.0573  0.2206 -0.0242
35526W        W42126  23.282   1.560  32.563 -0.0831 -0.1212  0.1753
35527W        W42127   8.790   0.750  28.116 -0.2366  0.0864 -0.1718
35528W        W42128   7.895   2.739  28.269 -0.2508  0.2678 -0.2517
35529W        W42129  21.312   4.434   0.557  0.3346 -0.1887 -0.1049
35530W        W42130   3.960   5.435  34.595 -0.3769 -0.0354 -0.0023
35531W        W42131  24.251   4.823  24.310 -0.4763 -0.0766 -0.0993
35532W        W42132   3.442   5.226  13.810 -0.2514 -0.2346 -0.1873
35533W        W42133  10.728   6.424   5.916 -0.1251 -0.0243  0.2150
35534W        W42134  20.165   3.721   3.861 -0.1722  0.0336  0.2381
35535W        W42135   6.794   3.968  22.175 -0.0066 -0.0642 -0.0745
35536W        W42136  13.322   2.156   0.138 -0.3846  0.3159  0.1429
35537W        W42137  24.706   4.285   8.117  0.0894 -0.0086 -0.2346
35538W        W42138   5.118   0.679  23.496  0.0674 -0.0191  0.2425
35539W        W42139   6.725   4.158   7.003 -0.2960 -0.0492  0.0487
35540W        W42140  25.690   4.977  23.222  0.0474  0.1253 -0.1039
35541W        W42141  13.088   2.879  11.784  0.3930 -0.2002  0.1146
35542W        W42142   0.884   2.615   9.411 -0.1113 -0.2221 -0.0698
35543W        W42143   9.299   3.721   9.379 -0.1371 -0.3683  0.3472
35544W        W42144   3.037   3.279  29.726  0.1064 -0.2346  0.2288
35545W        W42145  23.250   0.947  20.774  0.0619  0.1815 -0.1020
35546W        W42146   5.256   5.315  22.920  0.0573 -0.0827 -0.2227
35547W        W42147  22.715   3.534   0.318 -0.0823  0.3293  0.1588
35548W        W42148   7.780   5.643  28.912 -0.0576 -0.2197  0.1590
35549W        W42149  22.616   0.371  27.302  0.0125  0.3909  0.0222
35550W        W42150  21.264   1.016   8.082  0.0388  0.0658 -0.3014
35551W        W42151   2.696   1.845  24.284  0.2151  0.0836 -0.3152
35552W        W42152   8.657   5.855  31.615  0.1641 -0.2173 -0.3914
35553W        W42153  12.372   1.764  33.857  0.1197  0.1934 -0.0195
35554W        W42154  18.438   5.984  31.653 -0.1616  0.2516  0.2059
35555W        W42155   0.878   1.025  26.140 -0.0903  0.0386  0.1906
35556W        W42156  12.923   4.509   9.966  0.1572  0.0266 -0.0024
35557W        W42157   6.914   6.222  31.538  0.1609  0.0728  0.2326
35558W        W42158  12.622   1.276  28.648 -0.2525 -0.3355 -0.2125
35559W        W42159  16.845   1.616  23.916  0.0529 -0.1923 -0.1029
35560W        W42160  21.589   3.706   0.231 -0.1025  0.1474 -0.0501
35561W        W42161  18.381   5.599   6.341  0.2632  0.0073 -0.3763
35562W        W42162  25.978   2.555   2.877  0.4363 -0.0747 -0.2810
35563W        W42163   2.695   3.612  24.738  0.2566 -0.0302 -0.1907
35564W        W42164  26.129   5.921  21.983  0.0903 -0.0127 -0.0345
35565W        W42165  12.683   1.085  11.314 -0.1455  0.0536 -0.3910
35566W        W42166  16.824   5.679  14.249  0.2417 -0.0005  0.0999
35567W        W42167  13.511   2.438   3.015 -0.0018 -0.0745  0.2471
35568W        W42168  16.834   3.690   6.824  0.0663  0.1715  0.1829
35569W        W42169  21.480   4.324  11.358 -0.1792  0.0597 -0.0233
35570W        W42170   9.699   4.411   4.302 -0.0960 -0.0444 -0.0708
35571W        W42171  19.757   3.879  33.674 -0.2020  0.2566  0.2754
35572W        W42172  25.719   0.281   2.351  0.2190  0.1284  0.2641
35573W        W42173  21.638   1.633  11.493  0.0828 -0.0522  0.0268
35574W        W42174  23.824   0.587  11.120 -0.0283 -0.5467  0.3012
35575W        W42175  23.456   1.365  20.567 -0.1042  0.2213  0.0063
35576W        W42176  24.990   5.494  30.236  0.0823 -0.0619  0.2500
35577W        W42177   7.883   6.097   6.091  0.0369 -0.2134  0.2574
35578W        W42178   0.628   1.401  31.374  0.1039 -0.1533  0.2086
35579W        W42179   5.648   2.098  26.912 -0.0445  0.3250  0.1576
35580W        W42180  18.466   1.975  21.867 -0.0362  0.0816 -0.0226
35581W        W42181   0.922   0.871  21.341  0.0621  0.0087 -0.0664
35582W        W42182  19.219   0.566  24.350  0.0325  0.0046  0.2616
35583W        W42183   9.463   5.916  23.974 -0.2475  0.1265 -0.2978
35584W        W42184   9.954   4.487  21.716 -0.0232 -0.4383  0.2137
35585W        W42185   7.090   2.478  23.571  0.0904 -0.4295  0.0998
35586W        W42186  17.595   5.249  12.711  0.0491  0.3320  0.0057
35587W        W42187   2.270   5.643   4.542  0.0252  0.2367  0.0958
35588W        W42188   1.435   4.488   2.007  0.0520  0.2667 -0.1160
35589W        W42189  18.315   4.677  32.791 -0.2610  0.1144  0.4059
35590W        W42190  10.918   3.401  31.034  0.1203 -0.0068  0.0380
35591W        W42191  25.825   4.858   6.014 -0.2505  0.3183  0.1170
35592W        W42192  15.960   0.227  28.845  0.1894 -0.0604  0.1719
35593W        W42193   5.822   3.068  35.142 -0.5285 -0.2438 -0.1565
35594W        W42194  20.583   5.733   7.943 -0.0278  0.2578 -0.1080
35595W        W42195  11.284   6.355   9.986 -0.0932 -0.2123  0.3085
35596W        W42196   8.265   2.725  27.123  0.0999 -0.1718  0.1205
35597W        W42197  22.480   0.162   9.257 -0.0602 -0.1885  0.1728
35598W        W42198   4.235   5.368  32.366  0.3791  0.0502  0.0508
35599W        W42199   1.074   4.479   6.919 -0.1674 -0.3426 -0.0302
35600W        W42200   5.218   4.552  13.690 -0.2775 -0.1968  0.3646
35601W        W42201  17.898   5.975  30.618  0.2650 -0.2529 -0.1415
35602W        W42202  25.866   6.216   6.155 -0.0573  0.0788  0.0062
35603W        W42203   9.665   3.551  31.070 -0.0773  0.0233  0.1769
35604W        W42204  20.203   3.403  35.515 -0.2319 -0.1879  0.0597
35605W        W42205  10.231   2.426  23.015 -0.0197 -0.0326 -0.0146
35606W        W42206   0.452   0.107  20.090 -0.2121  0.4071  0.0864
35607W        W42207   1.681   2.849  22.897 -0.0426  0.1012 -0.0791
35608W        W42208   9.349   2.979  28.377  0.1881  0.2191  0.0799
35609W        W42209  12.341   1.180  14.285 -0.3570 -0.0769  0.0644
35610W        W42210   6.718   1.370  21.582 -0.1526  0.1505 -0.0647
35611W        W42211  26.195   5.411  32.639 -0.0255  0.0881  0.0838
35612W        W42212  16.673   0.894  32.316 -0.1049  0.1225  0.1203
35613W        W42213  14.336   1.292   1.040 -0.1344  0.1380 -0.0577
35614W        W42214   9.522   1.226  28.619 -0.2774  0.0720 -0.1816
35615W        W42215  25.553   4.722  13.441 -0.2063  0.1354  0.4180
35616W        W42216   2.115   4.533  30.967  0.1180 -0.1041 -0.1618
35617W        W42217  13.729   1.916  31.168 -0.1545 -0.0048 -0.4788
35618W        W42218  25.283   3.234  15.260 -0.1582  0.0896 -0.2586
35619W        W42219  12.868   3.560  12.979  0.1033  0.1146  0.1282
35620W        W42220   2.001   0.665   6.908  0.1143  0.0047 -0.1624
35621W        W42221  22.124   3.323   2.926  0.0727  0.0118 -0.0021
35622W        W42222  11.673   3.530   0.545 -0.0261 -0.0615 -0.0172
35623W        W42223   6.875   4.118  30.588  0.1989  0.2074 -0.0554
35624W        W42224  24.177   4.584  21.657 -0.0771 -0.0912  0.3582
35625W        W42225   8.750   2.230  27.974  0.0411 -0.0458  0.1323
35626W        W42226  11.448   0.952   8.932  0.0176 -0.1528  0.2461
35627W        W42227   7.911   6.384  25.072  0.1532 -0.0364 -0.2572
35628W        W42228   6.302   1.679  13.837 -0.0324 -0.1062  0.0777
35629W        W42229   5.268   3.887  12.118  0.1978 -0.0466  0.2737
35630W        W42230   1.581   6.176  29.992  0.0712 -0.0552 -0.3128
35631W        W42231  14.570   5.672  22.326  0.0109  0.0302  0.0631
35632W        W42232  15.072   3.927  13.458 -0.0675  0.0306  0.0208
35633W        W42233   2.129   2.132   4.002  0.0566 -0.0452  0.0714
35634W        W42234  14.364   5.137   8.562 -0.1156  0.1430 -0.0199
35635W        W42235  23.167   1.255  25.207  0.3325 -0.0140 -0.1340
35636W        W42236  16.561   3.127   2.816 -0.0731 -0.0858 -0.1847
35637W        W42237   0.426   1.671  11.929  0.1550 -0.4480 -0.1360
35638W        W42238   1.019   4.508   1.671  0.0316  0.0268 -0.0829
35639W        W42239  14.010   3.658   9.033  0.0465  0.2342  0.1759
35640W        W42240  16.585   5.408   2.703  0.3166  0.1253  0.0466
35641W        W42241  13.173   2.606  22.752  0.0714 -0.3307 -0.4998
35642W        W42242  23.257   1.117  28.923  0.0425 -0.1849 -0.0788
35643W        W42243   7.188   2.374  31.574 -0.0190  0.3509 -0.2217
35644W        W42244  13.282   4.144   6.172  0.2142  0.0410 -0.0131
35645W        W42245   5.400   1.945  29.368 -0.0939  0.0103  0.2566
35646W        W42246  12.120   3.161  10.679  0.1127  0.0914  0.2562
35647W        W42247   6.680   4.038  36.071  0.2095  0.2417 -0.1532
35648W        W42248   2.526   1.089  23.698 -0.3407  0.4100  0.1912
35649W        W42249  23.188   1.340  24.190  0.4342 -0.0267 -0.0461
35650W        W42250  19.506   5.282  34.081  0.1152 -0.0397 -0.1482
35651W        W42251  11.759   0.504  10.416 -0.0097  0.0656  0.2141
35652W        W42252  25.250   3.254  33.090  0.1025 -0.0150  0.1183
35653W        W42253  14.963   2.115   0.581 -0.0716 -0.1707 -0.4033
35654W        W42254  16.835   0.111  21.625  0.1080 -0.0230 -0.2203
35655W        W42255  18.803   1.075  32.111 -0.2481  0.1537  0.1063
35656W        W42256  14.549   6.014  29.270 -0.0275 -0.0806 -0.0702
35657W        W42257  21.111   2.007  33.651 -0.0086  0.0435 -0.1173
35658ION     NA42258  18.208   3.627  28.696  0.0819 -0.4199 -0.1067
35659ION     NA42259  25.362   0.909  10.309  0.2892  0.0569  0.4196
35660ION     NA42260   5.429   4.410   6.559 -0.2374 -0.3977 -0.1970
35661ION     NA42261  12.618   0.427   8.875 -0.0441  0.0021  0.0370
35662ION     NA42262  15.154   5.594  28.467  0.0818 -0.3890 -0.4127
35663ION     NA42263   4.514   3.608  24.225 -0.0272 -0.3479 -0.3429
35664ION     NA42264   5.581   2.295  34.777 -0.0007  0.2869 -0.0111
35665ION     NA42265  18.623   5.309  11.664  0.1326 -0.5660  0.2680
35666ION     NA42266   1.521   3.179  30.889  0.1443  0.0012 -0.2690
35667ION     NA42267   2.334   4.439  12.767  0.4159  0.1550  0.1987
35668ION     NA42268  13.888   3.253  22.869 -0.0127 -0.0124 -0.4709
35669ION     NA42269   1.436   3.365  28.908 -0.0130 -0.2379  0.0604
35670ION     NA42270   3.490   5.542  10.203  0.1342 -0.1728 -0.2193
35671ION     NA42271   5.183   6.485  15.190 -0.0471  0.1476  0.3684
35672ION     NA42272  22.540   2.178  20.812  0.0517  0.1956 -0.2863
35673ION     NA42273  18.382   3.686  12.889 -0.1520  0.1143 -0.0741
35674ION     NA42274   5.329   3.162  30.501  0.0693  0.2401  0.1293
35675ION     NA42275   6.100   1.539  15.814  0.1170  0.4278  0.2093
35676ION     NA42276  20.708   0.686   9.831  0.3090 -0.1595  0.4198
35677ION     NA42277  26.010   4.938  25.510 -0.3621 -0.4647 -0.1027
35678ION     NA42278  20.297   4.537   0.267  0.3552  0.2205 -0.1627
35679ION     NA42279  14.448   2.284   3.128  0.2910 -0.1197  0.2984
35680ION     NA42280  26.335   1.648  13.073 -0.2778  0.1997  0.0050
35681ION     NA42281  26.221   2.244  35.244 -0.3495 -0.0708  0.6573
35682ION     NA42282  24.565   5.685  27.056  0.2578  0.0572 -0.0761
35683ION     NA42283  14.177   3.563  27.849  0.1005 -0.2363 -0.3719
35684ION     NA42284   9.661   3.515   2.862  0.4506  0.1077  0.1445
35685ION     NA42285   7.816   1.801  34.375 -0.3549  0.2968 -0.1844
35686ION     NA42286  15.983   1.948   2.621 -0.0177  0.2793  0.6587
35687ION     NA42287  21.034   6.495   8.068  0.3950 -0.3649  0.1585
35688ION     NA42288   5.905   5.590  12.345 -0.4413 -0.1257 -0.0652
35689ION     NA42289  17.565   4.500   8.106  0.0549  0.2910  0.2138
35690ION     NA42290  18.368   5.180   7.838 -0.1868 -0.1796  0.4709
35691ION     NA42291   0.737   5.201   2.700 -0.1548  0.0404  0.0651
35692ION     NA42292  21.819   5.541  34.174  0.2210  0.1389  0.2740
35693ION     NA42293  22.322   3.106   2.565 -0.0803  0.0775  0.0287
35694ION     NA42294  24.154   6.534   9.587  0.3926 -0.0507  0.1966
35695ION     NA42295   1.376   2.157  21.922 -0.0865 -0.1681 -0.3094
35696ION     NA42296   8.642   3.626  32.285 -0.0278  0.5748 -0.3949
35697ION     NA42297   4.320   3.782   4.689 -0.0464  0.2148  0.4413
35698ION     NA42298   2.709   3.897  32.971 -0.3805 -0.2055 -0.1231
35699ION     NA42299  13.015   3.361  29.587 -0.1020 -0.0005 -0.4761
35700ION     NA42300  13.898   2.027  33.150 -0.0738  0.0770  0.0397
35701ION     NA42301   8.973   1.593   7.730 -0.3652 -0.0645  0.1388
35702ION     NA42302  17.847   4.544  12.228  0.0910 -0.2337 -0.2481
35703ION     NA42303  25.533   3.321  31.871  0.2396 -0.1529  0.4451
35704ION     NA42304   8.835   4.994  25.621 -0.1187 -0.3863  0.0076
35705ION     NA42305   5.151   1.515  34.833 -0.4643 -0.2671 -0.4976
35706ION     NA42306  16.277   5.601   9.110 -0.0641 -0.1947 -0.2122
35707ION     NA42307  18.512   3.499  29.739 -0.4172  0.0903  0.0110
35708ION     NA42308   9.269   6.363   7.069  0.0972  0.1988 -0.1569
35709ION     NA42309  21.124   5.871  34.044  0.0096 -0.0126  0.0961
35710ION     NA42310   5.178   5.714  10.855 -0.3337  0.2387  0.0885
35711ION     NA42311  17.709   0.986   1.687 -0.0287  0.1468  0.2979
35712ION     NA42312  15.689   3.089  27.272  0.0300  0.0805 -0.4069
35713ION     NA42313   3.266   0.838  23.665 -0.0651 -0.2848  0.4222
35714ION     NA42314   5.420   4.951  33.150  0.1914  0.3715 -0.1293
35715ION     NA42315   3.603   6.169   7.692  0.1433  0.3782 -0.2546
35716ION     NA42316  13.278   2.444  22.391 -0.2391 -0.1356 -0.1980
35717ION     NA42317  20.928   1.428  25.776  0.0302 -0.2055  0.1949
35718ION     NA42318  25.526   1.028  12.956  0.0108 -0.1198  0.1005
35719ION     NA42319  24.504   0.230  24.567 -0.3076  0.3918  0.2380
35720ION     NA42320  18.249   4.103  20.836 -0.2266  0.0501 -0.0376
35721ION     NA42321  25.250   1.422  26.964  0.2889 -0.0025  0.1061
35722ION     NA42322  22.928   5.913  14.053  0.1011  0.0254  0.1834
35723ION     NA42323  17.044   0.937  32.944  0.1663  0.1272 -0.0043
35724ION     NA42324  20.052   0.669   9.099 -0.0233 -0.0861  0.4504
35725ION     NA42325  14.032   4.609  32.453 -0.0833  0.2882  0.1938
35726ION     NA42326  20.970   6.210  23.561 -0.0557 -0.4455  0.2034
35727ION     NA42327  20.089   0.737  24.364  0.1971  0.0675  0.3345
35728ION     NA42328   5.434   5.925  31.402 -0.0762 -0.2570 -0.2135
35729ION     NA42329  12.628   4.492  34.425 -0.0286  0.4239 -0.2696
35730ION     NA42330  22.548   3.132  28.479  0.3926  0.2562  0.6489
35731ION     NA42331  20.480   0.373   7.046  0.1651  0.0382 -0.1184
35732ION     NA42332   2.782   2.697  34.398  0.0847 -0.2214 -0.2420
35733ION     NA42333   5.449   0.340  11.805  0.3034  0.6395 -0.3275
35734ION     NA42334  10.473   5.928  24.735  0.0147  0.1334 -0.1397
35735ION     NA42335   5.661   3.799  13.394 -0.1912 -0.6572 -0.0864
35736ION     NA42336   2.269   5.934  31.048 -0.2848  0.2336  0.2387
35737ION     NA42337  10.815   1.262   8.775 -0.0717  0.2482 -0.2237
35738ION     NA42338  23.497   0.085  20.940 -0.3443  0.1969 -0.2641
35739ION     NA42339   0.122   2.734  20.126  0.1289  0.1072 -0.1026
35740ION     NA42340  16.651   0.772   4.180  0.5058  0.6242  0.0064
35741ION     NA42341  11.272   5.330  23.307  0.3239  0.1548  0.0568
35742ION     NA42342  21.995   0.823  33.148 -0.1712  0.2731 -0.1960
35743ION     NA42343  18.727   0.295   2.926  0.1913 -0.0929  0.3427
35744ION     NA42344  26.185   3.360  11.712 -0.1459  0.1467  0.2711
35745ION     NA42345   6.630   3.707  35.821  0.2088  0.2159  0.1797
35746ION     NA42346   7.320   0.049   9.243  0.0374 -0.1467  0.0341
35747ION     NA42347   2.415   5.283   8.638 -0.0485 -0.1407 -0.0311
35748ION     NA42348  20.766   5.021  31.195  0.3219 -0.1772  0.3174
35749ION     NA42349  24.887   3.800  30.345 -0.1446  0.0912  0.2851
35750ION     NA42350   5.971   5.844   7.142  0.4090  0.0514 -0.0147
35751ION     NA42351  24.070   2.998  30.132  0.0491 -0.4154 -0.2640
35752ION     NA42352   2.153   3.303  10.881 -0.0437 -0.0759 -0.0258
35753ION     NA42353  16.895   1.116  25.864 -0.4382 -0.0684  0.0490
35754ION     NA42354  19.852   4.343  34.320  0.0886 -0.0396 -0.3416
35755ION     NA42355  11.016   6.541  25.019 -0.3076 -0.0462 -0.0395
35756ION     NA42356  15.704   2.474   9.948 -0.0759 -0.1709 -0.0061
35757ION     NA42357  17.196   3.806  28.871 -0.3517 -0.3561 -0.1902
35758ION     NA42358   5.721   1.522   9.132  0.0958 -0.4142 -0.1887
35759ION     NA42359  15.548   6.173  29.317 -0.3457 -0.2832  0.1908
35760ION     NA42360  18.332   1.279  28.205 -0.2869 -0.3035  0.0787
35761ION     NA42361  15.913   3.941  28.290  0.0620  0.3292 -0.4009
35762ION     NA42362   9.039   6.252   3.223  0.2494 -0.0977  0.0982
35763ION     NA42363  20.878   5.072  34.196 -0.2952 -0.0327 -0.2094
35764ION     NA42364  24.510   4.796  22.763 -0.1794 -0.0798  0.6684
35765ION     NA42365  10.808   1.302   7.529  0.1639  0.4305  0.3912
35766ION     NA42366   0.444   0.404   4.483 -0.3755  0.1118 -0.2543
35767ION     NA42367  15.040   3.545  10.415 -0.3861 -0.2415  0.3900
35768ION     NA42368   7.517   4.098   8.983  0.2757  0.2072 -0.1639
35769ION     NA42369   0.234   4.236   3.256 -0.1554 -0.3132 -0.1213
35770ION     NA42370   1.079   2.281  23.657  0.4292 -0.2810  0.3035
35771ION     NA42371  12.745   2.128  20.828  0.0492 -0.1208 -0.2003
35772ION     NA42372  23.841   4.921  25.066 -0.2416  0.0669 -0.1480
35773ION     NA42373  16.777   2.957  34.638 -0.2633 -0.3634 -0.0389
35774ION     NA42374  21.736   3.591  24.461 -0.0241 -0.2350 -0.2402
35775ION     NA42375   8.545   2.274   0.087  0.3440 -0.0825  0.5493
35776ION     NA42376   4.065   2.043  29.304 -0.3684  0.1870 -0.0154
35777ION     NA42377  11.872   4.919  12.432 -0.2154  0.1087  0.7338
35778ION     NA42378  23.433   1.287  26.425  0.2105  0.0761 -0.1770
35779ION     NA42379  22.714   3.533   0.750 -0.1172  0.3631 -0.2136
35780ION     NA42380   0.339   2.019   5.220  0.2826 -0.2746  0.1611
35781ION     NA42381   2.153   2.825   2.807 -0.0838  0.0071 -0.2096
35782ION     NA42382   0.277   6.151  14.528  0.0910  0.0447  0.2176
35783ION     NA42383  21.958   1.058  25.191  0.0953  0.2118  0.0227
35784ION     NA42384  13.580   2.823  25.164 -0.1576 -0.0531 -0.1091
35785ION     NA42385  19.024   2.089  28.073 -0.1492 -0.1532  0.0669
35786ION     NA42386   9.133   2.207  32.523 -0.3324 -0.0379 -0.0083
35787ION     NA42387   5.875   0.043   9.741  0.2962 -0.0802  0.1322
35788ION     NA42388  22.338   4.069  27.877  0.6734 -0.0636 -0.1866
35789ION     NA42389   1.637   5.634  27.888 -0.1758  0.1921  0.2735
35790ION     NA42390  14.119   1.639  28.321  0.3606 -0.2348  0.0017
35791ION     NA42391  18.850   2.482  29.359 -0.2913 -0.3753  0.0548
35792ION     NA42392  14.834   4.321  26.438  0.3726 -0.0208  0.1402
35793ION     NA42393  16.419   0.786  28.231 -0.3009 -0.0190 -0.0609
35794ION     NA42394  22.627   0.941  10.227  0.3237  0.2992 -0.0909
35795ION     NA42395  19.045   0.661  22.475  0.2353  0.0176 -0.1602
35796ION     NA42396   4.762   4.917   7.160  0.0736  0.1563  0.0508
35797ION     NA42397  21.551   1.837  35.953  0.1598  0.2439 -0.5195
35798ION     NA42398  11.955   0.922  21.776 -0.3812  0.1483 -0.1447
35799ION     NA42399  13.463   6.096   9.821 -0.2059  0.2957 -0.1480
35800ION     NA42400  25.483   5.414  28.714  0.1564 -0.5887 -0.1671
35801ION     NA42401   7.959   5.468  34.525  0.0814  0.4322  0.2187
35802ION     NA42402   5.466   4.089   8.897  0.2962 -0.0520 -0.4404
35803ION     NA42403  19.548   1.181   6.598 -0.2722 -0.0510 -0.0032
35804ION     NA42404  17.993   3.321   4.923 -0.2495 -0.3005  0.4141
35805ION     NA42405  25.748   4.035   5.594  0.2330 -0.0641  0.0633
35806ION     NA42406  22.569   0.418   2.076 -0.5612  0.1427 -0.0425
35807ION     NA42407  14.741   6.010   6.184  0.3489 -0.0339  0.0076
35808ION     NA42408  10.809   6.160  33.200  0.2910  0.3847 -0.1934
35809ION     NA42409   9.336   2.390   6.752 -0.1682  0.0875  0.1618
35810ION     NA42410   4.354   5.220  27.525 -0.0978  0.2025 -0.1898
35811ION     NA42411   3.777   4.475  15.910  0.1004 -0.0493  0.2891
35812ION     NA42412   7.844   1.867  30.958 -0.0191 -0.5741  0.1883
35813ION     NA42413  13.543   1.120   9.957  0.1124  0.0496  0.2218
35814ION     NA42414   0.625   0.718  35.390  0.0365 -0.1588 -0.0643
35815ION     NA42415   0.712   2.976   2.744 -0.0666  0.1509  0.3618
35816ION     NA42416  19.337   3.617   3.344  0.1422  0.0213  0.1214
35817ION     NA42417   8.207   3.039   5.462 -0.1182  0.0952  0.1071
35818ION     NA42418  15.411   5.610   0.967 -0.0595 -0.5075 -0.4317
35819ION     NA42419  20.723   5.814   8.733 -0.1700 -0.3511 -0.0383
35820ION     NA42420   6.237   5.269   9.555 -0.0991 -0.2763  0.0891
35821ION     NA42421   8.534   1.402  30.526 -0.0971  0.4307 -0.3405
35822ION     NA42422   6.497   5.259  29.366 -0.0958 -0.0067  0.2844
35823ION     NA42423  18.480   3.827  13.817 -0.1293 -0.1029  0.6201
35824ION     NA42424   3.297   5.166  32.310  0.3873 -0.3350  0.0589
35825ION     NA42425   3.661   3.670   6.471  0.0260  0.0527 -0.0008
35826ION     NA42426  13.787   6.085  30.379 -0.0156  0.0389  0.5044
35827ION     NA42427  11.874   4.908  33.713  0.2602 -0.2208  0.0223
35828ION     NA42428  21.702   2.985  10.765 -0.4212  0.0336 -0.3748
35829ION     NA42429   7.171   5.918   6.814 -0.2280 -0.0574 -0.0359
35830ION     NA42430  22.745   5.178  31.323  0.3836 -0.4150  0.1279
35831ION     NA42431   9.139   0.209   5.961 -0.5105 -0.0535  0.0243
35832ION     NA42432  21.959   0.050  25.392 -0.8336 -0.3421  0.1749
35833ION     NA42433   3.400   4.089  12.575  0.1571  0.0433 -0.2387
35834ION     NA42434  22.323   1.875   9.325  0.4222  0.2358 -0.0339
35835ION     NA42435  12.332   1.621   4.819  0.1830  0.2149 -0.4494
35836ION     NA42436   1.334   0.341  27.696  0.1693  0.2093 -0.1853
35837ION     NA42437  12.118   5.329  13.452 -0.0986 -0.3553 -0.3518
35838ION     NA42438  15.298   4.933   0.227  0.2394  0.0140  0.4496
35839ION     NA42439  11.178   4.922  24.425 -0.1399  0.4071  0.1243
35840ION     NA42440  11.460   3.781  12.947  0.0429  0.0257  0.0149
35841ION     NA42441   0.698   4.606  24.079 -0.2088  0.1084 -0.2609
35842ION     NA42442   2.117   6.017  11.639  0.0442  0.4277 -0.2893
35843ION     NA42443   3.340   3.089  29.252 -0.2299 -0.2780  0.1196
35844ION     NA42444  13.308   2.683   8.693  0.6055 -0.0018  0.1186
35845ION     NA42445  11.773   4.282  11.462  0.5009 -0.4007  0.0380
35846ION     NA42446  11.533   2.860  30.702 -0.0747  0.2027  0.0887
35847ION     NA42447  20.119   5.860  28.556 -0.3107  0.2773  0.0678
35848ION     NA42448  25.126   1.650   1.796 -0.1815  0.1772  0.0230
35849ION     NA42449  17.054   5.503   0.404  0.0693  0.3842 -0.1052
35850ION     NA42450  23.140   5.592   7.678  0.0265  0.1181  0.2119
35851ION     NA42451  21.196   3.718   3.800  0.0919  0.0348 -0.1599
35852ION     NA42452   2.501   3.877  13.607 -0.0582 -0.0297 -0.0532
35853ION     CL42453  21.181   5.294  10.226 -0.1061  0.0392  0.0670
35854ION     CL42454  20.718   3.780  11.163 -0.2726 -0.0016 -0.2003
35855ION     CL42455   4.123   2.988   4.286  0.3823 -0.0953  0.2749
35856ION     CL42456  15.384   3.329  34.403  0.0868  0.1040 -0.0266
35857ION     CL42457  24.931   1.184  27.472  0.3543  0.0002 -0.1641
35858ION     CL42458   6.571   4.881   9.353 -0.0095 -0.4274  0.1270
35859ION     CL42459  15.510   5.026  28.129  0.2206 -0.3503  0.4931
35860ION     CL42460  19.422   6.215  29.075  0.2609  0.0806  0.1606
35861ION     CL42461  10.930   3.353  14.177  0.2449  0.2892 -0.1308
35862ION     CL42462   9.339   4.515  23.443 -0.0640 -0.1459 -0.2598
35863ION     CL42463   1.362   6.480  29.289 -0.2211 -0.1755  0.3311
35864ION     CL42464  10.806   2.911  30.240 -0.4347  0.2590 -0.0111
35865ION     CL42465  15.239   3.491  12.199  0.6772 -0.2726 -0.2188
35866ION     CL42466   2.546   2.883   2.939  0.4824  0.4972  0.0448
35867ION     CL42467  20.341   0.662  10.025  0.2497  0.0434 -0.0945
35868ION     CL42468   5.707   0.925   2.125  0.4689  0.3131  0.1848
35869ION     CL42469  10.328   5.448   7.473  0.2354  0.0840  0.2622
35870ION     CL42470  11.973   1.286  25.381  0.4494 -0.4121  0.1407
35871ION     CL42471   2.310   3.990  34.031  0.0920  0.1216 -0.1815
35872ION     CL42472  24.013   1.133  27.417  0.2660  0.1037 -0.2346
35873ION     CL42473   5.291   5.374   3.381 -0.1829  0.2832  0.0115
35874ION     CL42474  12.750   5.897  21.417  0.1581  0.0919  0.3494
35875ION     CL42475  18.906   2.854  30.025  0.2739 -0.1829 -0.1887
35876ION     CL42476   0.413   1.870  35.996  0.1496 -0.5071  0.2307
35877ION     CL42477  17.613   5.754   5.529  0.0691 -0.0625 -0.0260
35878ION     CL42478  14.998   2.717   9.044 -0.1443 -0.1976 -0.0536
35879ION     CL42479   6.697   1.263   9.277  0.0007  0.0029 -0.2270
35880ION     CL42480   9.032   6.063  24.360 -0.0893 -0.0013 -0.2430
35881ION     CL42481   4.903   3.284  21.834  0.0208 -0.3306  0.0517
35882ION     CL42482  17.845   3.381  30.372 -0.2021 -0.0769 -0.2954
35883ION     CL42483  16.342   3.434   4.501  0.0520  0.4398  0.1561
35884ION     CL42484  22.367   2.120   8.584 -0.1608  0.2657  0.3179
35885ION     CL42485   0.655   5.561  21.058 -0.2744 -0.4222 -0.5951
35886ION     CL42486  12.956   0.373  25.580  0.0585 -0.4223 -0.0531
35887ION     CL42487   7.500   5.052  26.416  0.0232 -0.0197 -0.1914
35888ION     CL42488  23.270   6.216   4.663  0.1973 -0.1102  0.1006
35889ION     CL42489   0.766   4.231   3.692 -0.3902  0.0287 -0.3762
35890ION     CL42490  21.467   2.980  26.718 -0.1587 -0.0875  0.3630
35891ION     CL42491  11.702   3.687  12.643 -0.2360 -0.0835 -0.0051
35892ION     CL42492  20.915   4.103  35.895 -0.2241 -0.3037 -0.0644
35893ION     CL42493   9.391   1.148  14.098  0.2381  0.0113 -0.0920
35894ION     CL42494   2.884   1.245   1.594 -0.2732 -0.2191  0.0773
35895ION     CL42495   5.886   3.769  22.223  0.0159 -0.3277  0.0708
35896ION     CL42496   8.998   3.636  32.441  0.1418  0.0320  0.4502
35897ION     CL42497   5.129   0.230  14.942 -0.2838 -0.1276  0.1819
35898ION     CL42498   9.637   6.289  21.395 -0.3783 -0.1379  0.3874
35899ION     CL42499   9.220   6.412   3.542  0.2252  0.0103 -0.3270
35900ION     CL42500  16.394   0.289  24.962  0.2112  0.2030 -0.2702
35901ION     CL42501  18.690   6.340  23.102  0.0051 -0.5745  0.3160
35902ION     CL42502  11.691   5.675   3.474 -0.0195  0.2492  0.1996
35903ION     CL42503  24.983   0.729  12.382 -0.1147 -0.0887  0.1022
35904ION     CL42504   7.162   4.062   3.492 -0.1514 -0.2889 -0.1194
35905ION     CL42505   5.595   0.860   0.978  0.5358  0.1358 -0.1214
35906ION     CL42506   4.146   0.878   9.895 -0.1715 -0.5827  0.1407
35907ION     CL42507  17.601   4.527  12.744  0.2206  0.1228  0.3753
35908ION     CL42508   4.397   4.385  13.241 -0.1653 -0.0973  0.1440
35909ION     CL42509  13.898   0.586   9.985  0.6612 -0.0865 -0.3390
35910ION     CL42510  17.306   0.507  30.885 -0.0743  0.1301 -0.0690
35911ION     CL42511   1.531   2.393  22.116 -0.2255  0.0154  0.0185
35912ION     CL42512  24.727   5.133   3.497  0.0019 -0.3309  0.4078
35913ION     CL42513  24.977   0.447  11.698 -0.1205  0.0635  0.2225
35914ION     CL42514   1.745   2.408  32.632 -0.2518  0.3236 -0.1224
35915ION     CL42515  24.956   2.858   3.993  0.4532  0.0984 -0.6224
35916ION     CL42516  15.404   0.138   9.398  0.4846  0.1145 -0.6165
35917ION     CL42517   0.182   0.582  14.656 -0.3309 -0.2762  0.0326
35918ION     CL42518  22.953   3.511  21.972  0.2172 -0.0586  0.1030
35919ION     CL42519   8.484   1.819  11.251  0.1465 -0.1850 -0.0868
35920ION     CL42520   2.254   2.885   5.466  0.0014 -0.0053 -0.2325
35921ION     CL42521  11.787   4.976   3.639 -0.0578 -0.5512 -0.2573
35922ION     CL42522   3.642   0.727  34.135  0.0216  0.5452  0.0757
35923ION     CL42523   2.007   5.666  23.752  0.1384 -0.1039  0.3959
35924ION     CL42524  19.876   3.901   9.705  0.0650 -0.5172  0.0485
35925ION     CL42525  24.523   3.145  32.540  0.1706 -0.2416 -0.0655
35926ION     CL42526  21.059   3.938   4.495 -0.2336 -0.1047  0.1706
35927ION     CL42527  25.828   4.031   1.007 -0.1102  0.1849  0.1927
35928ION     CL42528  10.056   0.437  23.897  0.0615 -0.0775  0.2730
35929ION     CL42529   6.603   0.655   6.189  0.0132  0.4670 -0.3258
35930ION     CL42530  24.126   0.334  24.443 -0.1574 -0.1151 -0.2909
35931ION     CL42531  12.852   1.330  21.743 -0.3327  0.2928 -0.2418
35932ION     CL42532   6.594   3.768   2.212 -0.5768 -0.1477 -0.0263
35933ION     CL42533  12.977   2.794  24.010 -0.1207  0.3258 -0.1386
35934ION     CL42534  11.268   2.444   0.886 -0.0258  0.1030 -0.1769
35935ION     CL42535  25.725   0.384  24.524  0.3388  0.0607  0.1498
35936ION     CL42536  11.156   0.870   7.305 -0.0401 -0.3777 -0.2594
35937ION     CL42537  16.101   1.808   4.154 -0.4251  0.3930  0.2195
35938ION     CL42538  20.314   1.448  14.618  0.1805  0.1243 -0.3913
35939ION     CL42539   7.946   1.816  32.513 -0.0521 -0.3683  0.1381
35940ION     CL42540  21.106   5.171  13.412  0.0527 -0.1464  0.5211
35941ION     CL42541   4.168   0.885   8.792  0.0475 -0.4244  0.1172
35942ION     CL42542   9.301   0.176   1.710 -0.0397 -0.1234  0.0241
35943ION     CL42543  23.650   1.085   7.669 -0.3321 -0.3827 -0.1724
35944ION     CL42544  13.119   0.317  24.284 -0.2857 -0.3917 -0.3073
35945ION     CL42545   3.160   5.300  34.578  0.1145  0.2193 -0.2203
35946ION     CL42546  15.723   5.574  28.873  0.0221  0.3208  0.2664
35947ION     CL42547  18.174   2.667  28.051 -0.1982 -0.1045 -0.2628
35948ION     CL42548  20.995   1.770  10.303 -0.1117 -0.3990 -0.1923
35949ION     CL42549  13.972   3.992  14.834 -0.1167  0.2133  0.0990
35950ION     CL42550   0.220   4.964  24.097  0.0183 -0.4268 -0.0220
35951ION     CL42551  16.785   0.795  10.795  0.1493 -0.0008  0.0352
35952ION     CL42552  11.659   3.935  11.257  0.0662 -0.1393 -0.0012
35953ION     CL42553  11.864   5.878   5.083 -0.1351  0.0316 -0.2387
35954ION     CL42554   8.806   5.091  11.965  0.1436  0.4182  0.3036
35955ION     CL42555   2.088   5.146  31.735  0.0391  0.2470  0.0298
35956ION     CL42556   1.417   3.817   1.592 -0.2952  0.0637 -0.0228
35957ION     CL42557   2.372   3.934  13.918  0.0228 -0.0873  0.1713
35958ION     CL42558  17.752   0.309  30.248 -0.4743 -0.1746 -0.2715
35959ION     CL42559   5.215   4.888   8.196 -0.2885  0.2815  0.3087
35960ION     CL42560  10.835   0.916  14.468  0.0381  0.2477  0.5493
35961ION     CL42561   5.482   5.913  25.086  0.2504  0.0603  0.3343
35962ION     CL42562  25.359   4.846  33.144  0.3759 -0.2374 -0.0067
35963ION     CL42563   8.378   1.616  35.384  0.2533 -0.0108  0.1643
35964ION     CL42564  11.764   3.440   3.615 -0.3021 -0.0095  0.2203
35965ION     CL42565   2.923   5.086  22.177 -0.1791  0.1591  0.2684
35966ION     CL42566   1.531   0.739  28.436 -0.1886 -0.3105 -0.2229
35967ION     CL42567   4.910   3.893  13.678 -0.0079  0.1363  0.1979
35968ION     CL42568  11.871   1.762   4.068 -0.1120  0.2909  0.0615
35969ION     CL42569  25.988   2.711   0.791 -0.2036  0.1323  0.0855
35970ION     CL42570   3.959   6.360   2.217 -0.3405  0.0235  0.3395
35971ION     CL42571   6.027   1.896  25.141  0.1635 -0.1730 -0.2730
35972ION     CL42572  18.487   0.317   6.160 -0.0007 -0.1494 -0.2082
35973ION     CL42573  26.305   1.637   0.995 -0.1976 -0.4052 -0.1278
35974ION     CL42574   6.053   3.652  13.649  0.4064  0.1081 -0.1404
35975ION     CL42575  12.806   6.539  27.241  0.4216  0.4555  0.1495
35976ION     CL42576  22.989   1.467   1.755  0.3918 -0.3378 -0.3060
35977ION     CL42577  18.247   0.929  10.017 -0.4339 -0.0420  0.1265
35978ION     CL42578  21.611   2.900  10.362 -0.0684  0.2336  0.1512
35979ION     CL42579   4.348   4.378   7.169 -0.0324  0.0626 -0.1416
35980ION     CL42580   0.446   6.491  26.829 -0.0600 -0.3971  0.1035
35981ION     CL42581  21.809   1.111  13.115 -0.3260  0.3970 -0.2797
35982ION     CL42582  16.435   4.420   8.947 -0.1152  0.3036 -0.3057
35983ION     CL42583  13.053   1.085   9.223  0.4946 -0.1571  0.0999
35984ION     CL42584  15.036   0.579  21.479  0.2357  0.3661 -0.4333
35985ION     CL42585  21.511   6.456  31.985  0.2385 -0.1760 -0.3668
35986ION     CL42586   5.324   2.716  24.797 -0.0286 -0.2379 -0.1990
35987ION     CL42587  16.375   4.940  32.084 -0.1313 -0.3229 -0.1661
35988ION     CL42588   6.148   6.058  21.300 -0.1882  0.4478 -0.1912
35989ION     CL42589  19.182   0.853   7.342 -0.0123 -0.4056 -0.2404
35990ION     CL42590   3.808   0.826   4.225 -0.5106  0.2712 -0.3026
35991ION     CL42591  15.832   0.590  11.315 -0.2420 -0.4972  0.0289
35992ION     CL42592   0.562   5.698  34.477 -0.3199  0.0698 -0.1810
35993ION     CL42593   9.670   5.497  14.191  0.0885  0.2374 -0.1321
35994ION     CL42594  20.722   5.110  34.525 -0.3343 -0.3706  0.0110
35995ION     CL42595   0.552   5.440   2.562 -0.0797  0.2390  0.0858
35996ION     CL42596   9.294   1.536   7.882 -0.2242 -0.2079  0.1467
35997ION     CL42597  18.307   1.690   5.963 -0.2953 -0.4857 -0.1886
35998DPPC   NC342598  11.452   4.649  20.746 -0.0385  0.1298  0.2284
35998DPPC   PO442599  11.528   5.035  20.629  0.2596 -0.1091  0.3215
35998DPPC   GL142600  11.605   5.114  20.236  0.1368 -0.4678  0.2339
35998DPPC   GL242601  11.287   5.174  20.221  0.2351  0.0975  0.1653
35998DPPC   C1A42602  11.553   5.230  19.861  0.2145 -0.1369 -0.3425
35998DPPC   C2A42603  11.543   5.298  19.427 -0.4427  0.0002  0.1651
35998DPPC   C3A42604  11.593   5.297  18.952  0.2168 -0.0277  0.3286
35998DPPC   C4A42605  11.577   5.410  18.434  0.2154  0.2432  0.1200
35998DPPC   C1B42606  11.139   5.154  19.931 -0.1560 -0.5544 -0.0782
35998DPPC   C2B42607  11.072   5.434  19.655  0.0220 -0.2580  0.0853
35998DPPC   C3B42608  11.145   5.516  19.219 -0.0811 -0.0051  0.0990
35998DPPC   C4B42609  11.151   5.504  18.717  0.5087  0.2067  0.2275
35999DPPC   NC342610  14.711   4.302  20.685  0.2352  0.0650  0.1387
35999DPPC   PO442611  14.425   4.560  20.585 -0.3131 -0.1841  0.0130
35999DPPC   GL142612  14.493   4.525  20.164  0.3563  0.2512 -0.1095
35999DPPC   GL242613  14.551   4.322  20.002  0.0429  0.0754  0.0483
35999DPPC   C1A42614  14.223   4.694  19.980  0.0727  0.1176 -0.0893
35999DPPC   C2A42615  13.986   4.579  19.657 -0.0085 -0.3048 -0.1827
35999DPPC   C3A42616  13.867   4.539  19.159  0.0241  0.0717  0.3340
35999DPPC   C4A42617  13.895   4.512  18.640  0.0636 -0.0950 -0.0193
35999DPPC   C1B42618  14.521   4.341  19.635 -0.1232 -0.0972  0.0952
35999DPPC   C2B42619  14.410   4.465  19.271  0.0123  0.2073 -0.1818
35999DPPC   C3B42620  14.406   4.339  18.824  0.0481  0.0796 -0.0938
35999DPPC   C4B42621  14.347   4.348  18.404 -0.1284 -0.2178 -0.0465
36000DPPC   NC342622  13.967   3.950  20.815 -0.4150  0.0505  0.1364
36000DPPC   PO442623  13.915   3.604  20.563  0.0089 -0.1864 -0.0628
36000DPPC   GL142624  13.827   3.450  20.134  0.1726 -0.1706 -0.0684
36000DPPC   GL242625  13.921   3.747  20.018  0.0690  0.2900 -0.2193
36000DPPC   C1A42626  13.792   3.360  19.775  0.2792 -0.0289 -0.0262
36000DPPC   C2A42627  13.755   3.370  19.338  0.0958 -0.0590  0.0840
36000DPPC   C3A42628  13.705   3.307  18.862 -0.0520 -0.0381 -0.5076
36000DPPC   C4A42629  13.621   3.257  18.373 -0.0236  0.1684 -0.0242
36000DPPC   C1B42630  14.022   3.938  19.665  0.1357 -0.0513 -0.0584
36000DPPC   C2B42631  14.010   4.102  19.263  0.1328  0.0541 -0.0236
36000DPPC   C3B42632  13.970   4.058  18.792  0.0154  0.0092  0.0051
36000DPPC   C4B42633  14.042   4.025  18.352 -0.3316  0.1193  0.1774
36001DPPC   NC342634  10.378   1.121  21.026 -0.1053 -0.2504  0.0601
36001DPPC   PO442635  10.388   1.269  20.664 -0.0889 -0.3575 -0.2745
36001DPPC   GL142636  10.320   1.148  20.279  0.1379  0.0634  0.2532
36001DPPC   GL242637  10.125   1.379  20.211 -0.0182  0.1445 -0.1064
36001DPPC   C1A42638  10.454   1.156  19.938 -0.0712 -0.0843  0.0448
36001DPPC   C2A42639  10.360   0.971  19.576  0.1936  0.0879 -0.1392
36001DPPC   C3A42640  10.417   0.986  19.120 -0.2882 -0.0315  0.0695
36001DPPC   C4A42641  10.348   1.041  18.629  0.1278 -0.1204  0.4786
36001DPPC   C1B42642  10.260   1.514  19.862 -0.1979  0.0820  0.0857
36001DPPC   C2B42643  10.307   1.533  19.414  0.1249 -0.0370 -0.0675
36001DPPC   C3B42644  10.277   1.534  18.937  0.0731 -0.0104  0.1842
36001DPPC   C4B42645  10.313   1.505  18.425  0.0976 -0.5965  0.0857
36002DPPC   NC342646  11.248   2.670  20.897 -0.0886 -0.2036  0.1161
36002DPPC   PO442647  11.548   2.486  20.691  0.2458 -0.1059 -0.2336
36002DPPC   GL142648  11.609   2.490  20.327  0.2242  0.2942 -0.1770
36002DPPC   GL242649  11.352   2.393  20.263 -0.1241  0.1302  0.0131
36002DPPC   C1A42650  11.719   2.685  20.053  0.0437  0.1465  0.4160
36002DPPC   C2A42651  11.808   2.764  19.626 -0.0648 -0.3321  0.0304
36002DPPC   C3A42652  11.920   2.889  19.215 -0.1278  0.1353  0.2125
36002DPPC   C4A42653  11.891   2.992  18.708  0.2040  0.0507  0.1648
36002DPPC   C1B42654  11.343   2.540  19.947 -0.0081  0.3117 -0.1034
36002DPPC   C2B42655  11.406   2.508  19.579 -0.0458  0.3772  0.2313
36002DPPC   C3B42656  11.467   2.585  19.133  0.1224  0.3259 -0.0859
36002DPPC   C4B42657  11.541   2.684  18.713 -0.2020  0.0176  0.3136
36003DPPC   NC342658  12.114   3.099  21.076 -0.0028 -0.1050 -0.1967
36003DPPC   PO442659  11.935   3.346  20.808 -0.2192 -0.0292  0.1606
36003DPPC   GL142660  11.959   3.504  20.380 -0.2672 -0.4272 -0.1205
36003DPPC   GL242661  11.983   3.263  20.284 -0.1030 -0.3879 -0.2471
36003DPPC   C1A42662  12.161   3.564  20.043  0.2432  0.0330  0.0151
36003DPPC   C2A42663  12.240   3.635  19.572 -0.2220 -0.0900  0.0030
36003DPPC   C3A42664  12.312   3.714  19.101 -0.2158  0.1558 -0.1246
36003DPPC   C4A42665  12.307   3.815  18.676  0.0649  0.0242 -0.0027
36003DPPC   C1B42666  11.826   3.287  19.903  0.2944  0.1666  0.0284
36003DPPC   C2B42667  11.800   3.325  19.473 -0.2808  0.2582 -0.0178
36003DPPC   C3B42668  11.897   3.405  19.039 -0.1160  0.1773 -0.0257
36003DPPC   C4B42669  11.970   3.441  18.523 -0.0660  0.2411 -0.1749
36004DPPC   NC342670  11.493   1.697  20.988 -0.0374 -0.0907 -0.1578
36004DPPC   PO442671  11.208   1.665  20.798  0.0175 -0.1520 -0.0190
36004DPPC   GL142672  11.181   1.530  20.445 -0.0209 -0.0706 -0.3094
36004DPPC   GL242673  11.013   1.392  20.365  0.1415  0.2061 -0.1091
36004DPPC   C1A42674  11.332   1.731  20.160 -0.2494  0.5285  0.0357
36004DPPC   C2A42675  11.516   2.034  19.955  0.0153  0.0908  0.2133
36004DPPC   C3A42676  11.528   2.065  19.479 -0.0532  0.2984  0.2145
36004DPPC   C4A42677  11.493   2.087  19.036  0.1154 -0.0852  0.2679
36004DPPC   C1B42678  10.844   1.314  20.042 -0.1896  0.1536  0.1181
36004DPPC   C2B42679  10.740   1.404  19.644 -0.0561 -0.1593 -0.1857
36004DPPC   C3B42680  10.745   1.367  19.138 -0.0999  0.0963 -0.0947
36004DPPC   C4B42681  10.789   1.379  18.639  0.1356 -0.2305  0.1850
36005DPPC   NC342682  14.263   0.032  20.734  0.0922 -0.1312 -0.4982
36005DPPC   PO442683  14.271  -0.354  20.731  0.0105 -0.0988  0.0460
36005DPPC   GL142684  14.362  -0.439  20.332  0.4452  0.1209 -0.0844
36005DPPC   GL242685  14.464  -0.222  20.265 -0.0438 -0.2066  0.0851
36005DPPC   C1A42686  14.238  -0.662  20.041 -0.2020 -0.0919 -0.0040
36005DPPC   C2A42687  14.241  -0.691  19.666  0.3325  0.0551  0.1144
36005DPPC   C3A42688  14.229  -0.641  19.186 -0.0608 -0.1202 -0.0699
36005DPPC   C4A42689  14.041  -0.824  18.745 -0.0824 -0.0441  0.0611
36005DPPC   C1B42690  14.341   0.031  19.949  0.0220  0.3745  0.2268
36005DPPC   C2B42691  14.537   0.106  19.573 -0.0827  0.1606  0.0110
36005DPPC   C3B42692  14.506   0.140  19.075  0.0841 -0.1913 -0.0956
36005DPPC   C4B42693  14.529   0.116  18.562  0.1795  0.3083 -0.0143
36006DPPC   NC342694  12.854   2.976  20.874 -0.1956  0.1664 -0.0243
36006DPPC   PO442695  12.536   3.180  20.779  0.3973 -0.0587  0.0794
36006DPPC   GL142696  12.609   3.443  20.380  0.3028 -0.0134 -0.0712
36006DPPC   GL242697  12.425   3.218  20.240  0.2901 -0.2608 -0.1059
36006DPPC   C1A42698  12.546   3.776  20.196 -0.0128  0.1508 -0.0112
36006DPPC   C2A42699  12.576   3.945  19.790 -0.1620 -0.1768 -0.0777
36006DPPC   C3A42700  12.601   4.006  19.368 -0.1117  0.1023  0.1586
36006DPPC   C4A42701  12.631   4.103  18.898 -0.0978  0.1283 -0.2110
36006DPPC   C1B42702  12.528   3.021  19.978  0.1861  0.1494 -0.1139
36006DPPC   C2B42703  12.835   2.983  19.645  0.2225  0.0232  0.2262
36006DPPC   C3B42704  12.831   2.999  19.115  0.1698  0.0611 -0.3945
36006DPPC   C4B42705  12.770   2.947  18.606  0.1661 -0.0910 -0.1401
36007DPPC   NC342706  14.589   2.306  20.598  0.0675  0.1942 -0.1991
36007DPPC   PO442707  14.891   2.054  20.548  0.0810  0.1957  0.2309
36007DPPC   GL142708  15.026   1.952  20.214  0.4626  0.1838  0.5547
36007DPPC   GL242709  15.130   1.679  20.137 -0.4553  0.3012  0.0859
36007DPPC   C1A42710  14.839   2.076  19.907 -0.0382  0.0594  0.2671
36007DPPC   C2A42711  14.742   1.956  19.461 -0.0015  0.4451  0.0171
36007DPPC   C3A42712  14.677   1.947  18.988 -0.1646  0.1038 -0.0993
36007DPPC   C4A42713  14.760   1.936  18.504 -0.1278  0.2200  0.1325
36007DPPC   C1B42714  15.181   1.778  19.823  0.0155  0.0467  0.4259
36007DPPC   C2B42715  15.240   1.834  19.383  0.0061  0.0723 -0.3674
36007DPPC   C3B42716  15.162   1.721  18.910  0.2443  0.0217  0.1733
36007DPPC   C4B42717  15.311   1.815  18.456 -0.0184 -0.1077  0.2155
36008DPPC   NC342718  13.434   1.327  20.740  0.0037  0.0236  0.2065
36008DPPC   PO442719  13.411   1.606  20.433 -0.2358 -0.0017  0.0539
36008DPPC   GL142720  13.616   1.539  20.069 -0.1733 -0.0393  0.0171
36008DPPC   GL242721  13.389   1.489  19.992 -0.0850  0.1311 -0.0356
36008DPPC   C1A42722  13.905   1.419  19.821 -0.1328  0.3009 -0.0179
36008DPPC   C2A42723  13.953   1.339  19.416 -0.0362  0.0108  0.3539
36008DPPC   C3A42724  13.919   1.308  18.976  0.2661  0.2319  0.0528
36008DPPC   C4A42725  13.859   1.184  18.483 -0.2780 -0.2548  0.3648
36008DPPC   C1B42726  13.394   1.422  19.641  0.2349  0.1465  0.1839
36008DPPC   C2B42727  13.359   1.388  19.182 -0.2310  0.1869  0.1750
36008DPPC   C3B42728  13.451   1.405  18.690  0.1174  0.2054  0.2971
36008DPPC   C4B42729  13.401   1.460  18.230  0.1250 -0.1523 -0.1109
36009DPPC   NC342730  14.916   0.280  20.497  0.0403  0.1369 -0.1306
36009DPPC   PO442731  14.658   0.371  20.772  0.1218 -0.2555  0.0040
36009DPPC   GL142732  14.499   0.276  20.364  0.0509  0.1770 -0.0742
36009DPPC   GL242733  14.420   0.603  20.369  0.1194 -0.0400 -0.1911
36009DPPC   C1A42734  14.671   0.325  20.061 -0.3475  0.0936  0.1391
36009DPPC   C2A42735  14.881   0.419  19.668 -0.3269 -0.0531 -0.1873
36009DPPC   C3A42736  14.899   0.446  19.147 -0.2462 -0.1166  0.1133
36009DPPC   C4A42737  14.922   0.441  18.633 -0.1346 -0.4548 -0.1440
36009DPPC   C1B42738  14.068   0.676  20.270 -0.0384  0.1485 -0.2570
36009DPPC   C2B42739  13.710   0.708  20.127 -0.2065 -0.0846  0.0469
36009DPPC   C3B42740  13.253   0.771  20.120  0.0137  0.0276 -0.1854
36009DPPC   C4B42741  12.768   0.801  20.007  0.4397 -0.2725  0.1429
36010DPPC   NC342742  15.543   4.077  20.865  0.4200  0.1265 -0.0057
36010DPPC   PO442743  15.255   4.262  20.653  0.1030  0.0467 -0.1582
36010DPPC   GL142744  15.212   4.074  20.259  0.0533 -0.0296 -0.1983
36010DPPC   GL242745  14.946   4.192  20.305  0.0942 -0.0333  0.1153
36010DPPC   C1A42746  15.464   3.994  19.992 -0.5666  0.2231  0.0384
36010DPPC   C2A42747  15.435   3.972  19.586 -0.2327 -0.0661 -0.2259
36010DPPC   C3A42748  15.306   4.013  19.128 -0.0632 -0.0122 -0.1051
36010DPPC   C4A42749  15.302   4.054  18.625 -0.0315  0.3000 -0.1961
36010DPPC   C1B42750  14.912   4.174  19.921 -0.1138  0.2460 -0.3384
36010DPPC   C2B42751  14.922   4.271  19.507 -0.2169 -0.0242 -0.1724
36010DPPC   C3B42752  14.844   4.279  19.006 -0.1574  0.3954  0.0739
36010DPPC   C4B42753  14.827   4.266  18.555 -0.1574  0.0350 -0.1345
36011DPPC   NC342754  15.733   1.973  20.613  0.1287  0.1669  0.1712
36011DPPC   PO442755  15.499   1.986  20.306  0.1744  0.1196 -0.1444
36011DPPC   GL142756  15.620   1.906  19.933 -0.0021 -0.0109 -0.2186
36011DPPC   GL242757  15.631   1.664  19.902  0.4431 -0.0759  0.1638
36011DPPC   C1A42758  15.580   2.107  19.605 -0.0554  0.3543 -0.1765
36011DPPC   C2A42759  15.564   2.151  19.222 -0.0020 -0.1093  0.1843
36011DPPC   C3A42760  15.642   2.138  18.739  0.0505 -0.2532  0.3429
36011DPPC   C4A42761  15.628   2.139  18.283  0.1784  0.0987  0.2264
36011DPPC   C1B42762  15.552   1.605  19.601  0.0234 -0.1055  0.4462
36011DPPC   C2B42763  15.675   1.626  19.161  0.1263  0.1838  0.3634
36011DPPC   C3B42764  15.692   1.557  18.652 -0.0441  0.2667  0.0906
36011DPPC   C4B42765  15.667   1.591  18.190 -0.0542 -0.1628  0.2063
36012DPPC   NC342766  12.195   1.532  21.123 -0.0292 -0.0997 -0.0637
36012DPPC   PO442767  12.079   1.825  20.868 -0.1596 -0.0030 -0.0745
36012DPPC   GL142768  12.077   1.871  20.398  0.1871 -0.0185 -0.0647
36012DPPC   GL242769  12.079   1.575  20.450  0.0007 -0.0376  0.1586
36012DPPC   C1A42770  11.919   2.079  20.134  0.0169 -0.2060  0.0450
36012DPPC   C2A42771  11.863   2.289  19.807 -0.2682 -0.0008  0.3568
36012DPPC   C3A42772  11.914   2.372  19.333 -0.0806 -0.0984 -0.0567
36012DPPC   C4A42773  12.009   2.483  18.849  0.4410  0.4476 -0.1918
36012DPPC   C1B42774  12.286   1.477  20.167  0.1096  0.4179  0.0925
36012DPPC   C2B42775  12.410   1.698  19.806  0.3492 -0.0187 -0.2236
36012DPPC   C3B42776  12.430   1.686  19.356 -0.1380 -0.0076 -0.0538
36012DPPC   C4B42777  12.430   1.755  18.867 -0.0279 -0.2658 -0.1976
36013DPPC   NC342778  10.182   1.667  20.515 -0.0460  0.1752  0.0436
36013DPPC   PO442779   9.925   1.923  20.637  0.1383  0.0169 -0.0253
36013DPPC   GL142780   9.846   2.036  20.301 -0.3008 -0.0797  0.2587
36013DPPC   GL242781   9.613   1.956  20.165  0.3509  0.1382 -0.0385
36013DPPC   C1A42782  10.100   2.040  20.044  0.0583  0.2517 -0.2568
36013DPPC   C2A42783  10.205   2.025  19.686  0.1228  0.1866  0.0443
36013DPPC   C3A42784  10.202   1.996  19.178  0.0652  0.0713 -0.0269
36013DPPC   C4A42785  10.280   2.036  18.685 -0.0720 -0.1094  0.4127
36013DPPC   C1B42786   9.783   1.809  19.870 -0.2480 -0.2881 -0.1134
36013DPPC   C2B42787   9.802   1.607  19.540 -0.1760 -0.0513  0.1794
36013DPPC   C3B42788   9.839   1.624  19.118 -0.0566 -0.1448  0.0536
36013DPPC   C4B42789   9.823   1.743  18.670  0.3150 -0.1374 -0.0548
36014DPPC   NC342790  13.976   5.008  20.477  0.0912 -0.0425  0.0007
36014DPPC   PO442791  14.292   5.256  20.468 -0.1586  0.2384  0.0111
36014DPPC   GL142792  14.385   5.468  20.176  0.4817 -0.1062 -0.0093
36014DPPC   GL242793  14.090   5.627  20.286 -0.2159 -0.0838 -0.0951
36014DPPC   C1A42794  14.345   5.489  19.805 -0.3654  0.0846 -0.0900
36014DPPC   C2A42795  14.212   5.389  19.391  0.2029  0.1653 -0.1109
36014DPPC   C3A42796  14.210   5.311  18.881 -0.2770 -0.1287  0.1882
36014DPPC   C4A42797  14.203   5.302  18.410  0.0988  0.0105 -0.1238
36014DPPC   C1B42798  13.982   5.634  19.941 -0.2297 -0.1711  0.0914
36014DPPC   C2B42799  13.747   5.518  19.623 -0.0503  0.1500  0.2597
36014DPPC   C3B42800  13.780   5.543  19.145  0.1460  0.4324  0.1418
36014DPPC   C4B42801  13.724   5.408  18.693 -0.1367 -0.3213  0.0998
36015DPPC   NC342802  12.253   3.754  20.654 -0.0121 -0.0247 -0.0151
36015DPPC   PO442803  12.610   3.734  20.796 -0.3268  0.0046  0.0564
36015DPPC   GL142804  13.006   3.834  20.624  0.3300 -0.1014  0.0322
36015DPPC   GL242805  12.857   4.097  20.605 -0.0624 -0.5641 -0.4200
36015DPPC   C1A42806  12.946   3.757  20.220  0.1097 -0.2280 -0.1501
36015DPPC   C2A42807  12.795   3.475  19.936 -0.0994  0.3962  0.2466
36015DPPC   C3A42808  12.717   3.474  19.446 -0.0726 -0.0827 -0.1685
36015DPPC   C4A42809  12.749   3.534  18.975  0.0173 -0.0286  0.2828
36015DPPC   C1B42810  13.009   4.411  20.455 -0.0464 -0.0340 -0.2279
36015DPPC   C2B42811  13.353   4.508  20.189  0.0646  0.3019 -0.0206
36015DPPC   C3B42812  13.785   4.578  20.116  0.2766  0.2766  0.1172
36015DPPC   C4B42813  14.124   4.234  19.997 -0.0178  0.0000  0.0676
36016DPPC   NC342814  14.722   1.241  20.264  0.1135 -0.1361  0.0953
36016DPPC   PO442815  15.113   1.243  20.348 -0.1950  0.0645 -0.1042
36016DPPC   GL142816  15.286   1.118  20.004  0.3201 -0.0513 -0.1363
36016DPPC   GL242817  15.348   0.872  19.984 -0.5061  0.0366 -0.0287
36016DPPC   C1A42818  15.164   1.234  19.711  0.0316  0.1146 -0.1304
36016DPPC   C2A42819  15.258   1.361  19.296  0.0095  0.0213  0.2289
36016DPPC   C3A42820  15.323   1.262  18.823  0.0152 -0.0536  0.3069
36016DPPC   C4A42821  15.272   1.328  18.308 -0.2327  0.0875 -0.2085
36016DPPC   C1B42822  15.351   0.863  19.578  0.1559  0.0856 -0.1329
36016DPPC   C2B42823  15.335   0.858  19.199  0.0954 -0.2806  0.0877
36016DPPC   C3B42824  15.325   0.754  18.811  0.2711 -0.1091  0.1907
36016DPPC   C4B42825  14.979   0.938  18.496  0.1127  0.0019 -0.1746
36017DPPC   NC342826  12.053   5.783  20.769 -0.1329  0.0545  0.0107
36017DPPC   PO442827  12.078   6.166  20.579 -0.2150 -0.1609 -0.3186
36017DPPC   GL142828  12.271   6.205  20.187  0.3401 -0.3647 -0.1588
36017DPPC   GL242829  12.486   6.339  20.218 -0.1203  0.0866 -0.2583
36017DPPC   C1A42830  12.054   6.133  19.906 -0.0232 -0.0570 -0.3027
36017DPPC   C2A42831  11.874   6.195  19.526 -0.0757  0.1077 -0.1783
36017DPPC   C3A42832  11.895   6.194  18.988 -0.2582  0.0527  0.2132
36017DPPC   C4A42833  11.832   6.214  18.459  0.4825  0.1704  0.4162
36017DPPC   C1B42834  12.673   6.399  19.915 -0.0107 -0.0254  0.0449
36017DPPC   C2B42835  12.751   6.321  19.536  0.0607 -0.0436 -0.3256
36017DPPC   C3B42836  12.788   6.242  19.059 -0.5006  0.2773 -0.1396
36017DPPC   C4B42837  12.728   6.285  18.588  0.1081 -0.0791 -0.5981
36018DPPC   NC342838  10.670   3.529  20.701  0.3296  0.1330 -0.3949
36018DPPC   PO442839  11.009   3.726  20.675 -0.0758 -0.1684 -0.3083
36018DPPC   GL142840  11.021   3.926  20.288 -0.0481  0.0258 -0.1484
36018DPPC   GL242841  10.912   3.709  20.187 -0.0909 -0.1465  0.0076
36018DPPC   C1A42842  11.212   3.966  19.948 -0.0173  0.2250  0.2141
36018DPPC   C2A42843  11.288   3.993  19.556 -0.2610  0.0167  0.0414
36018DPPC   C3A42844  11.399   4.012  19.097 -0.2376  0.2286  0.4129
36018DPPC   C4A42845  11.393   4.081  18.593 -0.1817 -0.1464 -0.1156
36018DPPC   C1B42846  10.917   3.684  19.849  0.3646  0.1380 -0.0545
36018DPPC   C2B42847  10.980   3.672  19.426 -0.1485 -0.4619 -0.2862
36018DPPC   C3B42848  10.976   3.668  19.012  0.1912 -0.1909  0.0501
36018DPPC   C4B42849  11.037   3.741  18.515  0.2315  0.0617  0.2447
36019DPPC   NC342850  15.040   5.201  20.945 -0.2590 -0.0425 -0.1369
36019DPPC   PO442851  15.276   5.292  20.643 -0.0069  0.3457 -0.2682
36019DPPC   GL142852  15.522   5.102  20.375  0.0465  0.2506 -0.0809
36019DPPC   GL242853  15.337   4.954  20.241  0.2068 -0.0160  0.1582
36019DPPC   C1A42854  15.728   5.165  20.072  0.0854  0.0468 -0.0342
36019DPPC   C2A42855  15.703   4.994  19.683  0.4382 -0.1243  0.3441
36019DPPC   C3A42856  15.658   4.835  19.260 -0.2515  0.0420 -0.1949
36019DPPC   C4A42857  15.609   4.890  18.822 -0.0487  0.3566 -0.0063
36019DPPC   C1B42858  15.308   4.993  19.884 -0.0693  0.1597 -0.0298
36019DPPC   C2B42859  15.233   5.056  19.505  0.1893 -0.0626  0.0609
36019DPPC   C3B42860  15.167   5.029  19.084 -0.2122 -0.1362  0.0744
36019DPPC   C4B42861  15.103   5.057  18.561  0.2447 -0.1640  0.0311
36020DPPC   NC342862  10.776   1.997  20.820 -0.2597  0.1801 -0.4689
36020DPPC   PO442863  10.723   1.670  20.626  0.2657  0.0647  0.1266
36020DPPC   GL142864  10.697   1.642  20.257 -0.2061  0.1390 -0.1292
36020DPPC   GL242865  10.474   1.825  20.151  0.0112 -0.0511  0.1178
36020DPPC   C1A42866  10.924   1.724  19.997 -0.1758 -0.2022  0.2459
36020DPPC   C2A42867  11.135   1.765  19.645  0.2011 -0.1241 -0.2778
36020DPPC   C3A42868  11.187   1.706  19.205 -0.1084 -0.2436  0.0316
36020DPPC   C4A42869  11.150   1.749  18.693  0.1603  0.0310  0.0354
36020DPPC   C1B42870  10.569   1.860  19.803  0.2573  0.0654 -0.2443
36020DPPC   C2B42871  10.689   1.853  19.372 -0.1878 -0.3288  0.0992
36020DPPC   C3B42872  10.716   1.912  18.936 -0.1458 -0.0302  0.2096
36020DPPC   C4B42873  10.716   1.898  18.423 -0.3939  0.0845 -0.1548
36021DPPC   NC342874   8.731   6.062  20.657 -0.0672 -0.2719 -0.1602
36021DPPC   PO442875   9.042   5.846  20.773  0.1896  0.0122 -0.0015
36021DPPC   GL142876   9.069   5.688  20.395  0.1438 -0.4131 -0.1203
36021DPPC   GL242877   8.888   5.915  20.276  0.0111  0.2373 -0.0578
36021DPPC   C1A42878   8.927   5.477  20.126  0.1483  0.0279 -0.0484
36021DPPC   C2A42879   8.899   5.369  19.667 -0.0830 -0.1673 -0.0392
36021DPPC   C3A42880   8.900   5.383  19.168 -0.1864 -0.1242 -0.1917
36021DPPC   C4A42881   8.895   5.313  18.702 -0.2987 -0.0361  0.0060
36021DPPC   C1B42882   8.950   5.847  19.869  0.0703  0.2074  0.0607
36021DPPC   C2B42883   8.935   5.806  19.431 -0.1869 -0.1598  0.2558
36021DPPC   C3B42884   8.870   5.826  18.941 -0.2608  0.0953 -0.2321
36021DPPC   C4B42885   8.811   5.784  18.462  0.0706 -0.1701 -0.0433
36022DPPC   NC342886  10.363   2.658  20.498  0.0788 -0.0083  0.0197
36022DPPC   PO442887  10.428   3.054  20.516  0.1632  0.4314  0.1299
36022DPPC   GL142888  10.461   3.231  20.166  0.4630 -0.3334  0.1608
36022DPPC   GL242889  10.397   3.537  20.314 -0.0227 -0.1767  0.1915
36022DPPC   C1A42890  10.422   3.304  19.801  0.4278  0.1623 -0.0214
36022DPPC   C2A42891  10.532   3.339  19.395  0.2328  0.0684  0.1588
36022DPPC   C3A42892  10.482   3.348  18.961 -0.5215 -0.2145 -0.1337
36022DPPC   C4A42893  10.507   3.434  18.426 -0.1885 -0.0140  0.1220
36022DPPC   C1B42894  10.476   3.766  20.082 -0.0697 -0.0791  0.1714
36022DPPC   C2B42895  10.528   3.787  19.672 -0.2172  0.0747 -0.1243
36022DPPC   C3B42896  10.475   3.786  19.191 -0.2537  0.1714 -0.0034
36022DPPC   C4B42897  10.543   3.872  18.778  0.2079 -0.0787  0.3612
36023DPPC   NC342898  15.847   2.948  20.626 -0.1955  0.0082  0.0642
36023DPPC   PO442899  15.484   2.919  20.456  0.0378 -0.3858  0.0933
36023DPPC   GL142900  15.430   3.075  20.025  0.0886  0.2813 -0.1284
36023DPPC   GL242901  15.187   2.780  20.096 -0.0138 -0.1117 -0.0287
36023DPPC   C1A42902  15.493   3.090  19.630 -0.1652 -0.0078 -0.2717
36023DPPC   C2A42903  15.504   3.046  19.202 -0.2011 -0.0237  0.0891
36023DPPC   C3A42904  15.428   3.029  18.763 -0.0091  0.2412 -0.0495
36023DPPC   C4A42905  15.424   3.085  18.274  0.0009  0.0228 -0.0984
36023DPPC   C1B42906  15.145   2.730  19.719 -0.1866  0.2276 -0.1144
36023DPPC   C2B42907  15.075   2.757  19.288  0.1133 -0.1902  0.2237
36023DPPC   C3B42908  15.036   2.735  18.824  0.0221  0.1497 -0.0511
36023DPPC   C4B42909  14.943   2.690  18.348 -0.1978 -0.1031  0.1601
36024DPPC   NC342910  14.416   5.778  20.612  0.0266  0.1843 -0.3703
36024DPPC   PO442911  14.724   5.956  20.574 -0.2036  0.0202 -0.0126
36024DPPC   GL142912  14.771   5.939  20.192 -0.1438  0.0753 -0.0899
36024DPPC   GL242913  14.845   6.190  20.100  0.2182  0.0375 -0.1339
36024DPPC   C1A42914  14.732   5.705  19.889  0.2912 -0.0495  0.0688
36024DPPC   C2A42915  14.645   5.705  19.471 -0.0062 -0.1013  0.2352
36024DPPC   C3A42916  14.628   5.660  18.977 -0.0167  0.0764 -0.1418
36024DPPC   C4A42917  14.513   5.728  18.553  0.0736  0.1572 -0.1622
36024DPPC   C1B42918  14.737   6.282  19.732  0.2422  0.0731  0.2707
36024DPPC   C2B42919  14.586   6.305  19.349  0.0273 -0.0311  0.2639
36024DPPC   C3B42920  14.553   6.241  18.827 -0.0339  0.0773  0.0804
36024DPPC   C4B42921  14.676   6.158  18.288  0.0429  0.2094 -0.0314
36025DPPC   NC342922  15.927   4.722  21.062 -0.1190  0.1414  0.0195
36025DPPC   PO442923  15.840   4.926  20.670 -0.3460 -0.0104 -0.0213
36025DPPC   GL142924  15.812   4.813  20.253  0.1938  0.2127 -0.1081
36025DPPC   GL242925  16.054   4.878  20.174 -0.0004  0.2211  0.2398
36025DPPC   C1A42926  15.612   4.679  19.989  0.1532 -0.0373  0.1125
36025DPPC   C2A42927  15.294   4.521  19.731 -0.0483  0.0414  0.1828
36025DPPC   C3A42928  15.285   4.500  19.246 -0.0477 -0.2673 -0.1280
36025DPPC   C4A42929  15.156   4.601  18.776 -0.2461  0.2368 -0.0268
36025DPPC   C1B42930  16.085   4.720  19.839 -0.0237  0.0054  0.0383
36025DPPC   C2B42931  16.138   4.681  19.468  0.5185 -0.1432  0.1565
36025DPPC   C3B42932  16.103   4.648  19.011 -0.1738  0.0718 -0.0603
36025DPPC   C4B42933  16.120   4.644  18.522 -0.1530 -0.2160 -0.0061
36026DPPC   NC342934  12.060   2.391  20.590 -0.0671  0.0854 -0.0791
36026DPPC   PO442935  12.406   2.208  20.524  0.0728 -0.1009  0.1109
36026DPPC   GL142936  12.586   2.384  20.176  0.0587  0.0547 -0.2411
36026DPPC   GL242937  12.660   2.642  20.155  0.5825 -0.1308 -0.0624
36026DPPC   C1A42938  12.721   2.160  19.987  0.1697 -0.0092 -0.1668
36026DPPC   C2A42939  12.818   1.957  19.642  0.0520  0.1454  0.0626
36026DPPC   C3A42940  12.866   1.969  19.180  0.1201 -0.1408  0.2464
36026DPPC   C4A42941  12.849   1.979  18.695 -0.1711 -0.0753  0.0679
36026DPPC   C1B42942  12.853   2.598  19.842 -0.3863  0.3834 -0.2238
36026DPPC   C2B42943  12.803   2.507  19.437 -0.2454 -0.0832 -0.1223
36026DPPC   C3B42944  12.831   2.450  18.909 -0.0396  0.1601 -0.2930
36026DPPC   C4B42945  12.861   2.438  18.397  0.1665 -0.1285 -0.0605
36027DPPC   NC342946   9.949   0.443  20.560 -0.2169  0.3274  0.1270
36027DPPC   PO442947   9.581   0.560  20.471 -0.1495  0.0043 -0.0885
36027DPPC   GL142948   9.544   0.737  20.119  0.0628  0.1186  0.3324
36027DPPC   GL242949   9.682   0.451  20.080 -0.3579  0.0690  0.1531
36027DPPC   C1A42950   9.631   0.863  19.773  0.2699  0.2341 -0.4819
36027DPPC   C2A42951   9.518   0.898  19.367  0.1943  0.0645  0.0020
36027DPPC   C3A42952   9.522   0.852  18.880 -0.1097  0.0539  0.1998
36027DPPC   C4A42953   9.511   0.830  18.385  0.1894 -0.3731 -0.3581
36027DPPC   C1B42954   9.620   0.322  19.711  0.1619  0.1501 -0.0360
36027DPPC   C2B42955   9.564   0.361  19.295 -0.0698 -0.0094  0.1834
36027DPPC   C3B42956   9.543   0.364  18.835 -0.0495  0.3071  0.1557
36027DPPC   C4B42957   9.576   0.327  18.362 -0.1111 -0.1909  0.0695
36028DPPC   NC342958  12.841   4.525  20.836  0.0755 -0.0653  0.1354
36028DPPC   PO442959  12.590   4.861  20.846  0.0556 -0.1736 -0.3575
36028DPPC   GL142960  12.334   4.724  20.557  0.1550 -0.2934 -0.1635
36028DPPC   GL242961  12.476   4.552  20.406 -0.1709  0.0995 -0.2539
36028DPPC   C1A42962  12.345   4.869  20.194 -0.1550 -0.0268 -0.1083
36028DPPC   C2A42963  12.404   5.001  19.862  0.0579 -0.3026 -0.0401
36028DPPC   C3A42964  12.470   5.001  19.404 -0.0316 -0.1809  0.1261
36028DPPC   C4A42965  12.531   5.031  18.905 -0.0981  0.0577  0.2718
36028DPPC   C1B42966  12.510   4.477  20.032 -0.2573 -0.3645 -0.5004
36028DPPC   C2B42967  12.535   4.465  19.604 -0.1815 -0.1356 -0.3780
36028DPPC   C3B42968  12.527   4.611  19.132 -0.0311  0.0625  0.0041
36028DPPC   C4B42969  12.629   4.612  18.607 -0.1507  0.0486 -0.1340
36029DPPC   NC342970  12.543   5.998  20.672  0.1330  0.1549 -0.0661
36029DPPC   PO442971  12.791   5.694  20.691  0.0949  0.1992 -0.2628
36029DPPC   GL142972  12.855   5.522  20.389  0.0244 -0.1572 -0.1593
36029DPPC   GL242973  13.102   5.336  20.462 -0.3201 -0.1312  0.1033
36029DPPC   C1A42974  12.920   5.664  20.010  0.0297  0.0284 -0.2488
36029DPPC   C2A42975  12.845   5.815  19.594 -0.0182  0.0908  0.0808
36029DPPC   C3A42976  12.808   5.749  19.080 -0.2414  0.1002  0.1213
36029DPPC   C4A42977  12.840   5.779  18.582 -0.0774  0.2665 -0.0931
36029DPPC   C1B42978  13.019   5.206  20.104  0.0559  0.1093 -0.0339
36029DPPC   C2B42979  12.918   5.204  19.687 -0.0092 -0.1791  0.2364
36029DPPC   C3B42980  12.809   5.299  19.203  0.0124 -0.1921 -0.2221
36029DPPC   C4B42981  12.882   5.252  18.688 -0.1113  0.2083 -0.0148
36030DPPC   NC342982   9.587   3.222  20.766  0.2540  0.1448 -0.0355
36030DPPC   PO442983   9.863   2.982  20.592  0.0698  0.2286  0.1811
36030DPPC   GL142984  10.039   2.904  20.285 -0.0925  0.0972  0.1759
36030DPPC   GL242985   9.961   3.067  20.104 -0.1689 -0.0689  0.0720
36030DPPC   C1A42986  10.111   2.663  20.054  0.2363  0.0648  0.3442
36030DPPC   C2A42987  10.155   2.558  19.604  0.2634 -0.1577 -0.1188
36030DPPC   C3A42988  10.120   2.555  19.105 -0.0434  0.2140  0.2756
36030DPPC   C4A42989  10.124   2.564  18.633 -0.0457 -0.2698  0.0815
36030DPPC   C1B42990  10.093   2.990  19.742 -0.1072  0.0559 -0.1348
36030DPPC   C2B42991  10.144   2.995  19.338 -0.1388  0.0192 -0.0102
36030DPPC   C3B42992  10.082   3.065  18.894  0.2930 -0.2193  0.0098
36030DPPC   C4B42993  10.077   3.110  18.431 -0.0882  0.0499  0.1453
36031DPPC   NC342994  15.212   3.779  20.556  0.1376 -0.2223 -0.2353
36031DPPC   PO442995  14.859   3.810  20.674  0.4108  0.0392  0.0456
36031DPPC   GL142996  14.722   3.618  20.360 -0.0663 -0.2946 -0.1104
36031DPPC   GL242997  14.781   3.804  20.121 -0.0479 -0.1899 -0.0098
36031DPPC   C1A42998  14.602   3.317  20.157 -0.0549  0.0632 -0.2123
36031DPPC   C2A42999  14.639   3.403  19.719  0.0128  0.0069 -0.0693
36031DPPC   C3A43000  14.546   3.357  19.242 -0.0370 -0.1501 -0.0425
36031DPPC   C4A43001  14.505   3.338  18.742 -0.0035 -0.0072  0.1263
36031DPPC   C1B43002  14.539   3.811  19.842 -0.0172 -0.0343 -0.0006
36031DPPC   C2B43003  14.443   3.901  19.453 -0.1407 -0.2145 -0.0568
36031DPPC   C3B43004  14.535   3.827  19.023  0.0161 -0.1857 -0.0079
36031DPPC   C4B43005  14.461   3.858  18.566  0.1548 -0.1390 -0.0700
36032DPPC   NC343006  11.450   5.525  20.497 -0.0611  0.0011  0.0373
36032DPPC   PO443007  11.581   5.865  20.618  0.0922  0.1207 -0.3556
36032DPPC   GL143008  11.766   6.053  20.228  0.2908  0.2821  0.1807
36032DPPC   GL243009  11.877   5.797  20.271 -0.3306 -0.1219 -0.0884
36032DPPC   C1A43010  11.572   6.163  19.945 -0.2525 -0.0150  0.0237
36032DPPC   C2A43011  11.423   6.298  19.600 -0.0004 -0.1312  0.1772
36032DPPC   C3A43012  11.416   6.362  19.115 -0.0052 -0.4081 -0.1243
36032DPPC   C4A43013  11.386   6.376  18.642  0.1530  0.3354  0.0906
36032DPPC   C1B43014  11.931   5.667  19.892  0.0509 -0.0810  0.0357
36032DPPC   C2B43015  11.937   5.687  19.466 -0.4269  0.1690  0.0972
36032DPPC   C3B43016  11.929   5.696  19.013  0.1525  0.1299  0.1696
36032DPPC   C4B43017  11.969   5.686  18.520  0.2079 -0.1965  0.1504
36033DPPC   NC343018  16.096   4.587  20.504 -0.1705 -0.1468 -0.2994
36033DPPC   PO443019  15.777   4.435  20.692  0.0049  0.2994 -0.1497
36033DPPC   GL143020  15.526   4.401  20.349  0.1971 -0.0445 -0.1401
36033DPPC   GL243021  15.772   4.334  20.187 -0.0432 -0.1111  0.2855
36033DPPC   C1A43022  15.244   4.545  20.204  0.1023 -0.1519  0.3172
36033DPPC   C2A43023  14.887   4.652  19.993  0.0578 -0.0200 -0.1094
36033DPPC   C3A43024  14.789   4.769  19.535  0.0203  0.0553  0.0876
36033DPPC   C4A43025  14.714   4.799  19.082 -0.1233  0.4114  0.0283
36033DPPC   C1B43026  15.815   4.286  19.819  0.0692 -0.0363 -0.1866
36033DPPC   C2B43027  15.754   4.393  19.449  0.2766 -0.0619 -0.1435
36033DPPC   C3B43028  15.672   4.411  18.954 -0.3658  0.1029  0.2497
36033DPPC   C4B43029  15.673   4.372  18.488 -0.1191 -0.0604  0.0134
36034DPPC   NC343030  11.418   1.159  20.673  0.1623 -0.1556 -0.0685
36034DPPC   PO443031  11.658   1.428  20.586  0.2737 -0.1075 -0.2735
36034DPPC   GL143032  11.671   1.482  20.245  0.4295 -0.2225  0.0134
36034DPPC   GL243033  11.458   1.226  20.212 -0.1551  0.0492 -0.0524
36034DPPC   C1A43034  11.794   1.627  19.905  0.1163  0.0188 -0.2928
36034DPPC   C2A43035  11.978   1.817  19.572  0.0432 -0.0459 -0.2163
36034DPPC   C3A43036  11.960   1.923  19.175 -0.0080  0.2481 -0.1694
36034DPPC   C4A43037  11.854   1.936  18.715 -0.0646 -0.0149 -0.0057
36034DPPC   C1B43038  11.468   1.399  19.850  0.3532 -0.2327 -0.3582
36034DPPC   C2B43039  11.636   1.503  19.446 -0.2083  0.0447 -0.3131
36034DPPC   C3B43040  11.603   1.584  18.947  0.1087  0.2423  0.0969
36034DPPC   C4B43041  11.573   1.566  18.488 -0.0245  0.0728 -0.0568
36035DPPC   NC343042   9.061   6.480  20.768  0.0544  0.1770  0.1796
36035DPPC   PO443043   9.200   6.218  20.494 -0.0391 -0.1329  0.3894
36035DPPC   GL143044   9.461   6.280  20.221  0.1616 -0.1392 -0.3379
36035DPPC   GL243045   9.393   6.032  20.100 -0.2019 -0.1991 -0.0943
36035DPPC   C1A43046   9.567   6.491  19.945  0.0813  0.1661 -0.0889
36035DPPC   C2A43047   9.673   6.495  19.561 -0.1018  0.0024  0.3355
36035DPPC   C3A43048   9.666   6.468  19.105 -0.2183  0.0891  0.1319
36035DPPC   C4A43049   9.665   6.459  18.646 -0.0557  0.1389 -0.2144
36035DPPC   C1B43050   9.621   5.997  19.790  0.0350 -0.0386 -0.3199
36035DPPC   C2B43051   9.776   6.031  19.442  0.0757 -0.1774 -0.0485
36035DPPC   C3B43052   9.778   5.965  18.991 -0.0242 -0.1361 -0.1136
36035DPPC   C4B43053   9.783   6.009  18.496  0.0275 -0.0877  0.1798
36036DPPC   NC343054  13.297   6.546  20.654 -0.1804  0.2112 -0.3931
36036DPPC   PO443055  12.998   6.286  20.698  0.0140  0.0347 -0.1754
36036DPPC   GL143056  12.904   6.188  20.248 -0.3510 -0.1074 -0.2287
36036DPPC   GL243057  12.809   5.985  20.298 -0.2339  0.2958 -0.0690
36036DPPC   C1A43058  13.009   6.160  19.896 -0.1933  0.1765  0.0305
36036DPPC   C2A43059  13.261   6.165  19.574  0.1477 -0.1410 -0.1097
36036DPPC   C3A43060  13.322   6.200  19.081 -0.0775 -0.4309  0.2529
36036DPPC   C4A43061  13.217   6.156  18.595  0.3798 -0.1363  0.0188
36036DPPC   C1B43062  12.550   5.922  20.015  0.1447 -0.2540  0.1676
36036DPPC   C2B43063  12.379   5.968  19.639 -0.2309  0.0820  0.2107
36036DPPC   C3B43064  12.342   5.985  19.213  0.0449  0.0587  0.1068
36036DPPC   C4B43065  12.380   5.972  18.744  0.0778  0.3570  0.0470
36037DPPC   NC343066  15.203   6.164  20.463  0.0450  0.4192  0.1945
36037DPPC   PO443067  15.217   6.534  20.421 -0.0770 -0.0299  0.0217
36037DPPC   GL143068  15.203   6.373  19.934 -0.0879 -0.0039 -0.0526
36037DPPC   GL243069  15.096   6.577  20.080  0.0568  0.1640 -0.0060
36037DPPC   C1A43070  15.086   6.471  19.633  0.1056 -0.0086  0.2896
36037DPPC   C2A43071  14.992   6.533  19.228 -0.1186 -0.3357 -0.1907
36037DPPC   C3A43072  14.910   6.599  18.825  0.0596 -0.1812 -0.1704
36037DPPC   C4A43073  14.955   6.577  18.379 -0.1813 -0.1228 -0.2357
36037DPPC   C1B43074  15.220   6.914  19.916 -0.1549  0.0690 -0.1354
36037DPPC   C2B43075  15.341   6.943  19.485 -0.0468  0.1485 -0.1330
36037DPPC   C3B43076  15.393   6.924  19.055 -0.1086  0.1429  0.2649
36037DPPC   C4B43077  15.441   6.893  18.590 -0.2289 -0.3494 -0.0689
36038DPPC   NC343078  13.165   0.573  21.092 -0.1321  0.0332 -0.0488
36038DPPC   PO443079  13.230   0.406  20.693 -0.0809  0.2743 -0.0440
36038DPPC   GL143080  13.427   0.391  20.311  0.1257 -0.2083 -0.1397
36038DPPC   GL243081  13.639   0.269  20.402  0.7311 -0.0197  0.0470
36038DPPC   C1A43082  13.456   0.407  19.902  0.0592 -0.0425 -0.1694
36038DPPC   C2A43083  13.553   0.504  19.469 -0.0584  0.1676 -0.2172
36038DPPC   C3A43084  13.618   0.347  18.982  0.0924 -0.1786  0.0126
36038DPPC   C4A43085  13.601   0.320  18.525 -0.0331 -0.3191 -0.1819
36038DPPC   C1B43086  13.657   0.111  20.106 -0.1491  0.0055  0.0552
36038DPPC   C2B43087  13.621   0.025  19.717  0.1070  0.0176  0.0410
36038DPPC   C3B43088  13.694  -0.098  19.270 -0.1433 -0.0187 -0.1247
36038DPPC   C4B43089  13.651  -0.117  18.778 -0.1882 -0.0278  0.0939
36039DPPC   NC343090   9.391   5.493  20.974  0.2123 -0.1285 -0.1410
36039DPPC   PO443091   9.266   5.164  20.754 -0.1780 -0.0249 -0.0816
36039DPPC   GL143092   9.118   5.242  20.420  0.1809  0.0033  0.2126
36039DPPC   GL243093   9.383   5.410  20.339  0.0175  0.0491 -0.2416
36039DPPC   C1A43094   8.899   5.080  20.117 -0.2964  0.1796 -0.2085
36039DPPC   C2A43095   9.034   4.906  19.723  0.1524 -0.3307 -0.2115
36039DPPC   C3A43096   9.005   4.887  19.300  0.2502 -0.0802  0.1364
36039DPPC   C4A43097   9.048   4.876  18.807  0.1856 -0.0889 -0.0082
36039DPPC   C1B43098   9.348   5.616  20.048 -0.0494  0.0181 -0.0015
36039DPPC   C2B43099   9.323   5.678  19.660 -0.3306  0.1233 -0.2412
36039DPPC   C3B43100   9.328   5.675  19.187  0.0877 -0.0832  0.1450
36039DPPC   C4B43101   9.284   5.646  18.704 -0.2079 -0.1115 -0.0043
36040DPPC   NC343102  14.322   1.535  21.055  0.3868  0.0197 -0.3231
36040DPPC   PO443103  14.377   1.321  20.756 -0.3299 -0.1920  0.0064
36040DPPC   GL143104  14.229   1.153  20.479 -0.0802  0.4608  0.4060
36040DPPC   GL243105  14.234   1.433  20.386 -0.2052  0.0128  0.0041
36040DPPC   C1A43106  14.332   0.985  20.156 -0.0906  0.2274 -0.0117
36040DPPC   C2A43107  14.424   0.773  19.817  0.0443 -0.0328 -0.1405
36040DPPC   C3A43108  14.484   0.627  19.369 -0.1783 -0.2118 -0.1242
36040DPPC   C4A43109  14.496   0.618  18.892 -0.4527  0.0358 -0.1331
36040DPPC   C1B43110  14.287   1.421  20.035 -0.1424 -0.0533  0.2921
36040DPPC   C2B43111  14.395   1.214  19.654  0.0285  0.3195 -0.2294
36040DPPC   C3B43112  14.447   1.116  19.183 -0.0897  0.0602 -0.2521
36040DPPC   C4B43113  14.391   1.068  18.698 -0.1064  0.4569 -0.0587
36041DPPC   NC343114  11.130   2.044  20.452  0.0945  0.0375  0.3100
36041DPPC   PO443115  10.961   2.362  20.550  0.0839 -0.1148  0.3187
36041DPPC   GL143116  10.800   2.580  20.267  0.1037  0.1124  0.0667
36041DPPC   GL243117  11.019   2.734  20.113 -0.1379  0.2102 -0.1912
36041DPPC   C1A43118  10.583   2.733  20.025  0.0094 -0.0510 -0.0070
36041DPPC   C2A43119  10.583   2.807  19.588 -0.0824  0.0367  0.1157
36041DPPC   C3A43120  10.581   2.849  19.087  0.3146 -0.0974 -0.1926
36041DPPC   C4A43121  10.610   2.889  18.641  0.0073  0.0615 -0.0378
36041DPPC   C1B43122  11.067   2.739  19.781 -0.1601 -0.1682  0.1525
36041DPPC   C2B43123  10.994   2.733  19.352 -0.2662  0.1381  0.3731
36041DPPC   C3B43124  11.043   2.770  18.921 -0.2842 -0.0890 -0.0056
36041DPPC   C4B43125  11.072   2.697  18.414 -0.0515 -0.0006 -0.0863
36042DPPC   NC343126  12.096   4.188  20.919  0.1923 -0.0672 -0.1035
36042DPPC   PO443127  12.379   4.301  20.737  0.2212  0.0859  0.2663
36042DPPC   GL143128  12.378   4.115  20.339 -0.1686 -0.1255  0.1683
36042DPPC   GL243129  12.642   4.165  20.290  0.2675 -0.1650  0.2723
36042DPPC   C1A43130  12.233   4.102  19.977 -0.0149 -0.1240  0.2498
36042DPPC   C2A43131  12.143   4.157  19.577 -0.1212  0.0547 -0.1075
36042DPPC   C3A43132  12.204   4.203  19.078  0.0832 -0.1675 -0.0157
36042DPPC   C4A43133  11.997   4.232  18.579 -0.1551 -0.3829 -0.0309
36042DPPC   C1B43134  12.878   4.242  20.029  0.0640 -0.0188  0.0568
36042DPPC   C2B43135  13.033   4.327  19.632 -0.0423 -0.1126 -0.0776
36042DPPC   C3B43136  13.025   4.270  19.139 -0.2486  0.1122 -0.0973
36042DPPC   C4B43137  13.096   4.311  18.680  0.1764  0.1788  0.1099
36043DPPC   NC343138  13.863   5.944  20.558 -0.1616  0.0416  0.1012
36043DPPC   PO443139  13.607   5.640  20.431 -0.1818  0.0297  0.1972
36043DPPC   GL143140  13.382   5.603  20.102 -0.1860 -0.0890 -0.1915
36043DPPC   GL243141  13.465   5.847  20.066 -0.4079 -0.1365 -0.5026
36043DPPC   C1A43142  13.293   5.394  19.827 -0.2253 -0.0526  0.1363
36043DPPC   C2A43143  13.341   5.269  19.421  0.2750 -0.1032  0.0725
36043DPPC   C3A43144  13.356   5.214  18.968  0.1377  0.1518  0.0265
36043DPPC   C4A43145  13.334   5.166  18.492  0.2926 -0.2610  0.1650
36043DPPC   C1B43146  13.394   5.785  19.732 -0.2868 -0.4298 -0.3286
36043DPPC   C2B43147  13.347   5.735  19.316  0.3797 -0.0577 -0.1465
36043DPPC   C3B43148  13.353   5.711  18.784 -0.0116  0.1196 -0.1030
36043DPPC   C4B43149  13.317   5.641  18.295 -0.3879 -0.1743  0.0043
36044DPPC   NC343150  13.161   5.817  20.475 -0.2379  0.1026 -0.5429
36044DPPC   PO443151  13.425   6.096  20.410 -0.1247 -0.4089 -0.1142
36044DPPC   GL143152  13.445   6.310  20.109  0.1247  0.1070  0.0900
36044DPPC   GL243153  13.226   6.461  20.152 -0.2352  0.3394 -0.0965
36044DPPC   C1A43154  13.658   6.140  19.838 -0.1514 -0.3547 -0.2631
36044DPPC   C2A43155  13.718   6.031  19.457  0.0240 -0.2742 -0.3207
36044DPPC   C3A43156  13.783   6.064  19.013 -0.1371  0.2224 -0.2456
36044DPPC   C4A43157  13.693   6.009  18.520 -0.1333  0.1237  0.1248
36044DPPC   C1B43158  13.179   6.586  19.811  0.2966  0.0189  0.4201
36044DPPC   C2B43159  13.195   6.619  19.391  0.0038  0.3713 -0.2258
36044DPPC   C3B43160  13.224   6.671  18.934  0.1703 -0.1927 -0.0918
36044DPPC   C4B43161  13.131   6.698  18.445  0.1773  0.1356  0.0754
36045DPPC   NC343162  11.086   4.959  20.934  0.0596 -0.2049  0.3889
36045DPPC   PO443163  11.062   5.178  20.600  0.0548 -0.1475 -0.1227
36045DPPC   GL143164  10.822   5.315  20.259  0.3404  0.3309  0.1320
36045DPPC   GL243165  11.081   5.533  20.270  0.6222  0.0272 -0.1003
36045DPPC   C1A43166  10.701   5.264  19.919 -0.2439 -0.2095  0.1406
36045DPPC   C2A43167  10.710   5.068  19.551 -0.0985 -0.0743 -0.3498
36045DPPC   C3A43168  10.734   5.122  19.102 -0.2443 -0.1777  0.5777
36045DPPC   C4A43169  10.707   5.179  18.623 -0.2111  0.0327  0.0299
36045DPPC   C1B43170  11.274   5.646  20.015 -0.3435 -0.0403  0.0249
36045DPPC   C2B43171  11.488   5.740  19.681  0.1063 -0.0340 -0.0795
36045DPPC   C3B43172  11.483   5.881  19.212  0.2431 -0.0916 -0.0599
36045DPPC   C4B43173  11.538   5.863  18.743  0.2873  0.3205 -0.1624
36046DPPC   NC343174  13.055   3.783  21.081 -0.1770 -0.0073  0.0819
36046DPPC   PO443175  13.162   4.152  20.941  0.0018 -0.2624  0.3459
36046DPPC   GL143176  13.340   4.163  20.538  0.1265  0.2459  0.1552
36046DPPC   GL243177  13.589   4.164  20.593  0.0396  0.2736  0.0175
36046DPPC   C1A43178  13.238   4.058  20.167 -0.0510 -0.0810  0.0774
36046DPPC   C2A43179  13.084   3.900  19.810 -0.1157  0.3499  0.1044
36046DPPC   C3A43180  13.120   3.821  19.356 -0.2211  0.1986 -0.0368
36046DPPC   C4A43181  13.111   3.866  18.884 -0.3207 -0.0790  0.0288
36046DPPC   C1B43182  13.725   4.094  20.224 -0.1635 -0.2542  0.2014
36046DPPC   C2B43183  13.577   4.179  19.821 -0.0520  0.0261 -0.1830
36046DPPC   C3B43184  13.526   4.208  19.338 -0.2717  0.1581  0.0748
36046DPPC   C4B43185  13.527   4.228  18.896 -0.0811  0.0666 -0.0463
36047DPPC   NC343186  12.874   5.314  20.974  0.2447 -0.0911  0.1467
36047DPPC   PO443187  13.090   5.017  20.831 -0.0028 -0.0630 -0.0068
36047DPPC   GL143188  12.881   4.869  20.546 -0.2934  0.1874 -0.2177
36047DPPC   GL243189  12.741   5.094  20.499 -0.1275 -0.0700  0.0599
36047DPPC   C1A43190  12.832   4.730  20.252  0.0102  0.0347  0.3308
36047DPPC   C2A43191  12.888   4.739  19.866  0.0673 -0.1391  0.0200
36047DPPC   C3A43192  12.957   4.725  19.369 -0.3174 -0.3127  0.0741
36047DPPC   C4A43193  12.977   4.802  18.940 -0.1139  0.2798 -0.1265
36047DPPC   C1B43194  12.557   5.304  20.188 -0.0873  0.1767  0.1484
36047DPPC   C2B43195  12.529   5.503  19.858 -0.0173 -0.1675 -0.2610
36047DPPC   C3B43196  12.401   5.511  19.341  0.1083  0.3240 -0.0805
36047DPPC   C4B43197  12.373   5.498  18.882  0.0673  0.0473  0.3495
36048DPPC   NC343198  11.476   3.610  20.901  0.0533  0.2301  0.1146
36048DPPC   PO443199  11.791   3.815  20.761  0.2019 -0.2907  0.0954
36048DPPC   GL143200  11.954   4.054  20.499 -0.1401  0.3416  0.0398
36048DPPC   GL243201  11.945   4.299  20.525  0.2881 -0.0089  0.2958
36048DPPC   C1A43202  11.901   3.887  20.170 -0.0218 -0.0783  0.1435
36048DPPC   C2A43203  11.820   3.820  19.784  0.2846 -0.3438  0.1866
36048DPPC   C3A43204  11.834   3.851  19.327  0.1182  0.2095 -0.2023
36048DPPC   C4A43205  11.841   3.880  18.852 -0.3372  0.0298 -0.0756
36048DPPC   C1B43206  12.059   4.417  20.148 -0.0362 -0.0497 -0.5162
36048DPPC   C2B43207  12.114   4.611  19.827  0.0109  0.0646  0.2650
36048DPPC   C3B43208  12.036   4.675  19.343 -0.1618 -0.0275  0.2599
36048DPPC   C4B43209  12.094   4.764  18.869  0.0256 -0.2526  0.2568
36049DPPC   NC343210  10.701   5.510  20.713  0.2637  0.0476  0.3614
36049DPPC   PO443211  10.886   5.839  20.589 -0.1060  0.0876 -0.0269
36049DPPC   GL143212  10.797   5.920  20.131 -0.1340  0.2618 -0.1525
36049DPPC   GL243213  10.646   5.705  20.121 -0.0078 -0.1127  0.2884
36049DPPC   C1A43214  10.998   5.893  19.837 -0.1669  0.0988  0.1382
36049DPPC   C2A43215  11.038   5.989  19.440 -0.3019 -0.1132  0.0327
36049DPPC   C3A43216  11.048   6.025  18.940  0.1067 -0.1719 -0.0459
36049DPPC   C4A43217  11.023   5.994  18.461  0.0134 -0.0849  0.0063
36049DPPC   C1B43218  10.641   5.586  19.726  0.2116 -0.3882 -0.1374
36049DPPC   C2B43219  10.705   5.564  19.367  0.1167  0.1187  0.0228
36049DPPC   C3B43220  10.698   5.587  18.902  0.3028 -0.0467 -0.1842
36049DPPC   C4B43221  10.622   5.679  18.416  0.3207  0.1110 -0.1542
36050DPPC   NC343222  14.148   0.956  20.955  0.2641 -0.1301  0.0737
36050DPPC   PO443223  13.859   1.031  20.726  0.1028  0.1595  0.0348
36050DPPC   GL143224  13.782   1.266  20.446 -0.2538 -0.3520 -0.2419
36050DPPC   GL243225  13.536   1.169  20.307  0.0687  0.0383 -0.0598
36050DPPC   C1A43226  13.922   1.156  20.146  0.3025 -0.1494  0.2031
36050DPPC   C2A43227  13.932   0.991  19.728 -0.0071  0.1106 -0.2704
36050DPPC   C3A43228  14.056   0.886  19.266  0.1084  0.1702 -0.4983
36050DPPC   C4A43229  13.995   0.744  18.837 -0.4706  0.4230 -0.1348
36050DPPC   C1B43230  13.538   1.086  19.935  0.2696  0.4403  0.0853
36050DPPC   C2B43231  13.507   1.002  19.545  0.3837 -0.0526 -0.1733
36050DPPC   C3B43232  13.536   0.868  19.073  0.1250  0.1548  0.0613
36050DPPC   C4B43233  13.514   0.811  18.523 -0.2458  0.2315 -0.3521
36051DPPC   NC343234  13.799   6.376  21.140 -0.2692  0.0315  0.2926
36051DPPC   PO443235  13.788   6.454  20.720 -0.3246  0.0175 -0.1296
36051DPPC   GL143236  14.028   6.572  20.358  0.1429  0.1303 -0.2220
36051DPPC   GL243237  13.933   6.340  20.259 -0.0742 -0.1322 -0.1202
36051DPPC   C1A43238  14.013   6.878  20.093 -0.0553 -0.0883 -0.0063
36051DPPC   C2A43239  13.996   7.026  19.660 -0.0301 -0.2059 -0.1713
36051DPPC   C3A43240  14.076   6.964  19.196 -0.0130 -0.0049 -0.2538
36051DPPC   C4A43241  14.059   6.873  18.722 -0.1454 -0.0126 -0.0098
36051DPPC   C1B43242  14.072   6.342  19.875  0.1451 -0.2093 -0.0451
36051DPPC   C2B43243  14.117   6.382  19.470  0.0999 -0.1247 -0.0024
36051DPPC   C3B43244  14.125   6.460  18.994 -0.2950 -0.0144 -0.0853
36051DPPC   C4B43245  14.085   6.325  18.522 -0.3384 -0.2710 -0.2502
36052DPPC   NC343246  10.259   4.722  20.400 -0.2807 -0.0739  0.0175
36052DPPC   PO443247  10.572   4.471  20.454  0.0142 -0.2160 -0.1386
36052DPPC   GL143248  10.681   4.503  20.075 -0.0131 -0.3167 -0.1355
36052DPPC   GL243249  10.717   4.237  19.961  0.3556 -0.2061 -0.1342
36052DPPC   C1A43250  10.725   4.636  19.734 -0.0113  0.1049 -0.1479
36052DPPC   C2A43251  10.745   4.641  19.339 -0.1693  0.1690  0.2983
36052DPPC   C3A43252  10.743   4.629  18.873 -0.1248  0.1187  0.1190
36052DPPC   C4A43253  10.765   4.752  18.396 -0.3484 -0.3330 -0.3973
36052DPPC   C1B43254  10.839   4.127  19.619  0.3233 -0.0488 -0.1931
36052DPPC   C2B43255  10.870   4.147  19.224  0.0623  0.2291  0.0541
36052DPPC   C3B43256  10.951   4.213  18.722 -0.0789  0.1284  0.1521
36052DPPC   C4B43257  10.807   4.204  18.245 -0.1405  0.2604 -0.0384
36053DPPC   NC343258  13.913   2.000  20.643  0.1114  0.1091 -0.2274
36053DPPC   PO443259  13.893   1.734  20.360  0.0964  0.1189 -0.0438
36053DPPC   GL143260  13.951   1.793  19.889 -0.3272 -0.2297 -0.0720
36053DPPC   GL243261  14.254   1.875  20.004  0.0458  0.3372 -0.1635
36053DPPC   C1A43262  13.838   1.770  19.549 -0.2244  0.1957 -0.0011
36053DPPC   C2A43263  13.745   1.768  19.148 -0.1054  0.1005 -0.1715
36053DPPC   C3A43264  13.874   1.805  18.716  0.0753  0.0402 -0.0073
36053DPPC   C4A43265  13.812   1.814  18.169  0.2923 -0.1448 -0.1559
36053DPPC   C1B43266  14.344   1.744  19.669  0.5492 -0.2879  0.1158
36053DPPC   C2B43267  14.316   1.625  19.253  0.1703  0.1743 -0.1863
36053DPPC   C3B43268  14.325   1.577  18.768  0.1391 -0.1100 -0.2873
36053DPPC   C4B43269  14.236   1.625  18.318  0.0532  0.0591  0.0425
36054DPPC   NC343270  12.596   1.289  20.483 -0.0580 -0.2069  0.1500
36054DPPC   PO443271  12.543   1.675  20.598  0.0376 -0.3957 -0.3367
36054DPPC   GL143272  12.484   1.898  20.225  0.2163  0.3361  0.0086
36054DPPC   GL243273  12.712   1.732  20.124  0.2733  0.0160  0.0750
36054DPPC   C1A43274  12.303   2.071  19.998 -0.2677 -0.0215  0.2889
36054DPPC   C2A43275  12.353   2.216  19.609  0.0985  0.3620 -0.1195
36054DPPC   C3A43276  12.411   2.234  19.127  0.2581  0.0286 -0.1824
36054DPPC   C4A43277  12.381   2.218  18.664  0.0530  0.0383 -0.0042
36054DPPC   C1B43278  12.697   1.351  19.982 -0.2903 -0.2572  0.0374
36054DPPC   C2B43279  12.538   1.186  19.678  0.0200  0.0058  0.0629
36054DPPC   C3B43280  12.566   1.194  19.217  0.2546  0.1924 -0.1341
36054DPPC   C4B43281  12.577   1.253  18.725  0.0076  0.0886 -0.0073
36055DPPC   NC343282  13.463   4.675  20.746 -0.1139 -0.0184 -0.1333
36055DPPC   PO443283  13.631   4.997  20.849  0.0138  0.0200  0.2997
36055DPPC   GL143284  13.526   5.198  20.473  0.1718  0.0885 -0.0526
36055DPPC   GL243285  13.348   4.960  20.356  0.0237  0.2465  0.0431
36055DPPC   C1A43286  13.669   5.192  20.138  0.0488 -0.1174  0.0335
36055DPPC   C2A43287  13.923   5.098  19.860  0.2791 -0.1380 -0.0605
36055DPPC   C3A43288  13.800   4.975  19.401  0.0571  0.1883 -0.4077
36055DPPC   C4A43289  13.792   4.950  18.923  0.0289  0.0887  0.0147
36055DPPC   C1B43290  13.364   4.898  20.014 -0.2073 -0.0232 -0.0543
36055DPPC   C2B43291  13.406   4.760  19.588  0.1339 -0.1238  0.0529
36055DPPC   C3B43292  13.404   4.670  19.152 -0.0551 -0.1880  0.0448
36055DPPC   C4B43293  13.427   4.706  18.656 -0.2089  0.1275  0.0324
36056DPPC   NC343294   9.712   6.309  20.635  0.0627 -0.2430 -0.0550
36056DPPC   PO443295   9.534   6.667  20.603  0.1064  0.3513  0.3421
36056DPPC   GL143296   9.253   6.844  20.271  0.1769 -0.0839 -0.2950
36056DPPC   GL243297   9.159   6.642  20.178 -0.3426 -0.0887  0.0049
36056DPPC   C1A43298   9.252   7.045  19.974  0.1065  0.1670 -0.0169
36056DPPC   C2A43299   9.173   7.160  19.576  0.1494  0.2743  0.1482
36056DPPC   C3A43300   9.112   7.139  19.137 -0.0556 -0.1189  0.2746
36056DPPC   C4A43301   9.087   7.024  18.636  0.1291  0.2256 -0.1570
36056DPPC   C1B43302   9.198   6.669  19.830  0.2466 -0.0924  0.2238
36056DPPC   C2B43303   9.215   6.626  19.412  0.0207 -0.2421 -0.0544
36056DPPC   C3B43304   9.209   6.635  18.922 -0.0611  0.2659 -0.2051
36056DPPC   C4B43305   9.223   6.599  18.390 -0.1260 -0.1032  0.3342
36057DPPC   NC343306  10.216   5.567  20.319 -0.1759  0.1653  0.0742
36057DPPC   PO443307  10.356   5.166  20.302 -0.1322  0.1018  0.1791
36057DPPC   GL143308  10.443   4.941  19.975 -0.1680  0.0196  0.1703
36057DPPC   GL243309  10.317   4.682  19.874 -0.1521  0.1451  0.2293
36057DPPC   C1A43310  10.269   5.185  19.743  0.1108  0.1886 -0.0587
36057DPPC   C2A43311  10.287   5.300  19.332 -0.0736 -0.2413 -0.0973
36057DPPC   C3A43312  10.288   5.342  18.876  0.0808 -0.0404 -0.1466
36057DPPC   C4A43313  10.292   5.335  18.410 -0.0881  0.1188  0.0246
36057DPPC   C1B43314  10.358   4.763  19.516 -0.1921  0.1715  0.1511
36057DPPC   C2B43315  10.323   4.845  19.109 -0.2707 -0.0488  0.1135
36057DPPC   C3B43316  10.323   4.853  18.632  0.2269 -0.0663  0.2769
36057DPPC   C4B43317  10.276   4.781  18.145 -0.3132  0.1384  0.0332
36058DPPC   NC343318  12.422   0.318  20.451 -0.0190  0.4914  0.3173
36058DPPC   PO443319  12.135   0.034  20.334  0.1741 -0.1002  0.2053
36058DPPC   GL143320  12.274   0.058  19.984 -0.0266  0.1878 -0.2704
36058DPPC   GL243321  12.140   0.303  19.893 -0.1229 -0.0004 -0.2543
36058DPPC   C1A43322  12.186  -0.136  19.677 -0.4599 -0.1035  0.0361
36058DPPC   C2A43323  12.300  -0.103  19.295  0.3195 -0.0446 -0.1006
36058DPPC   C3A43324  12.301  -0.035  18.857  0.2453  0.1321  0.4058
36058DPPC   C4A43325  12.229  -0.066  18.391  0.1502 -0.2991  0.2521
36058DPPC   C1B43326  12.156   0.359  19.555  0.1495 -0.1568 -0.1880
36058DPPC   C2B43327  12.181   0.360  19.142 -0.2033 -0.1090  0.0110
36058DPPC   C3B43328  12.207   0.393  18.687 -0.0121 -0.1690  0.2251
36058DPPC   C4B43329  12.166   0.400  18.231 -0.0724 -0.4494 -0.1572
36059DPPC   NC343330  11.005   4.229  20.647  0.1102 -0.2146 -0.0159
36059DPPC   PO443331  11.040   4.621  20.585  0.3279 -0.3428 -0.0290
36059DPPC   GL143332  11.133   4.423  20.168  0.1681  0.0165  0.0325
36059DPPC   GL243333  11.255   4.734  20.065  0.0285  0.1551 -0.1053
36059DPPC   C1A43334  11.169   4.372  19.820 -0.0277  0.2073 -0.5837
36059DPPC   C2A43335  11.227   4.478  19.434  0.0852  0.1030 -0.0322
36059DPPC   C3A43336  11.196   4.551  19.017 -0.2990  0.0675 -0.0245
36059DPPC   C4A43337  11.235   4.617  18.560 -0.2368 -0.5170 -0.0229
36059DPPC   C1B43338  11.196   4.827  19.716 -0.3556  0.1641 -0.3017
36059DPPC   C2B43339  11.152   4.975  19.309 -0.0357  0.0075 -0.3945
36059DPPC   C3B43340  11.185   5.036  18.851 -0.1233 -0.0129  0.0289
36059DPPC   C4B43341  11.184   5.103  18.346 -0.2797  0.0894  0.2632
36060DPPC   NC343342  11.141   0.225  20.675 -0.1291  0.3285 -0.1186
36060DPPC   PO443343  11.135  -0.131  20.552  0.1587  0.2251  0.3625
36060DPPC   GL143344  11.256  -0.022  20.122 -0.1212 -0.0508  0.1426
36060DPPC   GL243345  11.150  -0.238  20.012 -0.3502  0.0479 -0.2383
36060DPPC   C1A43346  11.325   0.197  19.805 -0.6179  0.3048 -0.0037
36060DPPC   C2A43347  11.399   0.217  19.401  0.2224 -0.2634  0.0749
36060DPPC   C3A43348  11.373   0.251  18.897  0.0638 -0.1350  0.2169
36060DPPC   C4A43349  11.297   0.182  18.438 -0.0905  0.0781 -0.3573
36060DPPC   C1B43350  10.986  -0.135  19.707 -0.0088 -0.0701 -0.1756
36060DPPC   C2B43351  10.979  -0.128  19.301  0.3490  0.1993  0.2767
36060DPPC   C3B43352  10.927  -0.106  18.837 -0.0581  0.1664 -0.1444
36060DPPC   C4B43353  10.853  -0.018  18.372  0.2109  0.3507  0.1682
36061DPPC   NC343354  11.983   0.557  20.543 -0.1297  0.0177  0.1656
36061DPPC   PO443355  12.326   0.787  20.526 -0.2566  0.3416  0.1945
36061DPPC   GL143356  12.381   0.620  20.119 -0.2674  0.3888  0.0549
36061DPPC   GL243357  12.047   0.696  20.111  0.0212 -0.0714 -0.0768
36061DPPC   C1A43358  12.427   0.611  19.766  0.0298  0.0837  0.1064
36061DPPC   C2A43359  12.645   0.623  19.444  0.2103  0.0870 -0.0527
36061DPPC   C3A43360  12.572   0.666  18.989  0.1782 -0.1617  0.0661
36061DPPC   C4A43361  12.607   0.749  18.561  0.0587 -0.1198  0.0844
36061DPPC   C1B43362  12.062   0.830  19.776 -0.1238 -0.1740 -0.3609
36061DPPC   C2B43363  12.198   0.868  19.390 -0.3299  0.2910  0.0002
36061DPPC   C3B43364  12.144   0.948  18.889  0.2997 -0.2575 -0.1546
36061DPPC   C4B43365  12.215   0.937  18.396 -0.2706  0.0980  0.3379
36062DPPC   NC343366  16.115   2.397  20.211  0.1544 -0.0444 -0.1343
36062DPPC   PO443367  15.924   2.416  20.553 -0.1027 -0.1761 -0.3883
36062DPPC   GL143368  15.803   2.739  20.232  0.1693 -0.2240  0.1570
36062DPPC   GL243369  16.042   2.858  20.131 -0.2212  0.0707  0.0883
36062DPPC   C1A43370  15.617   2.653  19.921 -0.0020 -0.0317  0.1015
36062DPPC   C2A43371  15.564   2.600  19.492 -0.2358  0.0522  0.1054
36062DPPC   C3A43372  15.531   2.600  18.957 -0.0136  0.1707 -0.0729
36062DPPC   C4A43373  15.497   2.586  18.482  0.2900  0.0252  0.0765
36062DPPC   C1B43374  16.076   2.855  19.795  0.3150  0.0497 -0.0316
36062DPPC   C2B43375  15.977   2.919  19.406 -0.0775  0.1218  0.0271
36062DPPC   C3B43376  15.963   2.927  18.900 -0.2374 -0.2483  0.0607
36062DPPC   C4B43377  15.913   2.891  18.409 -0.0797  0.0064 -0.3258
36063DPPC   NC343378  13.571   3.262  20.483  0.1968 -0.1568 -0.1201
36063DPPC   PO443379  13.302   2.981  20.478 -0.1456 -0.1520 -0.2671
36063DPPC   GL143380  13.290   2.980  20.099  0.0002 -0.1752  0.2435
36063DPPC   GL243381  13.058   2.750  20.143 -0.1210  0.1663 -0.0356
36063DPPC   C1A43382  13.302   2.829  19.751 -0.2143  0.2982 -0.1386
36063DPPC   C2A43383  13.289   2.845  19.333  0.2799 -0.0428 -0.2530
36063DPPC   C3A43384  13.218   2.828  18.855  0.3003 -0.1363 -0.2407
36063DPPC   C4A43385  13.240   2.877  18.365  0.2223  0.2284  0.3629
36063DPPC   C1B43386  13.160   2.394  20.083  0.5059  0.1201  0.2941
36063DPPC   C2B43387  13.198   2.333  19.675  0.0615  0.1706 -0.0698
36063DPPC   C3B43388  13.282   2.383  19.149  0.0036 -0.1143  0.0436
36063DPPC   C4B43389  13.305   2.381  18.666  0.1015 -0.0689 -0.2060
36064DPPC   NC343390  15.733   3.934  20.447  0.1227  0.0413 -0.0796
36064DPPC   PO443391  16.057   3.644  20.408 -0.0355 -0.1200 -0.2947
36064DPPC   GL143392  16.194   3.707  20.035 -0.2205 -0.0293  0.0310
36064DPPC   GL243393  15.924   3.890  20.017 -0.0866 -0.1326  0.1459
36064DPPC   C1A43394  16.323   3.611  19.751 -0.0989 -0.3355  0.1810
36064DPPC   C2A43395  16.319   3.685  19.359 -0.1127 -0.2783 -0.2444
36064DPPC   C3A43396  16.208   3.648  18.899 -0.0318  0.0805  0.1600
36064DPPC   C4A43397  16.151   3.649  18.433  0.0383  0.0468 -0.1802
36064DPPC   C1B43398  15.965   3.851  19.611  0.3086  0.0417  0.1277
36064DPPC   C2B43399  15.827   3.841  19.218  0.2421 -0.2132 -0.0820
36064DPPC   C3B43400  15.771   3.845  18.726 -0.1287 -0.0448  0.2937
36064DPPC   C4B43401  15.622   3.930  18.251 -0.1893 -0.1173  0.2394
36065DPPC   NC343402  14.641   3.136  20.603  0.1253  0.1008 -0.2732
36065DPPC   PO443403  14.473   2.780  20.673  0.3984  0.0622 -0.0810
36065DPPC   GL143404  14.458   2.652  20.283 -0.0377 -0.7359  0.0281
36065DPPC   GL243405  14.729   2.895  20.222 -0.1027 -0.0645 -0.0096
36065DPPC   C1A43406  14.212   2.548  19.982  0.0436 -0.0456  0.1955
36065DPPC   C2A43407  14.083   2.574  19.524  0.1407  0.0160 -0.1146
36065DPPC   C3A43408  14.120   2.545  19.081  0.0756  0.1109 -0.2167
36065DPPC   C4A43409  14.105   2.547  18.581 -0.1705  0.3776  0.0675
36065DPPC   C1B43410  14.762   2.811  19.909 -0.3308  0.1651 -0.0540
36065DPPC   C2B43411  14.636   2.897  19.542  0.1310  0.3259  0.0299
36065DPPC   C3B43412  14.601   2.888  19.025  0.0196  0.1999  0.0357
36065DPPC   C4B43413  14.486   2.893  18.507  0.0236 -0.5928 -0.0879
36066DPPC   NC343414   9.208   1.354  20.541  0.1712 -0.0966  0.2941
36066DPPC   PO443415   9.442   1.120  20.330  0.2082  0.2293  0.1933
36066DPPC   GL143416   9.682   1.207  19.985  0.2004  0.0888  0.0830
36066DPPC   GL243417   9.500   1.420  19.907 -0.1759 -0.2182  0.2292
36066DPPC   C1A43418   9.912   1.170  19.660  0.2346 -0.4112 -0.1780
36066DPPC   C2A43419   9.978   1.179  19.272  0.2570  0.2011 -0.0496
36066DPPC   C3A43420   9.917   1.202  18.806  0.0754 -0.0418 -0.0689
36066DPPC   C4A43421   9.950   1.126  18.320  0.0796 -0.1498 -0.3425
36066DPPC   C1B43422   9.492   1.302  19.565 -0.2181  0.0844 -0.1747
36066DPPC   C2B43423   9.438   1.343  19.093 -0.3816  0.0679 -0.1094
36066DPPC   C3B43424   9.470   1.415  18.580 -0.2684  0.0569  0.2772
36066DPPC   C4B43425   9.445   1.333  18.096 -0.0851 -0.0445 -0.2279
36067DPPC   NC343426  13.269   2.462  20.503  0.2085  0.1050 -0.0851
36067DPPC   PO443427  13.460   2.134  20.433  0.0015 -0.0075  0.1595
36067DPPC   GL143428  13.610   2.033  20.024 -0.1873  0.2467 -0.1290
36067DPPC   GL243429  13.830   2.183  20.080  0.1321  0.1220  0.4691
36067DPPC   C1A43430  13.482   2.012  19.721  0.1907 -0.3203  0.3404
36067DPPC   C2A43431  13.292   1.919  19.334 -0.0295 -0.0062 -0.0838
36067DPPC   C3A43432  13.312   1.967  18.888  0.0571  0.0700  0.0189
36067DPPC   C4A43433  13.335   1.942  18.440  0.1043  0.2955 -0.1487
36067DPPC   C1B43434  13.967   2.230  19.758 -0.2703 -0.1082 -0.1782
36067DPPC   C2B43435  14.109   2.110  19.386  0.3575 -0.0917  0.2388
36067DPPC   C3B43436  14.225   2.042  18.938  0.1341  0.1809 -0.0488
36067DPPC   C4B43437  14.230   2.113  18.456  0.0646 -0.0748 -0.0132
36068DPPC   NC343438   9.905   0.936  20.441 -0.2487 -0.1558 -0.1812
36068DPPC   PO443439  10.026   0.756  20.160  0.1935 -0.0004  0.2551
36068DPPC   GL143440  10.063   0.596  19.804 -0.1068  0.3732 -0.1607
36068DPPC   GL243441  10.058   0.349  19.866 -0.0472 -0.0787 -0.2198
36068DPPC   C1A43442   9.974   0.678  19.477 -0.0779 -0.1784 -0.1071
36068DPPC   C2A43443   9.966   0.679  19.078  0.1993 -0.2121  0.0289
36068DPPC   C3A43444   9.949   0.683  18.598 -0.0063  0.2213 -0.1400
36068DPPC   C4A43445   9.996   0.614  18.101 -0.0631  0.5554  0.1584
36068DPPC   C1B43446   9.990   0.163  19.625  0.1536 -0.0069 -0.0385
36068DPPC   C2B43447  10.045   0.203  19.214  0.0302  0.2991 -0.2662
36068DPPC   C3B43448  10.018   0.195  18.770  0.1550  0.0571 -0.1075
36068DPPC   C4B43449  10.012   0.171  18.283 -0.2787  0.2573 -0.0217
36069DPPC   NC343450  15.407   2.639  20.912 -0.1863  0.0516  0.1272
36069DPPC   PO443451  15.418   2.445  20.539  0.3351  0.2485  0.3529
36069DPPC   GL143452  15.466   2.424  20.220 -0.0653  0.1746 -0.0024
36069DPPC   GL243453  15.692   2.325  20.083 -0.0011 -0.0045  0.1626
36069DPPC   C1A43454  15.240   2.373  19.950 -0.2201 -0.0100 -0.1324
36069DPPC   C2A43455  15.096   2.326  19.592 -0.1087 -0.3731 -0.0683
36069DPPC   C3A43456  15.067   2.247  19.124  0.3360  0.0362  0.0648
36069DPPC   C4A43457  15.183   2.260  18.654 -0.2576  0.1858 -0.3097
36069DPPC   C1B43458  15.930   2.371  19.841 -0.0544  0.0851  0.1234
36069DPPC   C2B43459  16.109   2.445  19.513  0.2590  0.1385  0.0591
36069DPPC   C3B43460  15.998   2.410  19.049 -0.0698  0.0646 -0.1032
36069DPPC   C4B43461  16.004   2.408  18.581  0.3328 -0.0581 -0.1180
36070DPPC   NC343462  10.741   1.027  20.365 -0.0884 -0.0432  0.2048
36070DPPC   PO443463  11.133   0.950  20.364  0.1115 -0.0082 -0.1499
36070DPPC   GL143464  11.169   0.995  20.007  0.2125  0.0147 -0.3698
36070DPPC   GL243465  11.278   0.681  19.871  0.1024  0.2345 -0.3488
36070DPPC   C1A43466  11.112   1.162  19.703 -0.3030  0.1672 -0.1127
36070DPPC   C2A43467  11.217   1.258  19.371  0.3405 -0.2408 -0.2627
36070DPPC   C3A43468  11.227   1.221  18.913  0.0726 -0.2430  0.0718
36070DPPC   C4A43469  11.212   1.151  18.460 -0.3775 -0.1667  0.1423
36070DPPC   C1B43470  11.316   0.677  19.520  0.0708  0.2633 -0.0738
36070DPPC   C2B43471  11.318   0.684  19.116  0.0221 -0.2411  0.4320
36070DPPC   C3B43472  11.313   0.688  18.611  0.1338  0.0459  0.0549
36070DPPC   C4B43473  11.319   0.720  18.211  0.2116  0.1318 -0.1468
36071DPPC   NC343474  11.630   6.428  20.540 -0.1115 -0.0219 -0.1525
36071DPPC   PO443475  11.659   6.841  20.521 -0.0391  0.1814  0.2294
36071DPPC   GL143476  11.745   6.924  20.150  0.1470  0.1265 -0.0104
36071DPPC   GL243477  11.763   6.674  19.999 -0.0729 -0.0102 -0.2125
36071DPPC   C1A43478  11.741   7.027  19.808 -0.0533 -0.0035 -0.3813
36071DPPC   C2A43479  11.753   7.189  19.398 -0.0175 -0.0267 -0.1320
36071DPPC   C3A43480  11.773   7.247  18.894  0.0412 -0.1757  0.1861
36071DPPC   C4A43481  11.772   7.227  18.381 -0.3113 -0.2628  0.0951
36071DPPC   C1B43482  11.777   6.623  19.645 -0.1267 -0.2442 -0.0076
36071DPPC   C2B43483  11.801   6.647  19.213 -0.2891 -0.1152 -0.0695
36071DPPC   C3B43484  11.817   6.707  18.702 -0.2326 -0.0659  0.0465
36071DPPC   C4B43485  11.757   6.710  18.228 -0.0923  0.0742  0.0953
36072DPPC   NC343486  12.073   5.034  20.865 -0.1634 -0.2860  0.1612
36072DPPC   PO443487  11.917   4.672  20.778  0.0658  0.3990  0.0075
36072DPPC   GL143488  11.746   4.657  20.283 -0.2834 -0.2628 -0.2482
36072DPPC   GL243489  11.949   4.901  20.390  0.3687 -0.0297  0.3734
36072DPPC   C1A43490  11.734   4.822  19.972  0.1331 -0.0179  0.0112
36072DPPC   C2A43491  11.613   4.859  19.628  0.1993 -0.2084  0.1396
36072DPPC   C3A43492  11.613   4.860  19.127 -0.0010 -0.2474  0.2268
36072DPPC   C4A43493  11.652   4.881  18.649 -0.0440 -0.0806  0.1007
36072DPPC   C1B43494  12.007   5.109  20.073 -0.1724 -0.0081  0.0094
36072DPPC   C2B43495  12.024   5.239  19.676 -0.1507  0.1926 -0.2053
36072DPPC   C3B43496  12.058   5.222  19.199  0.3456 -0.0632  0.0689
36072DPPC   C4B43497  12.020   5.224  18.715  0.3103 -0.4682 -0.0040
36073DPPS   CNO43498   9.775   2.347  20.824 -0.0377  0.1586 -0.1335
36073DPPS   PO443499   9.901   2.457  20.511  0.2661 -0.1200  0.1626
36073DPPS   GL143500   9.674   2.417  20.150  0.1896 -0.1834 -0.0617
36073DPPS   GL243501   9.694   2.761  20.092  0.3086  0.1505  0.2750
36073DPPS   C1A43502   9.724   2.258  19.807 -0.4281 -0.3013 -0.2250
36073DPPS   C2A43503   9.795   2.194  19.405 -0.0403 -0.2601  0.2913
36073DPPS   C3A43504   9.785   2.193  18.881  0.0033  0.2138  0.1122
36073DPPS   C4A43505   9.853   2.179  18.395 -0.1887 -0.1419 -0.1004
36073DPPS   C1B43506   9.689   2.718  19.766 -0.2737 -0.0792 -0.0578
36073DPPS   C2B43507   9.675   2.708  19.327 -0.0632 -0.0152 -0.1895
36073DPPS   C3B43508   9.689   2.764  18.847  0.0507  0.0526  0.1683
36073DPPS   C4B43509   9.714   2.758  18.372 -0.1154  0.0116 -0.3172
36074DPPS   CNO43510  10.350   5.862  20.784 -0.2604 -0.1416 -0.1215
36074DPPS   PO443511  10.009   5.925  20.583  0.1646 -0.1638 -0.0140
36074DPPS   GL143512   9.821   5.814  20.256 -0.0209 -0.1537 -0.2042
36074DPPS   GL243513   9.875   6.125  20.198  0.0296 -0.0230 -0.2914
36074DPPS   C1A43514   9.799   5.516  20.053 -0.3263 -0.1312 -0.0764
36074DPPS   C2A43515   9.892   5.452  19.680 -0.2164  0.0120  0.1266
36074DPPS   C3A43516   9.856   5.506  19.214  0.3109 -0.1350  0.1602
36074DPPS   C4A43517   9.803   5.506  18.701 -0.1998  0.1125  0.2275
36074DPPS   C1B43518   9.990   6.285  19.841  0.0152 -0.2974 -0.0605
36074DPPS   C2B43519  10.108   6.355  19.424  0.1000  0.3034  0.0518
36074DPPS   C3B43520  10.190   6.276  18.938 -0.2629 -0.0786 -0.0770
36074DPPS   C4B43521  10.201   6.334  18.429 -0.2234  0.1010 -0.0048
36075DPPS   CNO43522  10.189   4.872  20.872  0.4669 -0.0055 -0.0413
36075DPPS   PO443523   9.906   4.937  20.601 -0.0753 -0.0245 -0.0484
36075DPPS   GL143524   9.937   5.041  20.182  0.1279  0.2562  0.1123
36075DPPS   GL243525   9.671   5.082  20.131  0.0576  0.2117 -0.1093
36075DPPS   C1A43526   9.937   4.971  19.831 -0.5146  0.1027  0.0297
36075DPPS   C2A43527   9.923   4.996  19.410  0.0032 -0.1374  0.0376
36075DPPS   C3A43528   9.902   5.059  18.935  0.0873 -0.0853  0.0446
36075DPPS   C4A43529   9.860   5.056  18.449 -0.0779  0.2637  0.0040
36075DPPS   C1B43530   9.498   5.224  19.815  0.2265 -0.1559 -0.2571
36075DPPS   C2B43531   9.440   5.214  19.397  0.2203 -0.2591  0.1656
36075DPPS   C3B43532   9.418   5.237  18.933 -0.1788  0.3265 -0.3535
36075DPPS   C4B43533   9.388   5.159  18.456  0.1977  0.1288 -0.1312
36076DPPS   CNO43534   9.689   3.678  20.806 -0.1250  0.1514 -0.0473
36076DPPS   PO443535   9.503   3.941  20.640  0.0285  0.0445 -0.1488
36076DPPS   GL143536   9.581   3.934  20.224 -0.1737  0.0907 -0.1681
36076DPPS   GL243537   9.796   4.157  20.244 -0.1624 -0.4133  0.3317
36076DPPS   C1A43538   9.585   3.739  19.880  0.0290 -0.1139  0.2407
36076DPPS   C2A43539   9.583   3.615  19.463  0.4050  0.1719 -0.1861
36076DPPS   C3A43540   9.589   3.626  18.967  0.0603  0.3325 -0.1453
36076DPPS   C4A43541   9.596   3.652  18.461  0.0037 -0.0591  0.2119
36076DPPS   C1B43542   9.892   4.046  19.875  0.1517 -0.4107 -0.0161
36076DPPS   C2B43543   9.917   3.943  19.474  0.0988  0.0294 -0.0637
36076DPPS   C3B43544  10.036   3.989  19.021 -0.0717  0.0366  0.1517
36076DPPS   C4B43545  10.016   4.036  18.476  0.2691  0.1479 -0.2985
36077DPPS   CNO43546  13.697   3.557  21.010  0.0489  0.0226  0.0620
36077DPPS   PO443547  13.433   3.678  20.749  0.1306  0.1122 -0.0229
36077DPPS   GL143548  13.442   3.763  20.368 -0.3891 -0.2612  0.0383
36077DPPS   GL243549  13.230   3.540  20.360 -0.3334  0.2168 -0.0903
36077DPPS   C1A43550  13.490   3.759  20.029 -0.2378 -0.2301 -0.1707
36077DPPS   C2A43551  13.582   3.740  19.600 -0.0551  0.1808 -0.1566
36077DPPS   C3A43552  13.540   3.760  19.109  0.2108  0.2334 -0.0309
36077DPPS   C4A43553  13.615   3.806  18.623  0.1125  0.3204 -0.0214
36077DPPS   C1B43554  13.309   3.409  19.989  0.0502 -0.0982 -0.1105
36077DPPS   C2B43555  13.226   3.352  19.599 -0.0131  0.1443 -0.1077
36077DPPS   C3B43556  13.237   3.367  19.115 -0.0659  0.0666  0.0147
36077DPPS   C4B43557  13.130   3.312  18.622  0.0645  0.0530 -0.0919
36078DPPS   CNO43558  10.360   0.337  20.904  0.0393 -0.1212 -0.3787
36078DPPS   PO443559  10.682   0.149  20.779 -0.1514  0.0608  0.2004
36078DPPS   GL143560  10.824   0.141  20.340  0.0920 -0.4477 -0.1687
36078DPPS   GL243561  10.661  -0.085  20.312 -0.2464 -0.1385 -0.2230
36078DPPS   C1A43562  10.898   0.217  19.977 -0.2563  0.1090  0.0087
36078DPPS   C2A43563  10.883   0.363  19.627 -0.1996  0.1089 -0.0399
36078DPPS   C3A43564  10.870   0.414  19.129  0.0099  0.4102 -0.0651
36078DPPS   C4A43565  10.937   0.378  18.649  0.1089 -0.0335 -0.0353
36078DPPS   C1B43566  10.685  -0.284  20.044 -0.1839 -0.0979  0.0750
36078DPPS   C2B43567  10.567  -0.424  19.661  0.0464 -0.0250  0.1736
36078DPPS   C3B43568  10.609  -0.457  19.195 -0.0437  0.1775 -0.0033
36078DPPS   C4B43569  10.617  -0.417  18.697  0.2974 -0.0017 -0.1419
36079DPPS   CNO43570  12.351   2.719  20.848  0.0229  0.0191  0.1169
36079DPPS   PO443571  12.342   2.790  20.486  0.1511  0.0608 -0.1077
36079DPPS   GL143572  12.076   2.696  20.282 -0.1523  0.0602  0.2725
36079DPPS   GL243573  12.174   2.471  20.137  0.2922 -0.2698 -0.0218
36079DPPS   C1A43574  12.078   2.964  19.998  0.1471 -0.2715 -0.1200
36079DPPS   C2A43575  12.209   3.141  19.640  0.1428 -0.1142 -0.1727
36079DPPS   C3A43576  12.319   3.233  19.182 -0.0529 -0.2576  0.0643
36079DPPS   C4A43577  12.359   3.289  18.731  0.1423  0.0275  0.1141
36079DPPS   C1B43578  12.305   2.643  19.822  0.0943  0.0167 -0.1048
36079DPPS   C2B43579  12.368   2.729  19.432  0.0929 -0.0353 -0.0433
36079DPPS   C3B43580  12.354   2.774  18.934 -0.3577 -0.0673 -0.1629
36079DPPS   C4B43581  12.365   2.838  18.455 -0.1998  0.2668  0.1214
36080DPPS   CNO43582  15.568   5.955  21.023  0.1019 -0.1101  0.0449
36080DPPS   PO443583  15.414   5.818  20.734 -0.1321  0.3137 -0.0499
36080DPPS   GL143584  15.477   5.624  20.417  0.2806  0.4255 -0.2283
36080DPPS   GL243585  15.248   5.749  20.307  0.0460 -0.1553  0.2933
36080DPPS   C1A43586  15.388   5.469  20.095  0.1201  0.2588 -0.4264
36080DPPS   C2A43587  15.173   5.495  19.777  0.1949 -0.0604 -0.1295
36080DPPS   C3A43588  15.091   5.570  19.259 -0.0884  0.3854 -0.2446
36080DPPS   C4A43589  15.142   5.535  18.816 -0.0332  0.1252  0.0160
36080DPPS   C1B43590  15.149   5.904  19.967 -0.2791  0.2917  0.0772
36080DPPS   C2B43591  15.082   5.955  19.573  0.1065 -0.0101 -0.2856
36080DPPS   C3B43592  15.034   6.050  19.095  0.0159  0.2753 -0.0439
36080DPPS   C4B43593  14.955   6.037  18.629  0.1051  0.3362  0.0269
36081DPPS   CNO43594  15.440   3.175  21.001  0.2151  0.1044 -0.2018
36081DPPS   PO443595  15.117   3.297  20.797  0.0342 -0.0066  0.1302
36081DPPS   GL143596  15.197   3.296  20.407  0.2019 -0.2271  0.0265
36081DPPS   GL243597  15.016   3.162  20.274 -0.1628 -0.0720 -0.1025
36081DPPS   C1A43598  15.271   3.520  20.159  0.0903 -0.0871  0.0683
36081DPPS   C2A43599  15.116   3.649  19.838  0.0535 -0.2345 -0.0190
36081DPPS   C3A43600  14.994   3.655  19.351  0.1940  0.0037 -0.3417
36081DPPS   C4A43601  14.929   3.686  18.810  0.0066 -0.0640 -0.2869
36081DPPS   C1B43602  15.049   3.144  19.902  0.1355 -0.2907 -0.0749
36081DPPS   C2B43603  15.087   3.158  19.517  0.0158 -0.1795  0.0288
36081DPPS   C3B43604  15.026   3.227  19.049 -0.1027 -0.0409 -0.0340
36081DPPS   C4B43605  14.970   3.145  18.541  0.0250  0.3331 -0.1791
36082DPPS   CNO43606  12.940   0.050  21.016 -0.3093 -0.1293  0.2358
36082DPPS   PO443607  12.721   0.270  20.833 -0.0528 -0.0812  0.0698
36082DPPS   GL143608  12.950   0.178  20.435  0.0528  0.1684  0.1646
36082DPPS   GL243609  12.745   0.028  20.380 -0.0466 -0.0780 -0.1313
36082DPPS   C1A43610  13.048   0.334  20.091  0.2731  0.1005  0.0952
36082DPPS   C2A43611  13.039   0.433  19.679 -0.0271  0.0932 -0.1271
36082DPPS   C3A43612  13.097   0.511  19.195 -0.2666  0.1583 -0.0398
36082DPPS   C4A43613  13.144   0.570  18.698 -0.1667 -0.0787 -0.0551
36082DPPS   C1B43614  12.646   0.200  20.081  0.0755 -0.1659  0.0754
36082DPPS   C2B43615  12.601   0.201  19.660  0.0930  0.1058  0.1418
36082DPPS   C3B43616  12.718   0.116  19.179  0.1938  0.0444 -0.2194
36082DPPS   C4B43617  12.781   0.250  18.787  0.2496  0.0978 -0.2605
36083DPPS   CNO43618  13.079   1.124  21.058  0.1355  0.0541 -0.0061
36083DPPS   PO443619  12.972   1.145  20.690 -0.1445  0.2304 -0.0078
36083DPPS   GL143620  13.064   1.215  20.231  0.1889 -0.0429  0.0285
36083DPPS   GL243621  13.048   1.446  20.244  0.1028 -0.3111  0.1428
36083DPPS   C1A43622  13.067   1.128  19.894 -0.0690 -0.2946  0.2340
36083DPPS   C2A43623  13.003   0.938  19.519 -0.2939 -0.2285 -0.1953
36083DPPS   C3A43624  12.988   0.910  19.045  0.1366 -0.1815  0.2995
36083DPPS   C4A43625  13.018   1.086  18.595  0.0750  0.3109 -0.1233
36083DPPS   C1B43626  13.016   1.544  19.821 -0.0285  0.5693 -0.0920
36083DPPS   C2B43627  12.934   1.476  19.452  0.0631 -0.0164  0.1613
36083DPPS   C3B43628  12.950   1.554  18.934  0.1005  0.0741  0.1145
36083DPPS   C4B43629  12.967   1.536  18.444 -0.2424 -0.3277  0.1034
36084DPPS   CNO43630  10.302   2.295  20.859  0.0301 -0.0525  0.0843
36084DPPS   PO443631  10.371   2.099  20.517 -0.3981 -0.0161  0.0030
36084DPPS   GL143632  10.500   2.248  20.132 -0.2999  0.0190  0.3112
36084DPPS   GL243633  10.762   2.184  20.175  0.1359  0.0440  0.0572
36084DPPS   C1A43634  10.546   2.334  19.763  0.0442  0.0844 -0.0463
36084DPPS   C2A43635  10.564   2.373  19.343  0.3046 -0.0496 -0.0070
36084DPPS   C3A43636  10.611   2.405  18.905  0.0469 -0.2189 -0.2893
36084DPPS   C4A43637  10.628   2.421  18.409 -0.3305 -0.0865 -0.0218
36084DPPS   C1B43638  11.031   2.104  19.951 -0.3305  0.0414  0.1257
36084DPPS   C2B43639  10.987   2.252  19.591  0.2487 -0.0553 -0.1871
36084DPPS   C3B43640  11.059   2.329  19.115 -0.0274 -0.3986 -0.1073
36084DPPS   C4B43641  11.047   2.250  18.646 -0.0566 -0.0263  0.3244
36085DPPS   CNO43642  10.151   3.894  21.036 -0.2019  0.0575 -0.1653
36085DPPS   PO443643  10.221   3.729  20.726  0.0430 -0.4817  0.0991
36085DPPS   GL143644  10.114   3.866  20.351  0.3404  0.5833 -0.0341
36085DPPS   GL243645  10.228   4.119  20.310  0.2509 -0.2367  0.0189
36085DPPS   C1A43646  10.034   3.645  20.052  0.0770 -0.1684 -0.3859
36085DPPS   C2A43647  10.011   3.447  19.687  0.2225  0.0247 -0.0004
36085DPPS   C3A43648  10.077   3.503  19.212  0.0088  0.0849  0.0211
36085DPPS   C4A43649  10.084   3.543  18.705  0.3131 -0.0768 -0.0199
36085DPPS   C1B43650  10.265   4.198  19.967  0.3169 -0.2574  0.3173
36085DPPS   C2B43651  10.397   4.281  19.545  0.0291  0.1695 -0.2024
36085DPPS   C3B43652  10.357   4.345  19.050 -0.1768  0.0260 -0.0731
36085DPPS   C4B43653  10.408   4.305  18.560 -0.1034 -0.0552 -0.1433
36086DPPS   CNO43654  11.752   1.220  21.073 -0.2017 -0.0308 -0.1485
36086DPPS   PO443655  11.847   0.890  20.849 -0.0647 -0.3619  0.1812
36086DPPS   GL143656  11.833   1.086  20.392 -0.1393  0.2281  0.0922
36086DPPS   GL243657  11.650   0.820  20.395 -0.1273  0.0664  0.0963
36086DPPS   C1A43658  11.905   1.182  20.034 -0.0938 -0.2351 -0.1752
36086DPPS   C2A43659  12.041   1.222  19.620  0.1925 -0.1982  0.0886
36086DPPS   C3A43660  12.063   1.391  19.158  0.2612  0.1178  0.0426
36086DPPS   C4A43661  12.076   1.390  18.611  0.1725 -0.3380  0.1584
36086DPPS   C1B43662  11.647   0.840  20.044  0.3712  0.3158 -0.1905
36086DPPS   C2B43663  11.664   0.981  19.647  0.1039  0.2688 -0.2332
36086DPPS   C3B43664  11.661   1.038  19.220  0.4667  0.3531 -0.1984
36086DPPS   C4B43665  11.686   1.088  18.746  0.0855  0.1463 -0.0878
36087DPPS   CNO43666   9.466   2.669  20.536 -0.0503 -0.1588  0.1813
36087DPPS   PO443667   9.426   2.987  20.357 -0.1882 -0.0412 -0.1682
36087DPPS   GL143668   9.295   2.888  19.992 -0.5840  0.1154  0.0495
36087DPPS   GL243669   8.995   2.981  19.957  0.5201  0.0066 -0.0107
36087DPPS   C1A43670   9.325   2.831  19.602 -0.3243  0.0502  0.1740
36087DPPS   C2A43671   9.237   2.823  19.154  0.0695 -0.2182  0.2081
36087DPPS   C3A43672   9.225   2.840  18.633  0.3306  0.0622 -0.1766
36087DPPS   C4A43673   9.271   2.907  18.130 -0.2816  0.2097 -0.2041
36087DPPS   C1B43674   8.806   3.044  19.677  0.0563 -0.1203  0.4087
36087DPPS   C2B43675   8.790   3.048  19.294  0.1981 -0.0778 -0.2378
36087DPPS   C3B43676   8.778   3.024  18.840 -0.2293  0.0471  0.1265
36087DPPS   C4B43677   8.762   2.949  18.339 -0.0179 -0.0985  0.2122
36088DPPS   CNO43678  10.881   2.841  20.630 -0.0551 -0.2932  0.1301
36088DPPS   PO443679  11.110   3.124  20.740  0.3083 -0.2751  0.2060
36088DPPS   GL143680  11.083   3.331  20.422  0.1018 -0.2147  0.4543
36088DPPS   GL243681  10.820   3.295  20.361  0.0417  0.1698 -0.0561
36088DPPS   C1A43682  11.215   3.222  20.120 -0.1476  0.1510 -0.0676
36088DPPS   C2A43683  11.445   3.002  19.866 -0.1308 -0.2594 -0.2175
36088DPPS   C3A43684  11.410   3.069  19.428 -0.0146 -0.0529 -0.0486
36088DPPS   C4A43685  11.464   3.112  18.923 -0.1893  0.2933  0.1453
36088DPPS   C1B43686  10.815   3.095  20.070 -0.2612  0.1960 -0.2124
36088DPPS   C2B43687  10.915   3.168  19.674 -0.1923 -0.0855  0.2566
36088DPPS   C3B43688  10.957   3.203  19.180 -0.3492  0.1768  0.1245
36088DPPS   C4B43689  10.937   3.281  18.723  0.1368 -0.1150 -0.0600
36089DPPS   CNO43690  14.199   3.503  20.980  0.1370  0.3659  0.0690
36089DPPS   PO443691  14.417   3.582  20.667  0.0630  0.0767 -0.2622
36089DPPS   GL143692  14.208   3.357  20.331  0.1452  0.0906  0.4778
36089DPPS   GL243693  14.276   3.624  20.223 -0.2294 -0.0840 -0.0682
36089DPPS   C1A43694  14.294   3.027  20.171  0.1181  0.3256  0.1932
36089DPPS   C2A43695  14.206   3.001  19.776  0.4370 -0.1116 -0.3184
36089DPPS   C3A43696  14.154   2.990  19.350  0.0659  0.2417  0.1727
36089DPPS   C4A43697  14.155   2.990  18.868  0.1392  0.1758  0.0847
36089DPPS   C1B43698  14.197   3.479  19.925  0.3359 -0.2823 -0.0232
36089DPPS   C2B43699  14.179   3.525  19.521 -0.1542  0.0885 -0.1408
36089DPPS   C3B43700  14.053   3.636  19.035 -0.2624  0.1821 -0.0972
36089DPPS   C4B43701  14.063   3.535  18.509 -0.1726  0.1126 -0.1479
36090DPPS   CNO43702  13.721   2.391  20.816  0.2174 -0.1137  0.0401
36090DPPS   PO443703  13.690   2.737  20.714  0.0217 -0.0316 -0.0096
36090DPPS   GL143704  13.701   2.826  20.296 -0.3175  0.0532 -0.3033
36090DPPS   GL243705  13.571   2.592  20.198  0.2239 -0.2078  0.1582
36090DPPS   C1A43706  13.770   2.960  19.982  0.2339 -0.1989  0.2536
36090DPPS   C2A43707  13.758   2.914  19.578 -0.3770 -0.1336 -0.1172
36090DPPS   C3A43708  13.718   2.874  19.116 -0.2707  0.3647 -0.3392
36090DPPS   C4A43709  13.679   2.738  18.660 -0.0569 -0.2724 -0.3656
36090DPPS   C1B43710  13.619   2.512  19.842  0.0713  0.0030 -0.0630
36090DPPS   C2B43711  13.647   2.331  19.433 -0.1670  0.2195  0.3920
36090DPPS   C3B43712  13.760   2.205  18.951  0.1894 -0.3934  0.0152
36090DPPS   C4B43713  13.739   2.262  18.440  0.1674 -0.1896  0.0036
36091DPPS   CNO43714  10.245   4.289  20.777 -0.3756  0.1209  0.0062
36091DPPS   PO443715   9.916   4.459  20.662  0.1173  0.1074  0.1151
36091DPPS   GL143716   9.800   4.619  20.265  0.0298 -0.1681 -0.0751
36091DPPS   GL243717  10.010   4.508  20.115  0.1983  0.3452 -0.0616
36091DPPS   C1A43718   9.559   4.683  19.971 -0.1652  0.1166 -0.1553
36091DPPS   C2A43719   9.467   4.676  19.568 -0.0555  0.0249  0.1321
36091DPPS   C3A43720   9.510   4.761  19.088 -0.1151  0.0693 -0.2385
36091DPPS   C4A43721   9.480   4.694  18.646 -0.0429  0.1434 -0.5420
36091DPPS   C1B43722   9.909   4.487  19.783  0.1805 -0.2168 -0.2764
36091DPPS   C2B43723   9.969   4.466  19.403  0.2476  0.0904 -0.1417
36091DPPS   C3B43724   9.876   4.471  18.914 -0.0950 -0.3780 -0.1835
36091DPPS   C4B43725   9.878   4.498  18.435 -0.1169  0.1426  0.2430
36092DPPS   CNO43726  14.631   1.917  20.974  0.2477 -0.0992 -0.0678
36092DPPS   PO443727  14.381   1.851  20.691 -0.2522 -0.3349  0.0645
36092DPPS   GL143728  14.509   1.797  20.354  0.2993  0.0188  0.1978
36092DPPS   GL243729  14.272   2.073  20.361  0.2023 -0.1070  0.1902
36092DPPS   C1A43730  14.650   1.691  20.014  0.1304  0.2184 -0.2548
36092DPPS   C2A43731  14.808   1.503  19.719  0.4666  0.0184 -0.3603
36092DPPS   C3A43732  14.766   1.494  19.206  0.0175  0.0257 -0.1179
36092DPPS   C4A43733  14.793   1.338  18.714  0.0307  0.1197 -0.2718
36092DPPS   C1B43734  14.442   2.236  20.092 -0.0654 -0.1772 -0.0397
36092DPPS   C2B43735  14.477   2.305  19.710  0.1195  0.1921  0.0107
36092DPPS   C3B43736  14.649   2.435  19.285 -0.1589 -0.1506  0.1000
36092DPPS   C4B43737  14.566   2.466  18.791  0.0278  0.2853 -0.1560
36093DPPS   CNO43738  11.225   4.009  21.078  0.0644 -0.1662 -0.0004
36093DPPS   PO443739  11.459   4.169  20.838 -0.0044  0.2492  0.1424
36093DPPS   GL143740  11.415   4.043  20.521  0.0305 -0.0263  0.0489
36093DPPS   GL243741  11.432   3.759  20.417 -0.0129  0.0577  0.2472
36093DPPS   C1A43742  11.592   4.183  20.245  0.0337 -0.2415  0.2449
36093DPPS   C2A43743  11.596   4.393  19.873  0.2168  0.2418  0.1185
36093DPPS   C3A43744  11.710   4.308  19.426 -0.4227 -0.1672 -0.0902
36093DPPS   C4A43745  11.714   4.406  18.947  0.0364  0.0152 -0.3610
36093DPPS   C1B43746  11.514   3.627  20.060 -0.0113  0.1586  0.0207
36093DPPS   C2B43747  11.394   3.463  19.712  0.3271  0.2888  0.4151
36093DPPS   C3B43748  11.431   3.520  19.207  0.1689  0.0167 -0.1542
36093DPPS   C4B43749  11.467   3.570  18.698  0.2586  0.0515 -0.0190
36094DPPS   CNO43750  10.772   0.737  20.780 -0.0166 -0.1683 -0.2189
36094DPPS   PO443751  10.769   0.552  20.474 -0.1387  0.0019 -0.3266
36094DPPS   GL143752  10.514   0.697  20.149  0.0989  0.0374 -0.2412
36094DPPS   GL243753  10.852   0.646  20.087 -0.0020 -0.0075 -0.0932
36094DPPS   C1A43754  10.469   0.575  19.793  0.0209  0.0390 -0.1101
36094DPPS   C2A43755  10.455   0.557  19.382  0.1503  0.2329  0.5568
36094DPPS   C3A43756  10.439   0.607  18.848 -0.2057  0.0181  0.2654
36094DPPS   C4A43757  10.433   0.584  18.367  0.0480 -0.3105 -0.2493
36094DPPS   C1B43758  10.815   0.815  19.752 -0.0770  0.0682 -0.0317
36094DPPS   C2B43759  10.906   0.873  19.380 -0.2755  0.0297 -0.3033
36094DPPS   C3B43760  10.826   0.909  18.831 -0.0213 -0.3583 -0.0334
36094DPPS   C4B43761  10.813   0.827  18.322 -0.0254 -0.1063  0.1425
36095DPPS   CNO43762  15.666   0.270  20.936 -0.0386 -0.1237  0.1781
36095DPPS   PO443763  15.349   0.367  20.695 -0.0150  0.1415  0.0052
36095DPPS   GL143764  15.331   0.407  20.377 -0.4073  0.0918 -0.0196
36095DPPS   GL243765  15.533   0.173  20.182 -0.0829  0.0658 -0.0011
36095DPPS   C1A43766  15.075   0.575  20.207  0.1545  0.1539  0.0552
36095DPPS   C2A43767  14.910   0.847  19.910  0.1929  0.0234 -0.2239
36095DPPS   C3A43768  14.829   0.972  19.480  0.1826  0.0803  0.2562
36095DPPS   C4A43769  14.905   0.960  18.990  0.0084  0.0578  0.1616
36095DPPS   C1B43770  15.655   0.208  19.838 -0.0790 -0.2493  0.0468
36095DPPS   C2B43771  15.804   0.140  19.440 -0.0840 -0.1839 -0.3410
36095DPPS   C3B43772  15.839   0.101  18.942  0.1327  0.2017  0.0800
36095DPPS   C4B43773  15.835   0.099  18.482 -0.2245  0.0685  0.0339
36096DPPS   CNO43774  15.367   4.732  20.662 -0.2138  0.0518  0.1552
36096DPPS   PO443775  14.976   4.730  20.696  0.0499  0.0648  0.1497
36096DPPS   GL143776  14.893   4.953  20.324 -0.0350  0.0631  0.1812
36096DPPS   GL243777  14.622   4.905  20.356  0.2894 -0.3136 -0.1739
36096DPPS   C1A43778  14.955   5.133  20.016  0.1538 -0.1715 -0.2174
36096DPPS   C2A43779  14.784   5.235  19.685  0.2586 -0.0435 -0.0703
36096DPPS   C3A43780  14.680   5.220  19.274 -0.0468  0.1305  0.1197
36096DPPS   C4A43781  14.647   5.184  18.825  0.0163 -0.0465 -0.1850
36096DPPS   C1B43782  14.515   4.984  19.989  0.0400  0.3873  0.0483
36096DPPS   C2B43783  14.323   4.947  19.614 -0.1350 -0.2137 -0.0517
36096DPPS   C3B43784  14.225   4.891  19.152  0.1789 -0.1612 -0.0552
36096DPPS   C4B43785  14.290   4.835  18.678 -0.1012 -0.1543 -0.1452
36097DPPS   CNO43786  10.401   6.416  21.046 -0.1003 -0.2525 -0.5054
36097DPPS   PO443787  10.204   6.405  20.674  0.0444  0.0034 -0.1908
36097DPPS   GL143788  10.282   6.309  20.261 -0.0122  0.2966 -0.0048
36097DPPS   GL243789  10.380   6.072  20.311 -0.2634  0.4730  0.2920
36097DPPS   C1A43790  10.313   6.537  19.916 -0.2893  0.0295  0.0061
36097DPPS   C2A43791  10.447   6.729  19.603  0.0095  0.1978 -0.0244
36097DPPS   C3A43792  10.536   6.667  19.166  0.1065 -0.0534 -0.1276
36097DPPS   C4A43793  10.495   6.716  18.676  0.1994  0.2225 -0.1235
36097DPPS   C1B43794  10.222   5.967  19.997  0.2451 -0.0842  0.0697
36097DPPS   C2B43795  10.210   5.857  19.610 -0.2113  0.0078 -0.0322
36097DPPS   C3B43796  10.289   5.780  19.129 -0.0751  0.2622 -0.2590
36097DPPS   C4B43797  10.190   5.821  18.712  0.1278 -0.2354 -0.2839
36098DPPC   NC343798  11.068   4.384  15.804  0.2092  0.1018  0.1308
36098DPPC   PO443799  11.253   4.652  15.986  0.0878 -0.1170  0.0295
36098DPPC   GL143800  11.146   4.815  16.316  0.1408  0.1305 -0.3697
36098DPPC   GL243801  11.480   4.949  16.413 -0.2337  0.3487  0.2012
36098DPPC   C1A43802  10.924   4.810  16.599 -0.2242  0.3467  0.0612
36098DPPC   C2A43803  10.776   4.740  16.946  0.3013  0.2028  0.0830
36098DPPC   C3A43804  10.680   4.748  17.447 -0.3478  0.1542  0.2485
36098DPPC   C4A43805  10.776   4.677  17.860 -0.1814 -0.1713 -0.0232
36098DPPC   C1B43806  11.615   4.921  16.768  0.0735 -0.2805  0.1555
36098DPPC   C2B43807  11.660   4.914  17.183  0.0158  0.1877  0.2884
36098DPPC   C3B43808  11.605   4.866  17.630 -0.0600  0.2249 -0.2278
36098DPPC   C4B43809  11.559   4.884  18.165 -0.0077  0.0156  0.0273
36099DPPC   NC343810  12.466   4.320  15.800  0.2602 -0.1595 -0.0781
36099DPPC   PO443811  12.140   4.144  16.000 -0.0530 -0.1174 -0.1126
36099DPPC   GL143812  11.991   4.244  16.337  0.4013  0.3272 -0.1887
36099DPPC   GL243813  11.690   4.119  16.372  0.0377  0.2168  0.0810
36099DPPC   C1A43814  12.153   4.359  16.621  0.1008 -0.1080 -0.5332
36099DPPC   C2A43815  12.170   4.326  17.021  0.1381  0.0715  0.2734
36099DPPC   C3A43816  12.150   4.254  17.483 -0.4134  0.2404  0.0368
36099DPPC   C4A43817  12.120   4.215  17.963 -0.0344  0.4234 -0.0186
36099DPPC   C1B43818  11.466   4.123  16.708  0.1937 -0.2101  0.0963
36099DPPC   C2B43819  11.334   4.055  17.103  0.0209  0.2747 -0.1269
36099DPPC   C3B43820  11.386   4.071  17.542  0.1306  0.0898 -0.0489
36099DPPC   C4B43821  11.298   4.047  18.022 -0.1551 -0.3274 -0.1023
36100DPPC   NC343822  12.554   0.412  16.045 -0.0672  0.0876 -0.0161
36100DPPC   PO443823  12.870   0.180  16.155 -0.0917 -0.0842 -0.0137
36100DPPC   GL143824  12.617   0.272  16.483  0.2002  0.0461 -0.2545
36100DPPC   GL243825  12.806   0.508  16.542  0.5041  0.0546 -0.0371
36100DPPC   C1A43826  12.648   0.182  16.859  0.0894 -0.1020  0.0728
36100DPPC   C2A43827  12.710   0.170  17.254  0.1151 -0.1334  0.0637
36100DPPC   C3A43828  12.681   0.216  17.737 -0.0831  0.1321 -0.2515
36100DPPC   C4A43829  12.614   0.259  18.236  0.0819  0.2799 -0.1332
36100DPPC   C1B43830  13.053   0.476  16.795  0.1027 -0.2859  0.1022
36100DPPC   C2B43831  13.038   0.537  17.180 -0.3189 -0.3208  0.0842
36100DPPC   C3B43832  13.068   0.572  17.674  0.2685  0.2820  0.0674
36100DPPC   C4B43833  13.099   0.537  18.162  0.0389 -0.1572  0.1326
36101DPPC   NC343834  14.662   2.477  16.022  0.0822  0.2247 -0.1541
36101DPPC   PO443835  15.041   2.332  16.001  0.1418  0.3660  0.2088
36101DPPC   GL143836  15.290   2.471  16.237 -0.1972 -0.0422 -0.3107
36101DPPC   GL243837  15.246   2.141  16.393 -0.1687  0.1080 -0.0478
36101DPPC   C1A43838  15.462   2.503  16.583 -0.1576 -0.1410  0.3480
36101DPPC   C2A43839  15.472   2.587  16.957 -0.2284  0.0400 -0.4066
36101DPPC   C3A43840  15.401   2.577  17.439  0.1002  0.0583  0.0750
36101DPPC   C4A43841  15.486   2.521  17.973  0.0008  0.2027 -0.3459
36101DPPC   C1B43842  15.104   2.191  16.762 -0.1798  0.3871 -0.1432
36101DPPC   C2B43843  15.113   2.286  17.176  0.0040 -0.1785  0.2297
36101DPPC   C3B43844  15.059   2.208  17.646 -0.0865 -0.1024  0.0501
36101DPPC   C4B43845  15.058   2.189  18.153 -0.1482  0.1969  0.2012
36102DPPC   NC343846  15.306   5.954  16.217  0.1593 -0.1963 -0.4008
36102DPPC   PO443847  15.226   5.553  16.123  0.2560  0.0380 -0.2704
36102DPPC   GL143848  15.527   5.319  16.327  0.5320  0.6739 -0.1103
36102DPPC   GL243849  15.666   5.582  16.399  0.0715 -0.0379 -0.1123
36102DPPC   C1A43850  15.464   5.252  16.718 -0.2321  0.1090  0.1630
36102DPPC   C2A43851  15.511   5.311  17.144  0.3786  0.0430 -0.0554
36102DPPC   C3A43852  15.527   5.314  17.610  0.1633  0.0775 -0.0745
36102DPPC   C4A43853  15.569   5.368  18.149  0.0117  0.0372  0.1259
36102DPPC   C1B43854  15.545   5.700  16.667  0.0455  0.1217 -0.0673
36102DPPC   C2B43855  15.440   5.946  16.914  0.0960 -0.0974 -0.1842
36102DPPC   C3B43856  15.463   5.843  17.401 -0.0448 -0.0925 -0.1839
36102DPPC   C4B43857  15.461   5.751  17.887  0.1769 -0.1444 -0.3014
36103DPPC   NC343858  14.574   6.061  15.694 -0.0194 -0.2752 -0.0495
36103DPPC   PO443859  14.865   5.931  15.915  0.1132 -0.2582 -0.0837
36103DPPC   GL143860  14.727   5.817  16.349  0.0640  0.3975 -0.0265
36103DPPC   GL243861  14.911   6.032  16.414 -0.0001 -0.1836  0.0406
36103DPPC   C1A43862  14.549   5.810  16.681 -0.1168 -0.0028 -0.2067
36103DPPC   C2A43863  14.631   5.744  17.074  0.1357 -0.0167 -0.0224
36103DPPC   C3A43864  14.640   5.767  17.549 -0.3286 -0.1780 -0.1851
36103DPPC   C4A43865  14.647   5.707  18.020 -0.1197  0.0821 -0.1934
36103DPPC   C1B43866  14.981   6.031  16.754 -0.2977  0.1544  0.1332
36103DPPC   C2B43867  14.997   6.050  17.152  0.3340 -0.0223 -0.2006
36103DPPC   C3B43868  15.066   6.102  17.613  0.1885  0.3444  0.0002
36103DPPC   C4B43869  15.112   6.029  18.122  0.0101  0.0116 -0.0201
36104DPPC   NC343870  15.166   5.041  16.190  0.0422  0.0219  0.1073
36104DPPC   PO443871  15.085   4.634  16.066 -0.2190  0.1517 -0.2869
36104DPPC   GL143872  14.915   4.314  16.264 -0.0405 -0.2744 -0.2485
36104DPPC   GL243873  14.620   4.428  16.226 -0.3038 -0.1061 -0.1890
36104DPPC   C1A43874  14.887   4.338  16.687  0.2169 -0.4850  0.3171
36104DPPC   C2A43875  14.819   4.272  17.099  0.1563 -0.3320  0.0230
36104DPPC   C3A43876  14.816   4.237  17.590 -0.0195 -0.0738  0.2039
36104DPPC   C4A43877  14.768   4.267  18.019  0.1243  0.4009  0.0685
36104DPPC   C1B43878  14.438   4.349  16.543 -0.1608 -0.0036  0.1795
36104DPPC   C2B43879  14.411   4.414  16.936 -0.2019 -0.3694 -0.2313
36104DPPC   C3B43880  14.360   4.383  17.397  0.0270  0.0586 -0.0835
36104DPPC   C4B43881  14.341   4.422  17.866 -0.0459 -0.1261 -0.1276
36105DPPC   NC343882   9.550   0.506  15.761  0.0036  0.2239 -0.1813
36105DPPC   PO443883   9.270   0.698  15.986  0.0858  0.2042  0.1542
36105DPPC   GL143884   9.256   0.592  16.379 -0.1250 -0.1892 -0.5007
36105DPPC   GL243885   8.980   0.659  16.380  0.3144  0.0820  0.1114
36105DPPC   C1A43886   9.289   0.638  16.729  0.0018  0.1487 -0.3299
36105DPPC   C2A43887   9.202   0.558  17.122 -0.0167  0.0103 -0.0397
36105DPPC   C3A43888   9.151   0.621  17.597  0.2224  0.1206  0.2059
36105DPPC   C4A43889   9.060   0.610  18.084 -0.2433 -0.0585 -0.0867
36105DPPC   C1B43890   8.747   0.670  16.689  0.0918 -0.2143  0.1604
36105DPPC   C2B43891   8.748   0.756  17.066 -0.1703  0.3386 -0.0726
36105DPPC   C3B43892   8.687   0.771  17.554 -0.0505 -0.1511 -0.0653
36105DPPC   C4B43893   8.585   0.718  18.004  0.4106 -0.0554  0.2637
36106DPPC   NC343894  10.978   1.947  15.871  0.0967 -0.3604 -0.0015
36106DPPC   PO443895  10.976   2.335  15.849  0.1496 -0.0583  0.4347
36106DPPC   GL143896  10.992   2.558  16.243  0.4266  0.6545  0.1532
36106DPPC   GL243897  11.118   2.324  16.295  0.1782  0.2453 -0.0677
36106DPPC   C1A43898  10.794   2.493  16.587  0.0780 -0.0906  0.0342
36106DPPC   C2A43899  10.716   2.395  16.984  0.2717 -0.2481 -0.1016
36106DPPC   C3A43900  10.654   2.390  17.441  0.1727 -0.0959  0.3374
36106DPPC   C4A43901  10.550   2.401  17.904 -0.0488  0.1365 -0.1728
36106DPPC   C1B43902  10.963   2.063  16.515 -0.3943 -0.3471  0.2870
36106DPPC   C2B43903  10.797   1.889  16.871 -0.0444  0.0555 -0.2519
36106DPPC   C3B43904  10.766   1.890  17.383  0.4164  0.0974 -0.0743
36106DPPC   C4B43905  10.737   1.860  17.878  0.2023  0.0064 -0.1259
36107DPPC   NC343906  11.351   5.943  15.734  0.4586 -0.2353  0.2236
36107DPPC   PO443907  11.290   5.999  16.093  0.4719  0.0781 -0.0995
36107DPPC   GL143908  11.422   6.075  16.454  0.1656  0.0774  0.1270
36107DPPC   GL243909  11.422   6.366  16.432 -0.2932 -0.0115  0.3449
36107DPPC   C1A43910  11.541   5.905  16.766 -0.2477 -0.0202 -0.0123
36107DPPC   C2A43911  11.522   5.812  17.184 -0.0319  0.0878  0.2294
36107DPPC   C3A43912  11.454   5.862  17.627 -0.2915 -0.0063  0.1095
36107DPPC   C4A43913  11.462   5.913  18.132 -0.0041  0.2514  0.3488
36107DPPC   C1B43914  11.470   6.373  16.787 -0.0198 -0.2700 -0.1959
36107DPPC   C2B43915  11.460   6.363  17.187 -0.1814  0.2991  0.0987
36107DPPC   C3B43916  11.339   6.399  17.639  0.0648  0.0440  0.2909
36107DPPC   C4B43917  11.289   6.421  18.135  0.1395  0.0219  0.0252
36108DPPC   NC343918   9.601   1.693  15.876 -0.0456  0.1902  0.1359
36108DPPC   PO443919   9.964   1.741  16.008  0.0166 -0.0423  0.0381
36108DPPC   GL143920  10.035   1.827  16.417 -0.0590  0.2613  0.3042
36108DPPC   GL243921  10.257   2.014  16.445  0.1452 -0.2116  0.0693
36108DPPC   C1A43922   9.848   1.664  16.693  0.0099  0.3300  0.1736
36108DPPC   C2A43923   9.947   1.747  17.089  0.1630 -0.1362 -0.0988
36108DPPC   C3A43924   9.832   1.723  17.580  0.0536  0.4199 -0.1893
36108DPPC   C4A43925   9.790   1.697  18.036 -0.0138 -0.1808  0.0145
36108DPPC   C1B43926  10.401   2.179  16.750  0.0179  0.0432 -0.2329
36108DPPC   C2B43927  10.360   2.052  17.157  0.3855 -0.2200 -0.0929
36108DPPC   C3B43928  10.297   2.069  17.666 -0.0404  0.0182  0.0864
36108DPPC   C4B43929  10.338   2.071  18.157  0.1551 -0.1727 -0.1300
36109DPPC   NC343930  12.106   2.086  15.938 -0.0657  0.0028  0.1925
36109DPPC   PO443931  11.895   2.263  16.226  0.1922  0.0428 -0.0724
36109DPPC   GL143932  11.884   2.203  16.663 -0.3475 -0.0113 -0.0273
36109DPPC   GL243933  11.720   2.029  16.777  0.1410 -0.3826  0.1905
36109DPPC   C1A43934  11.980   2.410  16.964 -0.2229  0.3035  0.4436
36109DPPC   C2A43935  11.963   2.375  17.374  0.0698  0.1232  0.0750
36109DPPC   C3A43936  11.949   2.436  17.832  0.0327  0.2245 -0.2059
36109DPPC   C4A43937  12.056   2.500  18.324  0.0786  0.1592 -0.1217
36109DPPC   C1B43938  11.660   2.028  17.118 -0.1014 -0.2632 -0.1784
36109DPPC   C2B43939  11.547   2.116  17.491  0.2645  0.0288  0.1167
36109DPPC   C3B43940  11.553   2.150  17.940  0.1494  0.3341 -0.0231
36109DPPC   C4B43941  11.506   2.122  18.449  0.0994  0.1500  0.0969
36110DPPC   NC343942  12.860   3.631  16.217  0.0754 -0.2155  0.1912
36110DPPC   PO443943  12.596   3.905  16.075  0.0772 -0.2950 -0.0333
36110DPPC   GL143944  12.464   4.112  16.368 -0.0719  0.0850  0.2448
36110DPPC   GL243945  12.638   4.225  16.498  0.2281 -0.0602 -0.0521
36110DPPC   C1A43946  12.154   3.958  16.557  0.0421 -0.0277 -0.2846
36110DPPC   C2A43947  11.889   3.942  16.840  0.0513 -0.0712  0.0544
36110DPPC   C3A43948  11.842   3.922  17.290  0.0518  0.0062 -0.0868
36110DPPC   C4A43949  11.820   3.874  17.765  0.0536  0.3580 -0.3493
36110DPPC   C1B43950  12.630   4.374  16.849 -0.0615  0.0627  0.2422
36110DPPC   C2B43951  12.523   4.611  17.195  0.0191 -0.0012 -0.0610
36110DPPC   C3B43952  12.509   4.695  17.623 -0.1771  0.2114 -0.2520
36110DPPC   C4B43953  12.517   4.615  18.103  0.2440 -0.1887 -0.2511
36111DPPC   NC343954   9.358   4.180  16.011  0.0175  0.1025 -0.1851
36111DPPC   PO443955   9.051   4.352  16.178  0.2878  0.2446 -0.0246
36111DPPC   GL143956   9.027   4.413  16.597 -0.1138  0.1047 -0.0978
36111DPPC   GL243957   8.787   4.185  16.568  0.3423 -0.0504 -0.3713
36111DPPC   C1A43958   9.069   4.505  16.929  0.1923 -0.0454 -0.2697
36111DPPC   C2A43959   9.137   4.386  17.341  0.0892 -0.2118  0.3267
36111DPPC   C3A43960   9.157   4.371  17.852  0.0323  0.0341  0.2152
36111DPPC   C4A43961   9.204   4.407  18.361 -0.1183  0.0254  0.2130
36111DPPC   C1B43962   8.681   4.130  16.897 -0.2401 -0.1075 -0.3748
36111DPPC   C2B43963   8.694   4.098  17.318  0.1147  0.2367  0.2131
36111DPPC   C3B43964   8.679   4.042  17.823 -0.1325 -0.0496 -0.0171
36111DPPC   C4B43965   8.661   3.935  18.276  0.0246 -0.1835 -0.1775
36112DPPC   NC343966  10.288   2.802  15.839  0.0102  0.0121 -0.3985
36112DPPC   PO443967  10.644   2.694  15.974  0.0833  0.1313  0.3475
36112DPPC   GL143968  10.525   2.755  16.350 -0.1776  0.2886  0.1522
36112DPPC   GL243969  10.314   2.499  16.389  0.0664 -0.0119  0.1452
36112DPPC   C1A43970  10.602   2.879  16.705  0.3061 -0.1559 -0.0490
36112DPPC   C2A43971  10.613   2.959  17.117 -0.0779 -0.1077  0.0357
36112DPPC   C3A43972  10.539   2.953  17.669 -0.1720 -0.1465  0.0987
36112DPPC   C4A43973  10.589   2.921  18.154  0.0545 -0.3095  0.2013
36112DPPC   C1B43974  10.189   2.527  16.734  0.1758  0.2989 -0.0830
36112DPPC   C2B43975  10.191   2.568  17.137 -0.2295  0.2670  0.1888
36112DPPC   C3B43976  10.183   2.538  17.624 -0.2061 -0.0869 -0.1400
36112DPPC   C4B43977  10.160   2.587  18.149 -0.1056  0.0387 -0.0725
36113DPPC   NC343978   9.107   5.949  16.146  0.0043  0.4130 -0.0543
36113DPPC   PO443979   9.422   5.703  16.047 -0.0050  0.0491 -0.0795
36113DPPC   GL143980   9.396   5.699  16.467 -0.4401  0.1907 -0.3050
36113DPPC   GL243981   9.743   5.730  16.460  0.4190 -0.3331 -0.1083
36113DPPC   C1A43982   9.288   5.804  16.761  0.1367 -0.0279  0.2520
36113DPPC   C2A43983   9.375   5.751  17.161  0.2625 -0.1670 -0.0342
36113DPPC   C3A43984   9.259   5.729  17.636 -0.3894  0.0739 -0.1387
36113DPPC   C4A43985   9.238   5.633  18.128  0.0569  0.0018 -0.1615
36113DPPC   C1B43986   9.765   5.663  16.813  0.1195  0.1536  0.0189
36113DPPC   C2B43987   9.781   5.502  17.203  0.1963  0.1586  0.1318
36113DPPC   C3B43988   9.744   5.481  17.706 -0.1233  0.1469 -0.1476
36113DPPC   C4B43989   9.715   5.451  18.225  0.1031 -0.2238  0.4174
36114DPPC   NC343990  14.652   0.372  16.146 -0.1513 -0.0918 -0.0582
36114DPPC   PO443991  14.496   0.697  16.331  0.0257  0.1040  0.1014
36114DPPC   GL143992  14.420   0.683  16.742  0.3390 -0.2116 -0.3756
36114DPPC   GL243993  14.097   0.692  16.656 -0.1510 -0.2325  0.0048
36114DPPC   C1A43994  14.388   0.545  17.048  0.2569 -0.1227 -0.1691
36114DPPC   C2A43995  14.448   0.517  17.432  0.1532  0.0334 -0.1022
36114DPPC   C3A43996  14.442   0.515  17.900 -0.0028 -0.0986  0.0345
36114DPPC   C4A43997  14.539   0.705  18.396 -0.0083  0.2710  0.0501
36114DPPC   C1B43998  13.917   0.655  16.968 -0.0279 -0.1625 -0.2372
36114DPPC   C2B43999  13.972   0.734  17.390  0.1205 -0.0127  0.1049
36114DPPC   C3B44000  13.940   0.786  17.882 -0.0390 -0.0525 -0.1206
36114DPPC   C4B44001  14.037   0.746  18.388  0.0729  0.2712 -0.1186
36115DPPC   NC344002  11.263   5.185  15.993  0.0257  0.0175  0.0274
36115DPPC   PO444003  11.497   5.506  15.901 -0.0219 -0.0674  0.1453
36115DPPC   GL144004  11.537   5.579  16.269 -0.1802 -0.0145  0.0355
36115DPPC   GL244005  11.738   5.716  16.306 -0.0620 -0.0012  0.1268
36115DPPC   C1A44006  11.500   5.486  16.638 -0.4606  0.2870 -0.3057
36115DPPC   C2A44007  11.612   5.358  16.963 -0.3672 -0.2306 -0.4245
36115DPPC   C3A44008  11.585   5.334  17.460  0.3577 -0.3345  0.2556
36115DPPC   C4A44009  11.571   5.411  17.916 -0.1591 -0.0129 -0.0209
36115DPPC   C1B44010  11.901   5.721  16.633  0.1504  0.2746 -0.3317
36115DPPC   C2B44011  12.004   5.672  17.033 -0.4275 -0.1336 -0.1335
36115DPPC   C3B44012  11.955   5.710  17.526  0.3468  0.0654  0.1374
36115DPPC   C4B44013  11.924   5.755  17.975  0.1595  0.0436  0.0202
36116DPPC   NC344014  10.892   3.720  16.262  0.2124 -0.2216 -0.0621
36116DPPC   PO444015  10.521   3.607  16.083 -0.0996 -0.1120  0.3350
36116DPPC   GL144016  10.309   3.726  16.438  0.1409  0.0776  0.3003
36116DPPC   GL244017  10.486   3.921  16.467 -0.2794 -0.0930 -0.2318
36116DPPC   C1A44018  10.159   3.620  16.743 -0.1056 -0.3090  0.5925
36116DPPC   C2A44019  10.125   3.524  17.142  0.0743  0.0133 -0.2352
36116DPPC   C3A44020  10.061   3.552  17.614  0.1269 -0.0958  0.1548
36116DPPC   C4A44021  10.040   3.567  18.066  0.0169  0.1021  0.1676
36116DPPC   C1B44022  10.530   3.861  16.794 -0.1216 -0.3036  0.0443
36116DPPC   C2B44023  10.543   3.907  17.169  0.0479  0.1021 -0.0435
36116DPPC   C3B44024  10.481   3.834  17.676 -0.1481 -0.0954  0.1505
36116DPPC   C4B44025  10.429   3.877  18.135 -0.0242 -0.1232  0.0580
36117DPPC   NC344026  12.400   2.964  16.103  0.0234  0.0052  0.1157
36117DPPC   PO444027  12.764   3.077  16.017 -0.0764 -0.1007  0.1458
36117DPPC   GL144028  12.800   3.154  16.420  0.1490  0.4407  0.1055
36117DPPC   GL244029  13.045   3.240  16.346  0.0733 -0.0979 -0.2481
36117DPPC   C1A44030  12.719   2.986  16.740  0.0884 -0.3237 -0.0354
36117DPPC   C2A44031  12.725   2.982  17.167  0.3838  0.2046 -0.0015
36117DPPC   C3A44032  12.785   3.040  17.644  0.4214 -0.2257 -0.1646
36117DPPC   C4A44033  12.768   3.084  18.130  0.2661 -0.0257  0.1095
36117DPPC   C1B44034  13.135   3.292  16.674  0.4156 -0.1804 -0.1746
36117DPPC   C2B44035  13.128   3.312  17.093 -0.0258 -0.1569 -0.1223
36117DPPC   C3B44036  13.148   3.401  17.564 -0.1784 -0.0435 -0.0066
36117DPPC   C4B44037  13.136   3.417  18.066  0.0858  0.0670 -0.1344
36118DPPC   NC344038  12.956   1.729  16.230  0.2516 -0.0258  0.1628
36118DPPC   PO444039  12.564   1.861  16.140  0.0961 -0.2129  0.1576
36118DPPC   GL144040  12.275   2.048  16.394  0.3200  0.1799  0.1247
36118DPPC   GL244041  12.097   1.824  16.460  0.2564  0.2967  0.0707
36118DPPC   C1A44042  12.277   2.194  16.759 -0.0186 -0.1256  0.1534
36118DPPC   C2A44043  12.413   2.246  17.132 -0.0359  0.2081  0.0451
36118DPPC   C3A44044  12.413   2.229  17.655 -0.0385 -0.2528 -0.1291
36118DPPC   C4A44045  12.452   2.266  18.120 -0.1295  0.0564 -0.0812
36118DPPC   C1B44046  12.067   1.830  16.857  0.1205 -0.3886 -0.1030
36118DPPC   C2B44047  12.027   1.860  17.268  0.0542 -0.0847  0.1076
36118DPPC   C3B44048  12.013   1.928  17.721  0.3201 -0.0391 -0.3832
36118DPPC   C4B44049  11.984   1.933  18.221 -0.1579  0.1474 -0.1751
36119DPPC   NC344050   9.469   5.096  15.731  0.1695  0.0218  0.1576
36119DPPC   PO444051   9.869   5.065  15.809 -0.2387 -0.1933 -0.1060
36119DPPC   GL144052   9.972   4.882  16.225 -0.1728  0.0375 -0.0568
36119DPPC   GL244053  10.115   5.131  16.240  0.2716 -0.0066  0.1606
36119DPPC   C1A44054   9.776   4.913  16.549  0.2967  0.1458  0.3309
36119DPPC   C2A44055   9.805   5.001  16.950  0.1164  0.0733 -0.2118
36119DPPC   C3A44056   9.816   5.037  17.412  0.1368 -0.3070  0.2137
36119DPPC   C4A44057   9.821   5.042  17.927  0.1058 -0.2762  0.2623
36119DPPC   C1B44058   9.996   5.309  16.579  0.2154  0.4133 -0.0127
36119DPPC   C2B44059  10.175   5.376  16.918 -0.2225 -0.1108 -0.1115
36119DPPC   C3B44060  10.277   5.392  17.411 -0.1882 -0.3299 -0.0958
36119DPPC   C4B44061  10.264   5.337  17.910 -0.2220  0.2754 -0.1411
36120DPPC   NC344062  15.357   1.864  15.515 -0.2391 -0.2464  0.0410
36120DPPC   PO444063  15.737   1.810  15.650 -0.2183 -0.0543 -0.0565
36120DPPC   GL144064  15.816   1.952  16.061 -0.2056 -0.0766  0.0622
36120DPPC   GL244065  16.037   1.783  16.132 -0.5313  0.0913 -0.1872
36120DPPC   C1A44066  15.586   1.857  16.361  0.2534 -0.1673 -0.2544
36120DPPC   C2A44067  15.507   1.952  16.736  0.1063  0.0035 -0.3211
36120DPPC   C3A44068  15.520   2.073  17.234  0.1755 -0.1391 -0.1213
36120DPPC   C4A44069  15.566   2.100  17.651 -0.0223  0.0102 -0.2334
36120DPPC   C1B44070  16.040   1.898  16.480 -0.0560  0.2314  0.2020
36120DPPC   C2B44071  16.021   1.950  16.903  0.0689  0.1195  0.1430
36120DPPC   C3B44072  15.985   1.878  17.404  0.2677 -0.0204  0.0208
36120DPPC   C4B44073  15.950   1.888  17.875 -0.0652 -0.0824 -0.0456
36121DPPC   NC344074  11.524   0.913  15.663  0.3910 -0.0152 -0.2249
36121DPPC   PO444075  11.740   1.146  15.924  0.0244 -0.0787  0.4355
36121DPPC   GL144076  11.831   1.260  16.372  0.1394 -0.0837 -0.0089
36121DPPC   GL244077  11.628   1.068  16.456  0.3411  0.3532 -0.0466
36121DPPC   C1A44078  12.016   1.330  16.704 -0.0067 -0.0485  0.0130
36121DPPC   C2A44079  12.126   1.424  17.095 -0.2594 -0.0193 -0.0422
36121DPPC   C3A44080  12.125   1.450  17.592  0.0300  0.1057 -0.0863
36121DPPC   C4A44081  12.158   1.518  18.078  0.0201  0.1510 -0.0456
36121DPPC   C1B44082  11.664   1.055  16.848 -0.0347  0.3697 -0.0400
36121DPPC   C2B44083  11.739   1.109  17.221  0.0322  0.1346  0.0378
36121DPPC   C3B44084  11.778   1.110  17.697  0.1612  0.1081 -0.2488
36121DPPC   C4B44085  11.667   1.099  18.172  0.0258 -0.0236 -0.1299
36122DPPC   NC344086  13.376   2.544  15.718  0.1425 -0.1558 -0.1663
36122DPPC   PO444087  13.690   2.493  15.923  0.0014 -0.2902 -0.1611
36122DPPC   GL144088  13.484   2.491  16.340  0.0796 -0.1161  0.2927
36122DPPC   GL244089  13.319   2.682  16.183 -0.1480  0.0825  0.1506
36122DPPC   C1A44090  13.519   2.592  16.685 -0.1070  0.0247  0.1041
36122DPPC   C2A44091  13.626   2.775  17.051  0.0549  0.1450  0.1051
36122DPPC   C3A44092  13.691   2.768  17.590 -0.0822  0.0723  0.3195
36122DPPC   C4A44093  13.679   2.750  18.087 -0.1157  0.2747 -0.0674
36122DPPC   C1B44094  13.131   2.745  16.528 -0.1381  0.1565  0.0641
36122DPPC   C2B44095  13.117   2.831  16.904 -0.0382 -0.2606  0.0270
36122DPPC   C3B44096  13.226   2.893  17.375  0.1646 -0.0278  0.2040
36122DPPC   C4B44097  13.221   2.984  17.849 -0.0068  0.2499 -0.1925
36123DPPC   NC344098  14.233   4.265  16.042  0.1206  0.2094  0.0949
36123DPPC   PO444099  13.871   4.328  15.952 -0.1894  0.0997  0.1152
36123DPPC   GL144100  13.859   4.262  16.285  0.3227  0.1261 -0.2842
36123DPPC   GL244101  13.678   4.427  16.484 -0.1833  0.1071  0.1411
36123DPPC   C1A44102  14.111   4.079  16.504  0.2840  0.2876  0.0005
36123DPPC   C2A44103  14.186   3.722  16.585  0.1244  0.0781 -0.1784
36123DPPC   C3A44104  14.281   3.225  16.669 -0.0392  0.0780  0.0982
36123DPPC   C4A44105  14.375   2.702  16.514 -0.1962  0.0767 -0.1002
36123DPPC   C1B44106  13.532   4.513  16.811 -0.0188 -0.1952  0.1460
36123DPPC   C2B44107  13.336   4.626  17.098 -0.0953 -0.0435 -0.2639
36123DPPC   C3B44108  13.384   4.654  17.552 -0.2814 -0.3587  0.3577
36123DPPC   C4B44109  13.399   4.670  18.053 -0.0863  0.1391  0.1736
36124DPPC   NC344110  11.482   2.489  16.064  0.0021 -0.1916  0.2479
36124DPPC   PO444111  11.464   2.788  16.318  0.0243 -0.0327  0.1629
36124DPPC   GL144112  11.198   2.563  16.620 -0.4214 -0.0476  0.2169
36124DPPC   GL244113  11.373   2.857  16.712  0.2683 -0.1783  0.1111
36124DPPC   C1A44114  11.212   2.294  16.850  0.2014  0.0528 -0.1993
36124DPPC   C2A44115  11.123   2.228  17.263 -0.1595  0.2018  0.0309
36124DPPC   C3A44116  11.051   2.272  17.727 -0.2419  0.2621  0.0330
36124DPPC   C4A44117  11.076   2.279  18.177 -0.2908 -0.0442 -0.1689
36124DPPC   C1B44118  11.508   2.977  17.023  0.2822  0.0944 -0.7268
36124DPPC   C2B44119  11.431   3.029  17.460 -0.0876 -0.0424 -0.1206
36124DPPC   C3B44120  11.464   3.012  17.902 -0.1526  0.0469  0.1012
36124DPPC   C4B44121  11.517   3.096  18.402  0.2088 -0.0016  0.0867
36125DPPC   NC344122  15.049   3.625  16.139  0.2032 -0.2849  0.0596
36125DPPC   PO444123  14.763   3.350  16.071 -0.0583  0.3254  0.3311
36125DPPC   GL144124  14.677   3.255  16.393 -0.3738 -0.2560  0.0628
36125DPPC   GL244125  14.701   3.524  16.538 -0.1581 -0.1639  0.0162
36125DPPC   C1A44126  14.705   3.021  16.637 -0.1215  0.1927 -0.0694
36125DPPC   C2A44127  14.535   2.942  17.016  0.0619  0.2755  0.0288
36125DPPC   C3A44128  14.479   2.860  17.487 -0.0528  0.1021  0.0085
36125DPPC   C4A44129  14.471   2.902  17.959 -0.1704  0.2792 -0.3050
36125DPPC   C1B44130  14.531   3.539  16.901 -0.3092  0.1864  0.0318
36125DPPC   C2B44131  14.427   3.381  17.287 -0.0342  0.1517  0.0375
36125DPPC   C3B44132  14.437   3.393  17.734  0.0660  0.1519  0.0178
36125DPPC   C4B44133  14.533   3.352  18.245 -0.0325  0.3155  0.1632
36126DPPC   NC344134  12.575   2.215  15.826  0.3096 -0.0840 -0.0399
36126DPPC   PO444135  12.918   2.243  16.014 -0.2874  0.2211 -0.2010
36126DPPC   GL144136  13.100   2.248  16.376 -0.0001  0.3993 -0.1152
36126DPPC   GL244137  12.852   2.150  16.446 -0.0905 -0.0796 -0.1719
36126DPPC   C1A44138  13.211   2.306  16.741 -0.2105  0.1484 -0.5646
36126DPPC   C2A44139  13.257   2.404  17.148 -0.1557 -0.0267 -0.0144
36126DPPC   C3A44140  13.267   2.469  17.647 -0.2661  0.1184  0.2618
36126DPPC   C4A44141  13.383   2.392  18.101 -0.0754 -0.1911 -0.0837
36126DPPC   C1B44142  12.892   1.952  16.726 -0.1882 -0.1625  0.2680
36126DPPC   C2B44143  12.912   1.992  17.152  0.0246  0.2238  0.1229
36126DPPC   C3B44144  12.874   2.028  17.646  0.2113  0.0890 -0.0555
36126DPPC   C4B44145  12.898   2.013  18.121 -0.1264  0.2179  0.2607
36127DPPC   NC344146  12.274   6.387  15.656  0.2084  0.1427  0.1819
36127DPPC   PO444147  11.928   6.298  15.713  0.0155  0.0142  0.1592
36127DPPC   GL144148  11.858   6.415  16.103 -0.0410 -0.0761  0.2749
36127DPPC   GL244149  11.825   6.134  16.217 -0.0776 -0.3266 -0.2211
36127DPPC   C1A44150  11.927   6.655  16.354 -0.0572 -0.2463  0.3181
36127DPPC   C2A44151  11.812   6.689  16.754  0.1397  0.1574  0.3572
36127DPPC   C3A44152  11.848   6.716  17.219  0.0743 -0.2771 -0.1648
36127DPPC   C4A44153  11.815   6.680  17.707  0.0199 -0.0991 -0.1123
36127DPPC   C1B44154  11.849   6.229  16.611 -0.1493  0.3474  0.0078
36127DPPC   C2B44155  11.880   6.205  17.010 -0.3539 -0.1048  0.2786
36127DPPC   C3B44156  11.872   6.212  17.479  0.1202  0.0999  0.1757
36127DPPC   C4B44157  11.761   6.292  17.960  0.1856 -0.2050 -0.0008
36128DPPC   NC344158  16.016   4.752  15.845  0.2984  0.0250  0.0735
36128DPPC   PO444159  15.790   4.440  15.895 -0.2780  0.0188 -0.2674
36128DPPC   GL144160  15.546   4.501  16.281  0.2084  0.0048  0.0010
36128DPPC   GL244161  15.391   4.296  16.214  0.2424 -0.1129  0.1949
36128DPPC   C1A44162  15.640   4.429  16.613  0.0518  0.2363 -0.0108
36128DPPC   C2A44163  15.699   4.356  17.024 -0.2073  0.0665  0.0493
36128DPPC   C3A44164  15.726   4.296  17.516  0.1529  0.0645  0.2107
36128DPPC   C4A44165  15.685   4.359  18.006  0.2746  0.1081  0.0813
36128DPPC   C1B44166  15.294   4.182  16.546 -0.1163 -0.1984 -0.2235
36128DPPC   C2B44167  15.278   4.099  16.994  0.1794 -0.3254  0.0674
36128DPPC   C3B44168  15.221   4.009  17.448  0.0308 -0.0281  0.1979
36128DPPC   C4B44169  15.263   3.985  17.924 -0.1263  0.1014 -0.0047
36129DPPC   NC344170  10.159   0.647  16.001  0.0227  0.0185  0.0350
36129DPPC   PO444171  10.553   0.687  15.899  0.0173  0.2047 -0.0277
36129DPPC   GL144172  10.685   0.480  16.192  0.0529  0.4732 -0.0940
36129DPPC   GL244173  10.906   0.479  16.329  0.3050  0.2831  0.0705
36129DPPC   C1A44174  10.528   0.663  16.470  0.0600 -0.0763  0.0318
36129DPPC   C2A44175  10.508   0.660  16.863 -0.1185  0.3297  0.1211
36129DPPC   C3A44176  10.487   0.584  17.299  0.1513  0.3288 -0.2873
36129DPPC   C4A44177  10.502   0.565  17.865 -0.1773 -0.3051  0.1567
36129DPPC   C1B44178  10.876   0.417  16.674 -0.2807  0.0112 -0.2251
36129DPPC   C2B44179  10.970   0.489  17.100  0.2600  0.0879  0.1788
36129DPPC   C3B44180  10.939   0.470  17.581 -0.2677 -0.4150 -0.0648
36129DPPC   C4B44181  10.901   0.409  18.127  0.1756  0.1768 -0.1402
36130DPPC   NC344182  11.455   3.258  16.158  0.0429  0.2403 -0.0222
36130DPPC   PO444183  11.574   3.260  16.521 -0.1894  0.1515 -0.1337
36130DPPC   GL144184  11.854   3.263  16.807 -0.2225  0.1976 -0.1260
36130DPPC   GL244185  11.990   3.418  16.657 -0.3447 -0.2562  0.1954
36130DPPC   C1A44186  11.806   3.319  17.139 -0.2199  0.0432  0.2582
36130DPPC   C2A44187  11.860   3.424  17.496 -0.0200 -0.2728 -0.3312
36130DPPC   C3A44188  11.836   3.424  17.947  0.2113 -0.0020  0.1580
36130DPPC   C4A44189  11.764   3.822  18.323  0.1563 -0.0923 -0.0562
36130DPPC   C1B44190  12.206   3.589  16.862 -0.0793  0.1273 -0.0978
36130DPPC   C2B44191  12.249   3.691  17.255  0.0143  0.0985  0.1565
36130DPPC   C3B44192  12.292   3.795  17.679 -0.1584  0.0336 -0.0081
36130DPPC   C4B44193  12.260   3.759  18.155  0.1949 -0.0122 -0.2253
36131DPPC   NC344194  12.233   6.087  16.070 -0.1085  0.2781  0.0375
36131DPPC   PO444195  12.183   5.681  16.183 -0.0201 -0.1329  0.0040
36131DPPC   GL144196  12.336   5.621  16.621 -0.0974 -0.0744  0.3130
36131DPPC   GL244197  12.269   5.933  16.558  0.2564  0.0804 -0.0857
36131DPPC   C1A44198  12.435   5.641  16.993  0.1358  0.2510 -0.1909
36131DPPC   C2A44199  12.422   5.616  17.396 -0.1650 -0.0297  0.0467
36131DPPC   C3A44200  12.442   5.599  17.910 -0.1127 -0.2292  0.0007
36131DPPC   C4A44201  12.399   5.500  18.356  0.0188 -0.0422 -0.2593
36131DPPC   C1B44202  12.339   6.069  16.861 -0.0876  0.0350  0.0265
36131DPPC   C2B44203  12.307   6.066  17.261  0.0928 -0.1382 -0.1658
36131DPPC   C3B44204  12.263   6.110  17.764  0.3285 -0.1604  0.0904
36131DPPC   C4B44205  12.250   5.992  18.258 -0.3361  0.1207  0.4400
36132DPPC   NC344206  13.801   4.771  16.046  0.0723  0.1194 -0.0571
36132DPPC   PO444207  13.928   5.128  16.131 -0.0339 -0.0205  0.3262
36132DPPC   GL144208  13.855   5.176  16.510  0.1382  0.1265  0.1340
36132DPPC   GL244209  13.824   4.864  16.647  0.1549 -0.5709  0.0862
36132DPPC   C1A44210  13.755   5.396  16.758  0.1563  0.1203 -0.0703
36132DPPC   C2A44211  13.714   5.410  17.194 -0.0617 -0.3322  0.2312
36132DPPC   C3A44212  13.704   5.354  17.691 -0.1636 -0.0308 -0.0326
36132DPPC   C4A44213  13.787   5.450  18.175  0.4229  0.0942 -0.1981
36132DPPC   C1B44214  13.760   4.982  16.973  0.0511  0.3198 -0.1171
36132DPPC   C2B44215  13.837   4.959  17.380  0.1360  0.0922  0.1084
36132DPPC   C3B44216  13.830   4.920  17.909 -0.0729 -0.0974  0.2316
36132DPPC   C4B44217  13.838   4.944  18.403 -0.1792  0.0287 -0.1855
36133DPPC   NC344218   9.766   3.329  15.458  0.1254  0.0747  0.0167
36133DPPC   PO444219   9.419   3.098  15.641  0.0894  0.0896 -0.0599
36133DPPC   GL144220   9.343   3.081  16.042 -0.2362  0.0476  0.2594
36133DPPC   GL244221   9.349   3.381  16.108 -0.1341  0.2864  0.0577
36133DPPC   C1A44222   9.621   3.077  16.288  0.2766  0.2138 -0.2301
36133DPPC   C2A44223   9.721   3.203  16.654 -0.1482  0.1096 -0.2872
36133DPPC   C3A44224   9.704   3.231  17.129  0.0100 -0.1334  0.0098
36133DPPC   C4A44225   9.660   3.228  17.582 -0.2099  0.1952  0.6627
36133DPPC   C1B44226   9.326   3.412  16.467 -0.1044 -0.0690  0.0642
36133DPPC   C2B44227   9.317   3.465  16.874  0.0068 -0.2346 -0.2808
36133DPPC   C3B44228   9.201   3.404  17.337  0.1684  0.0784 -0.0207
36133DPPC   C4B44229   9.190   3.381  17.812 -0.1295  0.0133 -0.0547
36134DPPC   NC344230  13.058   5.202  16.258 -0.0532 -0.0812 -0.1045
36134DPPC   PO444231  13.257   4.861  16.095  0.0818 -0.4076 -0.1217
36134DPPC   GL144232  13.348   4.690  16.402 -0.0253 -0.1543  0.1967
36134DPPC   GL244233  13.163   4.537  16.459  0.1344 -0.1795  0.0697
36134DPPC   C1A44234  13.294   4.984  16.653  0.1184  0.3977  0.0456
36134DPPC   C2A44235  13.292   5.118  17.044  0.0620  0.0532 -0.1229
36134DPPC   C3A44236  13.330   5.134  17.545  0.0070  0.1439  0.0878
36134DPPC   C4A44237  13.284   5.202  17.998 -0.2960 -0.0692  0.1035
36134DPPC   C1B44238  13.046   4.497  16.778 -0.0811 -0.2393 -0.0560
36134DPPC   C2B44239  12.971   4.340  17.148 -0.0041  0.0215 -0.1884
36134DPPC   C3B44240  12.959   4.371  17.616 -0.1112  0.0039  0.3194
36134DPPC   C4B44241  13.018   4.369  18.112 -0.1776  0.2085  0.1473
36135DPPC   NC344242  14.448   5.265  16.329 -0.1165 -0.1833  0.2431
36135DPPC   PO444243  14.767   5.421  16.120  0.0489  0.0826 -0.1165
36135DPPC   GL144244  14.918   5.419  16.463  0.2050 -0.2889 -0.0534
36135DPPC   GL244245  15.042   5.624  16.609  0.1759 -0.1957 -0.0517
36135DPPC   C1A44246  15.086   5.123  16.642  0.1767  0.1452 -0.0698
36135DPPC   C2A44247  15.159   4.963  16.997  0.2907 -0.2234  0.0593
36135DPPC   C3A44248  15.181   4.977  17.553  0.3943 -0.0862 -0.0472
36135DPPC   C4A44249  15.097   4.965  18.053 -0.0101  0.3650 -0.3293
36135DPPC   C1B44250  15.067   5.425  16.944  0.1360 -0.2904  0.3953
36135DPPC   C2B44251  15.058   5.479  17.351  0.1758 -0.1621  0.0973
36135DPPC   C3B44252  15.086   5.462  17.854  0.2182 -0.1271 -0.0982
36135DPPC   C4B44253  15.018   5.454  18.350 -0.2328 -0.0516  0.0743
36136DPPC   NC344254   9.392   2.625  15.683  0.0813  0.2911 -0.0485
36136DPPC   PO444255   9.253   2.222  15.869 -0.1785 -0.1937  0.0767
36136DPPC   GL144256   9.305   2.233  16.372 -0.1662 -0.2898 -0.1423
36136DPPC   GL244257   9.178   1.970  16.393  0.0586  0.3218 -0.1621
36136DPPC   C1A44258   9.368   2.359  16.696  0.0702  0.2162  0.0951
36136DPPC   C2A44259   9.460   2.412  17.087  0.1031 -0.0790 -0.1310
36136DPPC   C3A44260   9.418   2.375  17.594  0.1455  0.0645 -0.1013
36136DPPC   C4A44261   9.337   2.446  18.095 -0.1287 -0.0383  0.0837
36136DPPC   C1B44262   9.004   2.111  16.701  0.0381 -0.3328 -0.0301
36136DPPC   C2B44263   8.965   2.076  17.080 -0.1649 -0.1737 -0.1145
36136DPPC   C3B44264   8.963   2.073  17.527  0.0477  0.1915  0.1076
36136DPPC   C4B44265   8.948   2.077  17.975  0.0006 -0.0509 -0.0649
36137DPPC   NC344266  15.118   4.146  15.894  0.1099  0.1982 -0.2174
36137DPPC   PO444267  15.248   3.804  15.764 -0.1676  0.0529 -0.1231
36137DPPC   GL144268  15.498   3.602  16.117  0.1750  0.0492 -0.4285
36137DPPC   GL244269  15.490   3.875  16.240 -0.0390  0.3607 -0.2835
36137DPPC   C1A44270  15.461   3.349  16.417 -0.1890 -0.5253  0.1440
36137DPPC   C2A44271  15.435   3.103  16.725 -0.0991  0.2832 -0.2337
36137DPPC   C3A44272  15.385   3.065  17.223 -0.1284  0.2487 -0.0331
36137DPPC   C4A44273  15.300   3.045  17.701  0.0194  0.1443  0.1245
36137DPPC   C1B44274  15.341   3.760  16.575 -0.4268  0.0054  0.0672
36137DPPC   C2B44275  15.345   3.586  16.955  0.1062 -0.0651  0.2108
36137DPPC   C3B44276  15.314   3.518  17.430 -0.0110  0.3401  0.0578
36137DPPC   C4B44277  15.324   3.481  17.946  0.1672 -0.0370  0.2085
36138DPPC   NC344278   9.561   5.103  16.204 -0.1306  0.2745 -0.1080
36138DPPC   PO444279   9.596   4.689  16.061 -0.0195 -0.0991 -0.0971
36138DPPC   GL144280   9.385   4.569  16.433  0.4996 -0.1825  0.2633
36138DPPC   GL244281   9.562   4.298  16.418  0.0720 -0.2241 -0.2444
36138DPPC   C1A44282   9.405   4.744  16.751 -0.0915  0.1632 -0.1221
36138DPPC   C2A44283   9.497   4.684  17.147 -0.1784 -0.3955  0.0191
36138DPPC   C3A44284   9.469   4.738  17.615 -0.0636 -0.1322 -0.3740
36138DPPC   C4A44285   9.484   4.714  18.082  0.0320  0.2775 -0.0494
36138DPPC   C1B44286   9.587   4.182  16.784  0.0536 -0.1528  0.2764
36138DPPC   C2B44287   9.588   4.132  17.142 -0.3389  0.0730 -0.0802
36138DPPC   C3B44288   9.572   4.189  17.632 -0.1746 -0.0237 -0.0931
36138DPPC   C4B44289   9.603   4.153  18.108 -0.0405  0.2951  0.0360
36139DPPC   NC344290  10.440   1.857  15.871 -0.0952  0.0131 -0.1619
36139DPPC   PO444291  10.363   1.517  15.646 -0.0732  0.1632  0.0841
36139DPPC   GL144292  10.195   1.245  16.072 -0.1638  0.4135  0.2556
36139DPPC   GL244293  10.341   1.491  16.112 -0.0062  0.0432 -0.4085
36139DPPC   C1A44294  10.196   0.973  16.315  0.3568 -0.2699  0.1211
36139DPPC   C2A44295  10.010   0.802  16.621  0.1309  0.1111 -0.1614
36139DPPC   C3A44296  10.041   0.805  17.112  0.0528 -0.3354 -0.0549
36139DPPC   C4A44297  10.081   0.736  17.612  0.1026 -0.0030 -0.2390
36139DPPC   C1B44298  10.237   1.451  16.468 -0.2528  0.0121 -0.0492
36139DPPC   C2B44299  10.357   1.601  16.852 -0.1506  0.0276 -0.0903
36139DPPC   C3B44300  10.312   1.579  17.351  0.2177  0.2876 -0.0594
36139DPPC   C4B44301  10.260   1.590  17.838 -0.1534  0.0072  0.1034
36140DPPC   NC344302  12.666   5.550  16.313  0.4003  0.2643 -0.0567
36140DPPC   PO444303  12.432   5.227  16.227  0.2173 -0.2074 -0.1850
36140DPPC   GL144304  12.176   5.125  16.477 -0.0144  0.0961  0.0287
36140DPPC   GL244305  12.135   4.848  16.540 -0.1276 -0.0530  0.2788
36140DPPC   C1A44306  12.035   5.244  16.804  0.3256 -0.2838 -0.1208
36140DPPC   C2A44307  12.070   5.231  17.210  0.0886  0.1450  0.1437
36140DPPC   C3A44308  12.057   5.246  17.698  0.1078  0.0981  0.1105
36140DPPC   C4A44309  11.963   5.277  18.167 -0.3092 -0.1883 -0.1635
36140DPPC   C1B44310  12.079   4.821  16.900  0.4875  0.2763  0.1180
36140DPPC   C2B44311  12.110   4.749  17.337  0.2469 -0.1266  0.1701
36140DPPC   C3B44312  12.048   4.744  17.824 -0.1852 -0.2170  0.2823
36140DPPC   C4B44313  11.990   4.780  18.300 -0.3178  0.1167 -0.2026
36141DPPC   NC344314  10.584   5.820  16.086  0.0215 -0.0945  0.2124
36141DPPC   PO444315  10.930   5.596  15.993 -0.1063  0.0215  0.3282
36141DPPC   GL144316  11.107   5.483  16.361 -0.1078  0.0034  0.2774
36141DPPC   GL244317  11.149   5.747  16.488 -0.0178 -0.0243  0.5772
36141DPPC   C1A44318  11.189   5.194  16.603 -0.4330 -0.0813  0.0748
36141DPPC   C2A44319  11.186   5.060  16.957  0.0496 -0.1318  0.1181
36141DPPC   C3A44320  11.164   5.012  17.381  0.0500  0.0695  0.0953
36141DPPC   C4A44321  11.175   5.010  17.871  0.0483 -0.1776  0.0263
36141DPPC   C1B44322  11.019   5.568  16.835  0.1423 -0.0283  0.1976
36141DPPC   C2B44323  11.151   5.488  17.210  0.0185  0.1342 -0.1677
36141DPPC   C3B44324  11.162   5.489  17.662  0.1944 -0.0606 -0.1914
36141DPPC   C4B44325  11.089   5.568  18.174 -0.0791 -0.2775  0.1227
36142DPPC   NC344326  13.318   3.458  15.626 -0.0793 -0.0479 -0.1191
36142DPPC   PO444327  13.335   3.478  15.991 -0.1372 -0.0142 -0.1545
36142DPPC   GL144328  13.287   3.605  16.377 -0.0470 -0.0615 -0.1936
36142DPPC   GL244329  13.479   3.872  16.248 -0.0994  0.2928 -0.3417
36142DPPC   C1A44330  13.391   3.640  16.725  0.2589 -0.2865  0.0524
36142DPPC   C2A44331  13.502   3.676  17.152 -0.3332  0.1269  0.0489
36142DPPC   C3A44332  13.567   3.745  17.624  0.1720  0.2101 -0.0821
36142DPPC   C4A44333  13.602   3.741  18.086 -0.0767 -0.0377 -0.0393
36142DPPC   C1B44334  13.682   3.936  16.538  0.2339 -0.1709 -0.3177
36142DPPC   C2B44335  13.877   3.921  16.939 -0.1071  0.1283  0.2003
36142DPPC   C3B44336  13.967   4.079  17.375 -0.4021 -0.0168 -0.2618
36142DPPC   C4B44337  13.974   4.090  17.861 -0.3060 -0.1734 -0.1234
36143DPPC   NC344338  14.209   4.542  15.560 -0.3275  0.0615 -0.1116
36143DPPC   PO444339  14.268   4.722  15.909  0.2419 -0.2000  0.1259
36143DPPC   GL144340  14.133   4.629  16.324 -0.1364  0.4091 -0.3933
36143DPPC   GL244341  14.222   4.884  16.384 -0.3315  0.2388 -0.0495
36143DPPC   C1A44342  14.068   4.533  16.701  0.2531 -0.2647  0.0688
36143DPPC   C2A44343  13.919   4.465  17.089  0.2269 -0.3329 -0.2206
36143DPPC   C3A44344  13.907   4.514  17.614 -0.1691 -0.1461 -0.0029
36143DPPC   C4A44345  13.886   4.462  18.129  0.3366  0.2068 -0.0934
36143DPPC   C1B44346  14.298   4.902  16.770  0.0278  0.3297 -0.2938
36143DPPC   C2B44347  14.302   4.888  17.156  0.1817  0.1802 -0.0354
36143DPPC   C3B44348  14.305   4.892  17.622  0.2114  0.2854 -0.1345
36143DPPC   C4B44349  14.273   4.879  18.119  0.2577 -0.0167 -0.0916
36144DPPC   NC344350  12.920   4.491  16.086 -0.0892  0.0889  0.0447
36144DPPC   PO444351  13.019   4.130  16.267  0.3729  0.0292  0.0097
36144DPPC   GL144352  13.285   4.060  16.608 -0.0147 -0.1941 -0.2672
36144DPPC   GL244353  13.047   3.875  16.628 -0.2090 -0.1261  0.2147
36144DPPC   C1A44354  13.391   4.115  16.922 -0.2069 -0.1866 -0.0143
36144DPPC   C2A44355  13.459   4.203  17.331  0.0529  0.1366  0.2480
36144DPPC   C3A44356  13.511   4.221  17.821  0.0421 -0.1125  0.1223
36144DPPC   C4A44357  13.472   4.201  18.322  0.1755 -0.1117 -0.0582
36144DPPC   C1B44358  13.062   3.856  17.015 -0.1286  0.1207 -0.1442
36144DPPC   C2B44359  13.055   3.834  17.458 -0.0868 -0.2697 -0.2371
36144DPPC   C3B44360  13.139   3.925  17.929 -0.2322 -0.0594 -0.0562
36144DPPC   C4B44361  13.086   3.865  18.404  0.1750 -0.0856  0.4200
36145DPPC   NC344362  12.367   3.417  15.901  0.0333  0.1421 -0.0966
36145DPPC   PO444363  12.400   3.467  16.315  0.1489  0.0579  0.0634
36145DPPC   GL144364  12.583   3.744  16.572  0.0886  0.1353 -0.2802
36145DPPC   GL244365  12.782   3.574  16.649  0.0104  0.2485  0.1301
36145DPPC   C1A44366  12.432   3.954  16.905 -0.0076  0.1788  0.0687
36145DPPC   C2A44367  12.575   4.059  17.338  0.1021 -0.2531  0.0028
36145DPPC   C3A44368  12.612   4.119  17.882  0.1475 -0.2234 -0.0513
36145DPPC   C4A44369  12.635   4.173  18.329  0.0765  0.0045  0.0114
36145DPPC   C1B44370  12.705   3.587  16.984  0.1830  0.3377  0.0249
36145DPPC   C2B44371  12.707   3.505  17.427  0.0731  0.1151  0.0480
36145DPPC   C3B44372  12.683   3.605  17.923 -0.0090  0.2238 -0.3259
36145DPPC   C4B44373  12.671   3.527  18.448  0.1961  0.1901  0.0918
36146DPPC   NC344374  10.728   3.091  15.723  0.1665  0.2155  0.1016
36146DPPC   PO444375  10.987   3.352  15.910  0.0593  0.0674 -0.2644
36146DPPC   GL144376  11.039   3.178  16.295 -0.1111  0.0413  0.0655
36146DPPC   GL244377  11.106   3.367  16.446 -0.1652  0.1244  0.2376
36146DPPC   C1A44378  10.994   2.936  16.593  0.3626  0.5765  0.2406
36146DPPC   C2A44379  11.025   2.750  16.971  0.0240 -0.1464 -0.0222
36146DPPC   C3A44380  11.035   2.753  17.440 -0.1847 -0.1724 -0.2192
36146DPPC   C4A44381  11.038   2.719  17.955 -0.0219 -0.1536  0.0357
36146DPPC   C1B44382  11.086   3.284  16.831  0.2033 -0.4660 -0.1018
36146DPPC   C2B44383  11.068   3.257  17.225 -0.1299  0.1561  0.0051
36146DPPC   C3B44384  11.028   3.271  17.679 -0.0871  0.3700  0.0864
36146DPPC   C4B44385  11.021   3.204  18.226  0.1641 -0.0858  0.1983
36147DPPC   NC344386  13.759   2.963  15.685 -0.0682  0.1989 -0.0521
36147DPPC   PO444387  14.003   2.869  15.979 -0.0994  0.0971  0.0791
36147DPPC   GL144388  13.852   2.714  16.344 -0.0088  0.0660 -0.0731
36147DPPC   GL244389  13.942   2.984  16.468  0.6174 -0.1377  0.1709
36147DPPC   C1A44390  13.953   2.539  16.658  0.0317  0.2189 -0.2029
36147DPPC   C2A44391  14.097   2.550  17.019  0.0465 -0.0547  0.1189
36147DPPC   C3A44392  14.118   2.553  17.557  0.3645 -0.3406 -0.4101
36147DPPC   C4A44393  14.129   2.515  18.023 -0.1589 -0.0331  0.1308
36147DPPC   C1B44394  13.951   2.982  16.834 -0.1121  0.0752 -0.2032
36147DPPC   C2B44395  14.067   2.966  17.252 -0.0140  0.0912 -0.1941
36147DPPC   C3B44396  14.048   3.033  17.706 -0.2529  0.0109  0.0625
36147DPPC   C4B44397  14.102   3.095  18.219 -0.1487 -0.2379  0.3961
36148DPPC   NC344398  14.134   3.295  16.159  0.0183  0.0383 -0.2633
36148DPPC   PO444399  13.878   3.434  15.898 -0.1096  0.0441  0.3005
36148DPPC   GL144400  13.717   3.415  16.268 -0.3309 -0.1858 -0.2443
36148DPPC   GL244401  13.597   3.112  16.153  0.1683  0.0631  0.0056
36148DPPC   C1A44402  13.822   3.481  16.643 -0.1363  0.1301 -0.0327
36148DPPC   C2A44403  14.015   3.493  17.023  0.0711  0.4340 -0.0681
36148DPPC   C3A44404  13.989   3.551  17.514  0.2377  0.2854  0.3207
36148DPPC   C4A44405  14.028   3.577  17.994 -0.0553 -0.3614  0.1473
36148DPPC   C1B44406  13.470   2.995  16.481  0.0521 -0.0147 -0.0465
36148DPPC   C2B44407  13.537   3.183  16.832 -0.0464 -0.1182  0.0033
36148DPPC   C3B44408  13.635   3.244  17.298  0.0171  0.0236  0.2356
36148DPPC   C4B44409  13.602   3.233  17.797  0.1334 -0.1938  0.1184
36149DPPC   NC344410  14.816   0.978  16.104  0.0509 -0.1629  0.3035
36149DPPC   PO444411  15.021   0.661  15.964  0.1176 -0.1838  0.0592
36149DPPC   GL144412  15.119   0.715  16.340 -0.2063 -0.0684  0.1439
36149DPPC   GL244413  14.877   0.709  16.532 -0.0600 -0.2184  0.0411
36149DPPC   C1A44414  15.279   0.749  16.669 -0.0665 -0.0021 -0.1909
36149DPPC   C2A44415  15.188   0.777  17.083  0.0496  0.1136  0.0978
36149DPPC   C3A44416  15.236   0.760  17.581 -0.2063  0.0161  0.2260
36149DPPC   C4A44417  15.311   0.845  18.080  0.3238 -0.1119  0.1569
36149DPPC   C1B44418  14.972   0.496  16.771  0.0860  0.0289  0.5358
36149DPPC   C2B44419  14.913   0.367  17.175  0.2512 -0.0621  0.0375
36149DPPC   C3B44420  14.878   0.349  17.684 -0.0252 -0.0889  0.4408
36149DPPC   C4B44421  14.947   0.493  18.138  0.2172 -0.0271  0.1160
36150DPPC   NC344422  11.928   3.673  16.261  0.1278 -0.0448  0.0177
36150DPPC   PO444423  11.970   3.269  16.168 -0.0980  0.3932  0.1366
36150DPPC   GL144424  12.221   3.089  16.532 -0.1023 -0.0105  0.0322
36150DPPC   GL244425  11.933   2.975  16.458 -0.1673  0.3401 -0.2959
36150DPPC   C1A44426  12.288   3.159  16.901  0.0377 -0.4055 -0.2171
36150DPPC   C2A44427  12.324   3.188  17.311  0.0917 -0.1021  0.1486
36150DPPC   C3A44428  12.344   3.291  17.734  0.1814 -0.0113  0.0879
36150DPPC   C4A44429  12.303   3.225  18.206 -0.0543 -0.1465  0.5199
36150DPPC   C1B44430  11.884   2.799  16.754 -0.3016  0.0940 -0.1738
36150DPPC   C2B44431  11.939   2.868  17.169 -0.3251  0.2350 -0.0784
36150DPPC   C3B44432  11.887   2.890  17.640  0.1165 -0.0697  0.1392
36150DPPC   C4B44433  11.932   2.916  18.137  0.0328 -0.1086  0.0980
36151DPPC   NC344434  12.244   1.256  15.835 -0.0697  0.0100  0.0039
36151DPPC   PO444435  12.253   1.486  16.164  0.1350  0.0413 -0.0456
36151DPPC   GL144436  12.525   1.480  16.438 -0.0164 -0.0217  0.1670
36151DPPC   GL244437  12.550   1.696  16.557  0.1901 -0.3041 -0.0586
36151DPPC   C1A44438  12.495   1.242  16.732  0.1239 -0.0045 -0.3049
36151DPPC   C2A44439  12.583   1.141  17.168  0.0643  0.3535  0.0306
36151DPPC   C3A44440  12.549   1.192  17.665 -0.1285 -0.1338  0.2190
36151DPPC   C4A44441  12.598   1.268  18.126  0.0001 -0.0735 -0.0478
36151DPPC   C1B44442  12.528   1.684  16.946  0.0652  0.1145  0.0933
36151DPPC   C2B44443  12.470   1.713  17.346 -0.0884  0.1056 -0.1591
36151DPPC   C3B44444  12.512   1.766  17.876  0.1133  0.0255  0.0015
36151DPPC   C4B44445  12.495   1.786  18.403  0.1212  0.0871 -0.2048
36152DPPC   NC344446   8.452   5.252  16.241 -0.3410  0.2055  0.0179
36152DPPC   PO444447   8.693   5.478  16.039  0.0111  0.1833  0.1618
36152DPPC   GL144448   8.954   5.539  16.345  0.3368  0.0126 -0.2809
36152DPPC   GL244449   9.113   5.334  16.244  0.1544 -0.0206  0.1406
36152DPPC   C1A44450   8.985   5.463  16.763  0.1135 -0.1007  0.3259
36152DPPC   C2A44451   9.017   5.433  17.168  0.1813  0.0244  0.3956
36152DPPC   C3A44452   8.951   5.370  17.650 -0.0480 -0.1986 -0.1358
36152DPPC   C4A44453   8.867   5.320  18.154  0.3773  0.2075  0.0302
36152DPPC   C1B44454   9.249   5.196  16.551 -0.0800 -0.1535 -0.0803
36152DPPC   C2B44455   9.426   5.273  16.914 -0.1278 -0.2387 -0.2679
36152DPPC   C3B44456   9.383   5.248  17.399  0.1253  0.2034  0.1187
36152DPPC   C4B44457   9.384   5.186  17.841  0.0281  0.1949 -0.2249
36153DPPC   NC344458  14.854   3.035  15.711  0.0033 -0.0325  0.2662
36153DPPC   PO444459  15.083   2.812  15.900  0.0943 -0.0428 -0.2209
36153DPPC   GL144460  14.917   2.854  16.262 -0.2163  0.1227 -0.0333
36153DPPC   GL244461  15.106   3.108  16.331 -0.2626  0.0754 -0.2429
36153DPPC   C1A44462  14.892   2.577  16.469  0.1600  0.0058  0.2710
36153DPPC   C2A44463  14.887   2.593  16.849 -0.0706 -0.0274  0.1004
36153DPPC   C3A44464  14.903   2.716  17.329  0.1795 -0.0733 -0.1580
36153DPPC   C4A44465  15.011   2.684  17.819  0.1744  0.0229  0.2660
36153DPPC   C1B44466  15.016   3.307  16.625 -0.1553 -0.1517  0.2628
36153DPPC   C2B44467  14.951   3.218  17.029  0.0625  0.1218 -0.2866
36153DPPC   C3B44468  14.879   3.189  17.491 -0.0737 -0.1565  0.3149
36153DPPC   C4B44469  14.948   3.180  17.961 -0.1640  0.1248 -0.3321
36154DPPC   NC344470  10.738   5.240  15.647  0.1024  0.1282  0.2650
36154DPPC   PO444471  10.962   4.913  15.682  0.1984 -0.0978 -0.0731
36154DPPC   GL144472  10.729   4.879  16.006  0.1633  0.0370  0.0061
36154DPPC   GL244473  10.789   4.616  16.046  0.2660 -0.1733  0.0180
36154DPPC   C1A44474  10.457   4.915  16.275  0.0963  0.0886 -0.1145
36154DPPC   C2A44475  10.325   4.882  16.682 -0.3025  0.0890 -0.1062
36154DPPC   C3A44476  10.289   4.915  17.168 -0.3048 -0.1923 -0.1159
36154DPPC   C4A44477  10.240   4.895  17.639  0.1783  0.0143 -0.1282
36154DPPC   C1B44478  10.843   4.439  16.399  0.1121  0.2131 -0.0958
36154DPPC   C2B44479  10.924   4.219  16.733 -0.0153  0.0154 -0.0749
36154DPPC   C3B44480  10.880   4.233  17.202 -0.2400  0.0444  0.1716
36154DPPC   C4B44481  10.912   4.161  17.729 -0.0003 -0.1454 -0.0808
36155DPPC   NC344482  13.673   1.478  15.554  0.0121 -0.3184 -0.0067
36155DPPC   PO444483  14.035   1.403  15.647 -0.0527  0.0427  0.1415
36155DPPC   GL144484  13.955   1.331  16.132 -0.3237  0.0244  0.3268
36155DPPC   GL244485  14.257   1.485  16.138  0.1382 -0.0498 -0.0661
36155DPPC   C1A44486  13.671   1.283  16.392  0.0053 -0.2741 -0.1426
36155DPPC   C2A44487  13.464   1.247  16.776  0.1215 -0.2531  0.2678
36155DPPC   C3A44488  13.348   1.344  17.233 -0.0434 -0.0899  0.2202
36155DPPC   C4A44489  13.398   1.491  17.678  0.0584  0.0290  0.0656
36155DPPC   C1B44490  14.255   1.568  16.491 -0.2413 -0.0977 -0.2451
36155DPPC   C2B44491  14.293   1.608  16.901 -0.1630  0.4831  0.2789
36155DPPC   C3B44492  14.318   1.579  17.305 -0.1139 -0.0571 -0.0213
36155DPPC   C4B44493  14.264   1.591  17.798  0.0682 -0.1543 -0.0950
36156DPPC   NC344494   9.390   1.023  15.456 -0.1698 -0.0508  0.2869
36156DPPC   PO444495   9.286   1.276  15.771  0.1936  0.1599 -0.2805
36156DPPC   GL144496   9.485   1.152  16.150 -0.0898  0.2022  0.3375
36156DPPC   GL244497   9.738   1.306  16.107 -0.1989  0.0632  0.4942
36156DPPC   C1A44498   9.246   1.076  16.389  0.2255  0.0174 -0.2173
36156DPPC   C2A44499   9.092   1.087  16.783 -0.0203  0.0860 -0.0498
36156DPPC   C3A44500   9.102   1.106  17.252  0.1462  0.1585 -0.2461
36156DPPC   C4A44501   9.056   1.092  17.738 -0.0114  0.1065  0.0099
36156DPPC   C1B44502   9.862   1.226  16.412  0.0198 -0.3032  0.2799
36156DPPC   C2B44503   9.940   1.227  16.820 -0.3394 -0.0641 -0.0108
36156DPPC   C3B44504   9.939   1.241  17.293 -0.3486 -0.0740  0.3361
36156DPPC   C4B44505   9.917   1.217  17.777  0.1064 -0.0070 -0.2010
36157DPPC   NC344506  12.581   0.432  15.547 -0.0762  0.2419 -0.0518
36157DPPC   PO444507  12.220   0.313  15.652 -0.2983  0.4234 -0.2302
36157DPPC   GL144508  12.203   0.133  16.024  0.1890 -0.1761 -0.2145
36157DPPC   GL244509  12.364  -0.004  16.219  0.1949 -0.2526  0.3207
36157DPPC   C1A44510  12.165   0.407  16.294 -0.0819 -0.1720  0.1155
36157DPPC   C2A44511  12.243   0.410  16.732 -0.2299  0.0423 -0.2251
36157DPPC   C3A44512  12.284   0.417  17.171  0.2783  0.0467 -0.2798
36157DPPC   C4A44513  12.196   0.429  17.644  0.0364  0.4513  0.0363
36157DPPC   C1B44514  12.220  -0.142  16.534 -0.4464  0.3127 -0.0741
36157DPPC   C2B44515  12.256  -0.096  16.989 -0.1439  0.1308  0.1135
36157DPPC   C3B44516  12.267  -0.044  17.430  0.1720  0.3393 -0.2163
36157DPPC   C4B44517  12.265   0.025  17.886  0.0063 -0.1102 -0.0478
36158DPPC   NC344518  11.792   0.189  15.778  0.0318  0.0511  0.0849
36158DPPC   PO444519  11.499   0.474  15.797  0.0737 -0.2676 -0.1222
36158DPPC   GL144520  11.265   0.378  16.213 -0.0652 -0.0712  0.1203
36158DPPC   GL244521  11.570   0.261  16.256  0.2968 -0.5689 -0.0538
36158DPPC   C1A44522  11.298   0.388  16.608  0.1615 -0.0804 -0.2757
36158DPPC   C2A44523  11.407   0.337  16.997 -0.0138  0.1978  0.1743
36158DPPC   C3A44524  11.391   0.315  17.481  0.0827  0.0254  0.2477
36158DPPC   C4A44525  11.362   0.329  17.905 -0.2147 -0.1089  0.0037
36158DPPC   C1B44526  11.735   0.558  16.451 -0.4217 -0.2026 -0.3858
36158DPPC   C2B44527  11.793   0.600  16.851  0.0101  0.4475 -0.2215
36158DPPC   C3B44528  11.773   0.609  17.379  0.0828 -0.2435  0.2437
36158DPPC   C4B44529  11.766   0.588  17.836  0.1424 -0.1169  0.1960
36159DPPC   NC344530  11.691   4.949  15.911 -0.0248  0.1659 -0.1209
36159DPPC   PO444531  11.890   4.693  16.151  0.0991 -0.1777  0.1187
36159DPPC   GL144532  11.692   4.601  16.525 -0.4783  0.2935 -0.2738
36159DPPC   GL244533  11.494   4.490  16.384 -0.1314 -0.2224 -0.0423
36159DPPC   C1A44534  11.696   4.514  16.880 -0.0153  0.0712  0.1509
36159DPPC   C2A44535  11.683   4.420  17.286 -0.3287 -0.2106  0.0733
36159DPPC   C3A44536  11.675   4.385  17.762  0.2227  0.0569  0.1716
36159DPPC   C4A44537  11.611   4.402  18.271 -0.0199  0.0239 -0.1831
36159DPPC   C1B44538  11.269   4.542  16.612  0.1324 -0.2554 -0.5012
36159DPPC   C2B44539  11.210   4.554  17.028 -0.2345  0.2164  0.4738
36159DPPC   C3B44540  11.202   4.559  17.493 -0.2369 -0.0063 -0.1814
36159DPPC   C4B44541  11.222   4.538  18.015  0.1309 -0.0031 -0.2656
36160DPPC   NC344542  10.013   6.366  15.966  0.0729  0.1127  0.0433
36160DPPC   PO444543   9.967   6.765  15.867 -0.0703 -0.4147  0.1396
36160DPPC   GL144544   9.561   6.779  16.152  0.0588 -0.0531  0.0722
36160DPPC   GL244545   9.771   6.586  16.321  0.1522 -0.0216 -0.2501
36160DPPC   C1A44546   9.336   6.758  16.417 -0.3135  0.3134 -0.1428
36160DPPC   C2A44547   9.309   6.785  16.821 -0.0531  0.2268 -0.2704
36160DPPC   C3A44548   9.290   6.709  17.336 -0.1203 -0.5231 -0.0918
36160DPPC   C4A44549   9.207   6.673  17.866 -0.2628  0.2539  0.1800
36160DPPC   C1B44550   9.753   6.604  16.673 -0.0539 -0.0188  0.0135
36160DPPC   C2B44551   9.710   6.611  17.098  0.2298  0.0850 -0.0543
36160DPPC   C3B44552   9.681   6.496  17.547  0.0235 -0.0711 -0.0514
36160DPPC   C4B44553   9.684   6.422  18.043 -0.0449 -0.1457 -0.3079
36161DPPC   NC344554  14.330   5.222  15.869 -0.3984  0.1020  0.3922
36161DPPC   PO444555  14.030   5.495  15.797 -0.2041  0.1572  0.1866
36161DPPC   GL144556  14.024   5.655  16.185  0.1349 -0.0248 -0.0039
36161DPPC   GL244557  13.717   5.685  16.184  0.0085 -0.3426 -0.0572
36161DPPC   C1A44558  14.222   5.613  16.479  0.0821  0.2758 -0.1468
36161DPPC   C2A44559  14.193   5.452  16.896  0.2076 -0.0850 -0.1254
36161DPPC   C3A44560  14.187   5.376  17.397 -0.1177  0.1394 -0.3107
36161DPPC   C4A44561  14.172   5.260  17.872  0.0677 -0.3320 -0.1814
36161DPPC   C1B44562  13.622   5.738  16.537  0.1301 -0.0063  0.2749
36161DPPC   C2B44563  13.398   5.666  16.853  0.0780 -0.0275 -0.0524
36161DPPC   C3B44564  13.237   5.676  17.309  0.0976 -0.2333  0.0114
36161DPPC   C4B44565  13.293   5.647  17.764  0.0417  0.2148 -0.2593
36162DPPC   NC344566  15.395   2.001  15.975 -0.0919  0.0611 -0.0241
36162DPPC   PO444567  15.315   1.625  15.912  0.1872  0.0724 -0.2386
36162DPPC   GL144568  15.270   1.544  16.340 -0.3359  0.0209  0.0776
36162DPPC   GL244569  15.123   1.285  16.292  0.3924  0.2195 -0.0709
36162DPPC   C1A44570  15.154   1.639  16.618 -0.0109 -0.1783 -0.1551
36162DPPC   C2A44571  15.140   1.731  17.011 -0.0136  0.2702 -0.0287
36162DPPC   C3A44572  15.197   1.742  17.470 -0.1529  0.2756  0.0790
36162DPPC   C4A44573  15.255   1.720  17.957 -0.0465 -0.2368  0.0186
36162DPPC   C1B44574  14.964   1.149  16.551  0.0567 -0.2188  0.3165
36162DPPC   C2B44575  14.824   0.995  16.889  0.2222  0.3314  0.0425
36162DPPC   C3B44576  14.769   0.962  17.420 -0.0637  0.3221 -0.0845
36162DPPC   C4B44577  14.809   0.921  17.918 -0.0869 -0.0023 -0.1429
36163DPPC   NC344578  13.973   0.860  16.259  0.0620 -0.0179  0.1977
36163DPPC   PO444579  13.883   0.491  16.262  0.1967  0.2792  0.0240
36163DPPC   GL144580  13.996   0.175  16.538  0.1561 -0.0107 -0.3309
36163DPPC   GL244581  14.295   0.302  16.472 -0.0402 -0.3057  0.3856
36163DPPC   C1A44582  14.045   0.270  16.888  0.2104  0.0776 -0.2146
36163DPPC   C2A44583  14.025   0.216  17.309  0.0605 -0.3548  0.1911
36163DPPC   C3A44584  14.065   0.211  17.773  0.2267  0.1962  0.0863
36163DPPC   C4A44585  14.039   0.223  18.242  0.2485 -0.0842  0.1914
36163DPPC   C1B44586  14.556   0.266  16.719  0.0630 -0.1957 -0.1784
36163DPPC   C2B44587  14.476   0.095  17.116 -0.0894 -0.0957 -0.1302
36163DPPC   C3B44588  14.478   0.049  17.634 -0.1653 -0.0604 -0.0294
36163DPPC   C4B44589  14.499   0.011  18.078 -0.1870 -0.0621  0.1402
36164DPPC   NC344590  10.323   4.976  15.764 -0.0372 -0.1042  0.4945
36164DPPC   PO444591  10.362   5.359  15.891 -0.0057  0.1672  0.3147
36164DPPC   GL144592  10.490   5.325  16.320  0.0896 -0.0982 -0.1421
36164DPPC   GL244593  10.766   5.240  16.335 -0.3238 -0.1100  0.0342
36164DPPC   C1A44594  10.498   5.533  16.596 -0.0581  0.0923  0.0829
36164DPPC   C2A44595  10.638   5.700  16.992 -0.0390 -0.1578 -0.0864
36164DPPC   C3A44596  10.680   5.740  17.451  0.0996 -0.0647 -0.0339
36164DPPC   C4A44597  10.668   5.709  17.917  0.1642 -0.0458  0.2074
36164DPPC   C1B44598  10.773   5.244  16.727 -0.0733 -0.0251  0.2877
36164DPPC   C2B44599  10.707   5.232  17.139 -0.2247 -0.4183  0.2472
36164DPPC   C3B44600  10.746   5.182  17.671  0.0102  0.1414 -0.2172
36164DPPC   C4B44601  10.702   5.202  18.104 -0.1918 -0.2513  0.0072
36165DPPC   NC344602   9.738   6.034  15.750  0.0273  0.0996 -0.1128
36165DPPC   PO444603  10.114   5.919  15.872 -0.1615  0.0552 -0.0669
36165DPPC   GL144604  10.174   5.859  16.362  0.1493 -0.1890  0.1678
36165DPPC   GL244605   9.963   6.075  16.299  0.0593 -0.0161  0.0519
36165DPPC   C1A44606  10.210   5.840  16.767 -0.1633  0.0640  0.1754
36165DPPC   C2A44607  10.155   5.903  17.207  0.0234 -0.1672  0.0370
36165DPPC   C3A44608  10.227   5.850  17.705  0.0062 -0.0740 -0.0577
36165DPPC   C4A44609  10.220   5.819  18.196  0.0245 -0.2224  0.3632
36165DPPC   C1B44610   9.880   6.138  16.646  0.1115 -0.3735 -0.5339
36165DPPC   C2B44611   9.717   6.104  17.000  0.4146  0.1289 -0.0315
36165DPPC   C3B44612   9.722   5.961  17.426  0.3541  0.0814  0.1084
36165DPPC   C4B44613   9.755   5.921  17.936  0.0516 -0.1498  0.2693
36166DPPC   NC344614  12.381   4.576  16.220 -0.2084  0.1029 -0.3183
36166DPPC   PO444615  12.696   4.822  16.350 -0.0940 -0.1333 -0.2228
36166DPPC   GL144616  12.891   4.993  16.639 -0.1610  0.0644  0.2260
36166DPPC   GL244617  12.590   5.182  16.646 -0.0055  0.1130  0.0116
36166DPPC   C1A44618  12.890   4.838  16.977  0.1151  0.1128 -0.0318
36166DPPC   C2A44619  12.938   4.850  17.408  0.0207 -0.2011 -0.1266
36166DPPC   C3A44620  12.930   4.866  17.873  0.2000  0.1365 -0.0700
36166DPPC   C4A44621  12.970   4.893  18.337 -0.1637  0.0054  0.0527
36166DPPC   C1B44622  12.507   5.228  17.002 -0.0198 -0.0102 -0.0549
36166DPPC   C2B44623  12.488   5.140  17.438  0.2225  0.2937  0.4546
36166DPPC   C3B44624  12.449   5.065  17.930  0.2407 -0.3049 -0.2426
36166DPPC   C4B44625  12.387   5.019  18.400 -0.1096  0.1348  0.2122
36167DPPC   NC344626  10.131   2.648  15.249 -0.3179  0.0333  0.1497
36167DPPC   PO444627   9.884   2.849  15.562 -0.1104  0.1214  0.1041
36167DPPC   GL144628   9.710   2.774  15.998 -0.2296  0.0676  0.3676
36167DPPC   GL244629   9.949   2.741  16.104  0.1629 -0.0865 -0.0290
36167DPPC   C1A44630   9.440   2.695  16.284 -0.0081 -0.1734 -0.0302
36167DPPC   C2A44631   9.319   2.877  16.562 -0.1196 -0.0749 -0.0619
36167DPPC   C3A44632   9.277   2.896  17.098  0.2474 -0.0847 -0.0551
36167DPPC   C4A44633   9.263   2.905  17.603 -0.1061 -0.0662  0.2003
36167DPPC   C1B44634   9.870   2.799  16.496  0.2624  0.1360  0.1250
36167DPPC   C2B44635   9.703   2.774  16.914 -0.0284 -0.0042  0.1105
36167DPPC   C3B44636   9.749   2.706  17.392  0.0859 -0.2342  0.0003
36167DPPC   C4B44637   9.740   2.771  17.857 -0.0559  0.0602 -0.3102
36168DPPC   NC344638  10.218   3.686  15.707  0.2912 -0.1337  0.3020
36168DPPC   PO444639  10.289   3.282  15.690 -0.1373 -0.3179 -0.0835
36168DPPC   GL144640  10.349   3.194  16.100  0.1842  0.2658 -0.5031
36168DPPC   GL244641  10.611   3.176  16.189  0.0206  0.0125 -0.0154
36168DPPC   C1A44642  10.176   3.133  16.481 -0.1433 -0.0061 -0.0541
36168DPPC   C2A44643  10.169   3.026  16.927  0.0619  0.2448  0.1089
36168DPPC   C3A44644  10.162   3.014  17.417 -0.0522 -0.3722 -0.0392
36168DPPC   C4A44645  10.135   3.091  17.893 -0.0638 -0.3246  0.0437
36168DPPC   C1B44646  10.631   3.357  16.543  0.1849  0.0902  0.2813
36168DPPC   C2B44647  10.582   3.444  16.976 -0.3791  0.0737  0.0614
36168DPPC   C3B44648  10.546   3.422  17.459  0.1374 -0.3100  0.0072
36168DPPC   C4B44649  10.547   3.365  17.937  0.0533  0.2023  0.0003
36169DPPC   NC344650  11.031   0.318  15.822 -0.0109 -0.1170 -0.0038
36169DPPC   PO444651  11.060   0.733  15.773  0.0530  0.1008 -0.0606
36169DPPC   GL144652  11.244   0.925  16.050 -0.1159 -0.3385  0.0795
36169DPPC   GL244653  10.944   0.979  16.108 -0.0269 -0.3741  0.0793
36169DPPC   C1A44654  11.338   0.736  16.378  0.0532  0.0564  0.3153
36169DPPC   C2A44655  11.341   0.776  16.754  0.3193  0.0947  0.0274
36169DPPC   C3A44656  11.317   0.873  17.214 -0.0534  0.1084 -0.2332
36169DPPC   C4A44657  11.331   0.792  17.675  0.0273 -0.2394 -0.2150
36169DPPC   C1B44658  10.902   0.879  16.515 -0.2425 -0.0216  0.0834
36169DPPC   C2B44659  10.905   0.961  16.889 -0.0509  0.0657 -0.1684
36169DPPC   C3B44660  10.852   0.989  17.325  0.1147 -0.0621 -0.2679
36169DPPC   C4B44661  10.840   0.929  17.803  0.0478  0.1126  0.0768
36170DPPC   NC344662  14.543   0.295  15.489  0.1742  0.1036 -0.1374
36170DPPC   PO444663  14.670   0.026  15.764 -0.2029 -0.0986 -0.0912
36170DPPC   GL144664  14.683  -0.068  16.132 -0.0144 -0.1152  0.0129
36170DPPC   GL244665  14.952  -0.220  16.123  0.1198 -0.1628  0.0083
36170DPPC   C1A44666  14.562  -0.191  16.481  0.0531 -0.0526 -0.2457
36170DPPC   C2A44667  14.513  -0.396  16.887 -0.0247  0.0851  0.0274
36170DPPC   C3A44668  14.513  -0.422  17.326  0.1017  0.0512  0.0982
36170DPPC   C4A44669  14.545  -0.422  17.797 -0.1690 -0.2034 -0.1397
36170DPPC   C1B44670  15.259  -0.187  16.387  0.2244  0.1522  0.0434
36170DPPC   C2B44671  15.403  -0.223  16.717  0.1024 -0.0610  0.4699
36170DPPC   C3B44672  15.376  -0.185  17.247 -0.0651 -0.0254  0.0179
36170DPPC   C4B44673  15.430  -0.183  17.789 -0.1602  0.0376 -0.0103
36171DPPC   NC344674  14.465   1.610  15.755 -0.0485  0.0669 -0.2646
36171DPPC   PO444675  14.761   1.444  15.979 -0.1931 -0.0414 -0.3328
36171DPPC   GL144676  14.704   1.474  16.374  0.4512  0.0872 -0.1657
36171DPPC   GL244677  14.579   1.736  16.356  0.1087  0.1373 -0.1694
36171DPPC   C1A44678  14.747   1.495  16.755  0.1079  0.2908  0.1054
36171DPPC   C2A44679  14.731   1.412  17.152  0.2256  0.0818 -0.2254
36171DPPC   C3A44680  14.760   1.372  17.625 -0.0748  0.0746  0.2289
36171DPPC   C4A44681  14.820   1.371  18.124  0.0854  0.1617  0.2116
36171DPPC   C1B44682  14.724   1.910  16.625 -0.2815  0.3204 -0.0771
36171DPPC   C2B44683  14.712   2.013  17.012  0.0247 -0.0095  0.0478
36171DPPC   C3B44684  14.729   1.935  17.462 -0.1593 -0.1990  0.3021
36171DPPC   C4B44685  14.760   1.856  18.005 -0.1231  0.0009 -0.1971
36172DPPC   NC344686  13.762   0.198  15.866 -0.2282 -0.2184 -0.0816
36172DPPC   PO444687  13.760  -0.067  16.136  0.1360  0.1001  0.0411
36172DPPC   GL144688  13.645  -0.088  16.558  0.3553  0.4082 -0.4369
36172DPPC   GL244689  13.483  -0.365  16.415  0.2810  0.0336 -0.0869
36172DPPC   C1A44690  13.553  -0.074  16.872  0.1209 -0.2611  0.1226
36172DPPC   C2A44691  13.591  -0.046  17.305 -0.0550 -0.1571  0.1638
36172DPPC   C3A44692  13.622  -0.112  17.737  0.1002  0.1412  0.0508
36172DPPC   C4A44693  13.653  -0.170  18.249 -0.1161  0.3355 -0.0333
36172DPPC   C1B44694  13.618  -0.490  16.728 -0.2863 -0.2900 -0.1211
36172DPPC   C2B44695  13.655  -0.629  17.094 -0.2328 -0.1525 -0.0427
36172DPPC   C3B44696  13.675  -0.685  17.546 -0.1214 -0.1709 -0.1252
36172DPPC   C4B44697  13.621  -0.654  18.026 -0.2577 -0.0288  0.1535
36173DPPS   CNO44698  13.639   1.968  15.653  0.1437  0.1512  0.0920
36173DPPS   PO444699  13.319   2.044  15.770  0.1831 -0.4065 -0.0405
36173DPPS   GL144700  13.382   1.901  16.194  0.0837  0.2730  0.1272
36173DPPS   GL244701  13.580   1.754  16.183 -0.1972  0.0790  0.5229
36173DPPS   C1A44702  13.508   2.021  16.537 -0.1230  0.1350  0.0495
36173DPPS   C2A44703  13.693   2.175  16.899 -0.1500 -0.3796 -0.1042
36173DPPS   C3A44704  13.721   2.346  17.323  0.0494  0.0378 -0.0890
36173DPPS   C4A44705  13.763   2.275  17.792 -0.1267 -0.2904  0.2540
36173DPPS   C1B44706  13.894   1.691  16.354 -0.2090  0.1178  0.1553
36173DPPS   C2B44707  13.816   1.667  16.753  0.0856 -0.1514  0.0918
36173DPPS   C3B44708  13.783   1.742  17.225  0.1625  0.2745  0.2567
36173DPPS   C4B44709  13.823   1.790  17.681  0.1174  0.0944  0.0801
36174DPPS   CNO44710  13.728   1.044  15.810 -0.2767  0.2851 -0.1494
36174DPPS   PO444711  13.578   0.738  15.958  0.1948 -0.1223 -0.2973
36174DPPS   GL144712  13.547   0.793  16.394 -0.0757 -0.1828  0.0937
36174DPPS   GL244713  13.231   0.612  16.351  0.0608 -0.0497  0.0118
36174DPPS   C1A44714  13.542   0.797  16.751  0.0630 -0.0659  0.5724
36174DPPS   C2A44715  13.499   0.838  17.157 -0.0122  0.0145 -0.1395
36174DPPS   C3A44716  13.468   0.877  17.620  0.0005 -0.2815  0.1950
36174DPPS   C4A44717  13.526   0.965  18.092  0.0540  0.2060 -0.2067
36174DPPS   C1B44718  13.104   0.855  16.598  0.1937  0.3513  0.2853
36174DPPS   C2B44719  13.094   0.981  16.950  0.0658  0.2712 -0.0523
36174DPPS   C3B44720  12.975   1.028  17.432  0.1145  0.2368  0.0268
36174DPPS   C4B44721  13.050   1.031  17.924 -0.2181  0.4367 -0.0776
36175DPPS   CNO44722  12.356   0.946  15.429  0.0261  0.3474 -0.0358
36175DPPS   PO444723  12.516   0.866  15.782 -0.0266  0.0673 -0.0187
36175DPPS   GL144724  12.541   1.008  16.176 -0.4114 -0.0575 -0.0551
36175DPPS   GL244725  12.283   0.865  16.198 -0.2726 -0.0359  0.1297
36175DPPS   C1A44726  12.674   0.885  16.513 -0.1794  0.0683 -0.2241
36175DPPS   C2A44727  12.644   0.697  16.917  0.1459  0.0033  0.0783
36175DPPS   C3A44728  12.585   0.711  17.412 -0.0358  0.0205  0.1230
36175DPPS   C4A44729  12.607   0.695  17.925 -0.0752  0.0058 -0.0571
36175DPPS   C1B44730  12.138   0.797  16.553 -0.1631  0.0456  0.4026
36175DPPS   C2B44731  12.183   0.905  16.952 -0.0380  0.2001 -0.2674
36175DPPS   C3B44732  12.166   0.925  17.432 -0.3197  0.0312 -0.3096
36175DPPS   C4B44733  12.159   0.920  17.937 -0.1801  0.0503  0.1791
36176DPPS   CNO44734  12.957   5.469  15.888  0.0284 -0.1273  0.0932
36176DPPS   PO444735  13.116   5.820  16.058 -0.0812 -0.2186  0.3122
36176DPPS   GL144736  13.242   5.885  16.464  0.0511 -0.1475 -0.2326
36176DPPS   GL244737  13.108   5.608  16.560  0.0673 -0.2124  0.0964
36176DPPS   C1A44738  13.240   6.096  16.769 -0.2252 -0.1905  0.0957
36176DPPS   C2A44739  13.220   6.222  17.115 -0.1489  0.0179 -0.2316
36176DPPS   C3A44740  13.230   6.265  17.620  0.0687  0.0669 -0.1179
36176DPPS   C4A44741  13.238   6.240  18.080 -0.1271 -0.0334  0.1744
36176DPPS   C1B44742  12.927   5.452  16.866  0.0562 -0.2003  0.1058
36176DPPS   C2B44743  12.898   5.333  17.230 -0.4291 -0.1852 -0.1515
36176DPPS   C3B44744  12.840   5.405  17.723  0.1458  0.2836 -0.0642
36176DPPS   C4B44745  12.854   5.354  18.193  0.0782  0.1512  0.0467
36177DPPS   CNO44746  11.561   2.012  15.741  0.0246 -0.0594 -0.1789
36177DPPS   PO444747  11.391   2.020  16.110 -0.0379 -0.2400  0.0024
36177DPPS   GL144748  11.415   2.084  16.514  0.2060  0.2472  0.3227
36177DPPS   GL244749  11.527   2.345  16.517 -0.1710 -0.0479  0.0185
36177DPPS   C1A44750  11.285   1.843  16.757  0.1935 -0.1264 -0.3418
36177DPPS   C2A44751  11.237   1.797  17.135 -0.2119 -0.0248 -0.0660
36177DPPS   C3A44752  11.196   1.769  17.611 -0.1161  0.0271 -0.2815
36177DPPS   C4A44753  11.245   1.760  18.129  0.2035  0.1619 -0.1053
36177DPPS   C1B44754  11.564   2.506  16.832 -0.1004  0.1892 -0.2430
36177DPPS   C2B44755  11.491   2.576  17.233  0.1103  0.2416  0.1108
36177DPPS   C3B44756  11.454   2.586  17.711  0.1525  0.2629  0.1061
36177DPPS   C4B44757  11.551   2.626  18.219 -0.0598 -0.0527 -0.4442
36178DPPS   CNO44758  11.461   1.390  15.480 -0.2265  0.2956  0.0371
36178DPPS   PO444759  11.400   1.571  15.815 -0.1062  0.0520 -0.2328
36178DPPS   GL144760  11.449   1.393  16.178  0.1275 -0.1672  0.2457
36178DPPS   GL244761  11.213   1.328  16.165 -0.1107  0.1465  0.0045
36178DPPS   C1A44762  11.558   1.542  16.533 -0.0685  0.0136  0.1850
36178DPPS   C2A44763  11.679   1.584  16.938  0.0816  0.2275 -0.0363
36178DPPS   C3A44764  11.668   1.552  17.438  0.1023 -0.2154  0.0127
36178DPPS   C4A44765  11.709   1.584  17.896  0.0234  0.4157 -0.1000
36178DPPS   C1B44766  11.246   1.187  16.530  0.0415 -0.2444  0.1049
36178DPPS   C2B44767  11.244   1.291  16.973 -0.0441  0.1289  0.1617
36178DPPS   C3B44768  11.264   1.291  17.432  0.0160  0.1547  0.0949
36178DPPS   C4B44769  11.262   1.298  17.888 -0.1638 -0.3256 -0.1947
36179DPPS   CNO44770  12.645   5.932  15.861  0.3202 -0.0684  0.0280
36179DPPS   PO444771  12.642   6.313  15.965  0.2563 -0.0751 -0.2346
36179DPPS   GL144772  12.587   6.266  16.382  0.1895  0.1224  0.0927
36179DPPS   GL244773  12.661   5.976  16.359  0.2716  0.2054  0.2369
36179DPPS   C1A44774  12.647   6.353  16.734  0.2807  0.1645  0.1348
36179DPPS   C2A44775  12.714   6.308  17.162 -0.0620 -0.0873  0.1389
36179DPPS   C3A44776  12.719   6.346  17.620  0.1304  0.3878  0.1726
36179DPPS   C4A44777  12.748   6.388  18.103  0.0340  0.0462 -0.0968
36179DPPS   C1B44778  12.712   5.890  16.679 -0.4781 -0.1143 -0.1901
36179DPPS   C2B44779  12.792   5.835  17.109  0.0285  0.2450  0.3312
36179DPPS   C3B44780  12.832   5.873  17.557  0.1881  0.0413  0.0512
36179DPPS   C4B44781  12.909   5.895  18.078  0.4000  0.1639 -0.1251
36180DPPS   CNO44782  13.832   6.251  15.682 -0.2466  0.0652  0.2728
36180DPPS   PO444783  14.017   6.046  15.962  0.2100 -0.1014 -0.1050
36180DPPS   GL144784  14.060   6.017  16.456  0.3102  0.1168  0.2492
36180DPPS   GL244785  14.055   6.257  16.375  0.2511  0.0267 -0.1025
36180DPPS   C1A44786  14.078   5.896  16.789 -0.3110 -0.0350  0.1894
36180DPPS   C2A44787  14.124   5.873  17.225  0.5677 -0.0935 -0.2704
36180DPPS   C3A44788  14.168   5.825  17.688  0.2793 -0.0257 -0.0214
36180DPPS   C4A44789  14.125   5.850  18.167 -0.0693 -0.0871 -0.2553
36180DPPS   C1B44790  14.093   6.337  16.718  0.2786 -0.2342  0.1762
36180DPPS   C2B44791  14.015   6.388  17.083  0.1862  0.1957  0.0354
36180DPPS   C3B44792  14.110   6.365  17.531 -0.2419 -0.1715  0.0066
36180DPPS   C4B44793  14.089   6.336  18.002 -0.0808 -0.1122 -0.3591
36181DPPS   CNO44794  14.163   0.924  15.699 -0.1504 -0.0609 -0.1284
36181DPPS   PO444795  14.363   1.117  15.956  0.1818  0.0143  0.0326
36181DPPS   GL144796  14.309   1.140  16.388  0.3548 -0.2256  0.0021
36181DPPS   GL244797  14.500   1.120  16.513  0.0804  0.1035  0.1082
36181DPPS   C1A44798  14.026   1.164  16.645  0.0505 -0.4715  0.0852
36181DPPS   C2A44799  13.871   1.234  17.031 -0.1606 -0.2986 -0.0738
36181DPPS   C3A44800  13.923   1.241  17.499 -0.2970 -0.2113 -0.0812
36181DPPS   C4A44801  13.885   1.309  18.020 -0.1297 -0.0264  0.1536
36181DPPS   C1B44802  14.396   1.177  16.857 -0.4990 -0.2526  0.5157
36181DPPS   C2B44803  14.343   1.072  17.218  0.0320  0.2061 -0.3878
36181DPPS   C3B44804  14.379   0.986  17.676  0.0995  0.2704 -0.0024
36181DPPS   C4B44805  14.342   1.074  18.158 -0.2028 -0.4430  0.1503
36182DPPS   CNO44806  10.776   6.368  15.418  0.0533  0.1001 -0.0316
36182DPPS   PO444807  11.057   6.394  15.639 -0.3661  0.0440 -0.1827
36182DPPS   GL144808  10.997   6.387  16.037 -0.1405  0.0493  0.3498
36182DPPS   GL244809  10.876   6.180  16.146 -0.0797  0.3618 -0.2544
36182DPPS   C1A44810  11.077   6.626  16.319 -0.0868  0.0904  0.0836
36182DPPS   C2A44811  11.113   6.629  16.751 -0.1112  0.1297  0.0875
36182DPPS   C3A44812  11.037   6.560  17.248 -0.0956 -0.2350  0.1141
36182DPPS   C4A44813  10.942   6.587  17.736  0.5136  0.0153 -0.1386
36182DPPS   C1B44814  10.967   6.268  16.534  0.0360 -0.0107  0.3601
36182DPPS   C2B44815  11.091   6.110  16.928 -0.0715 -0.0564 -0.0718
36182DPPS   C3B44816  11.042   6.073  17.412 -0.1225  0.1566  0.3648
36182DPPS   C4B44817  11.036   5.996  17.926  0.0849 -0.0153  0.0909
36183DPPS   CNO44818  10.744   1.146  15.729 -0.1262  0.1812  0.0748
36183DPPS   PO444819  10.812   1.434  15.976  0.1369  0.0070 -0.1495
36183DPPS   GL144820  10.780   1.307  16.399  0.2091  0.1425 -0.2922
36183DPPS   GL244821  10.536   1.151  16.295 -0.4398  0.0465 -0.2286
36183DPPS   C1A44822  10.837   1.409  16.737 -0.1972  0.0805 -0.1990
36183DPPS   C2A44823  10.838   1.437  17.139  0.0563 -0.2372  0.2169
36183DPPS   C3A44824  10.788   1.435  17.613  0.0028 -0.1586 -0.2992
36183DPPS   C4A44825  10.775   1.401  18.113  0.0831 -0.2320 -0.1037
36183DPPS   C1B44826  10.488   1.063  16.627  0.0618  0.1996 -0.2210
36183DPPS   C2B44827  10.424   1.118  17.076  0.1000 -0.0953 -0.0976
36183DPPS   C3B44828  10.398   1.109  17.509 -0.2218 -0.1771  0.0286
36183DPPS   C4B44829  10.390   1.101  18.022  0.1975 -0.0916  0.0519
36184DPPS   CNO44830  12.519   2.563  15.433 -0.0622  0.0612 -0.0622
36184DPPS   PO444831  12.293   2.617  15.758  0.1149  0.1935 -0.1240
36184DPPS   GL144832  12.348   2.455  16.175 -0.3191 -0.1981 -0.1464
36184DPPS   GL244833  12.605   2.579  16.157  0.2426  0.0854  0.0576
36184DPPS   C1A44834  12.259   2.624  16.506  0.1247 -0.0829  0.1529
36184DPPS   C2A44835  12.338   2.700  16.924 -0.0216  0.3354  0.0686
36184DPPS   C3A44836  12.371   2.677  17.446 -0.1851 -0.0040  0.2486
36184DPPS   C4A44837  12.378   2.781  17.968  0.0342  0.0108 -0.4066
36184DPPS   C1B44838  12.701   2.590  16.536 -0.4590  0.1853  0.3144
36184DPPS   C2B44839  12.817   2.456  16.914  0.1661  0.0269  0.1913
36184DPPS   C3B44840  12.849   2.554  17.400 -0.0616 -0.0719 -0.1197
36184DPPS   C4B44841  12.796   2.519  17.881 -0.2305  0.1303 -0.2832
36185DPPS   CNO44842  15.067   0.372  15.544 -0.1327  0.1644 -0.0603
36185DPPS   PO444843  15.136   0.181  15.860 -0.0032 -0.1343  0.0045
36185DPPS   GL144844  15.123   0.259  16.250 -0.1062  0.5778 -0.0610
36185DPPS   GL244845  15.375   0.245  16.364  0.4085 -0.0114 -0.1136
36185DPPS   C1A44846  14.878   0.102  16.509 -0.0716 -0.1064  0.0849
36185DPPS   C2A44847  14.909  -0.092  16.896  0.0277  0.2808 -0.0731
36185DPPS   C3A44848  14.908  -0.072  17.385 -0.2073 -0.2655  0.0963
36185DPPS   C4A44849  14.977  -0.116  17.863 -0.0273 -0.0762 -0.1285
36185DPPS   C1B44850  15.450   0.276  16.692 -0.1475  0.3586  0.2250
36185DPPS   C2B44851  15.411   0.311  17.065  0.1899 -0.0359  0.1932
36185DPPS   C3B44852  15.323   0.204  17.566  0.0509 -0.2405 -0.0769
36185DPPS   C4B44853  15.421   0.273  18.082 -0.2258 -0.0449  0.3012
36186DPPS   CNO44854   9.334   3.878  15.517 -0.0944 -0.1406 -0.0562
36186DPPS   PO444855   9.555   3.707  15.798  0.0845  0.0346  0.3610
36186DPPS   GL144856   9.520   3.811  16.191  0.2963  0.0625  0.1378
36186DPPS   GL244857   9.781   4.003  16.175  0.6657  0.1019  0.1602
36186DPPS   C1A44858   9.575   3.842  16.515  0.0376  0.4664  0.0890
36186DPPS   C2A44859   9.710   3.721  16.853  0.0924 -0.0528 -0.0715
36186DPPS   C3A44860   9.621   3.663  17.323 -0.3190  0.3116 -0.1356
36186DPPS   C4A44861   9.576   3.711  17.827  0.1190  0.1556 -0.0780
36186DPPS   C1B44862  10.016   4.043  16.480 -0.2185  0.2477  0.1408
36186DPPS   C2B44863  10.081   4.090  16.895  0.2175  0.2311  0.1634
36186DPPS   C3B44864  10.071   4.050  17.367 -0.2853  0.0676 -0.1042
36186DPPS   C4B44865   9.994   4.093  17.874  0.1422  0.2168  0.1596
36187DPPS   CNO44866  13.456   0.447  15.582 -0.1089  0.1897  0.1322
36187DPPS   PO444867  13.204   0.332  15.852 -0.2155 -0.2298 -0.4751
36187DPPS   GL144868  13.319   0.030  16.214  0.0353 -0.0757 -0.1120
36187DPPS   GL244869  13.456   0.288  16.230  0.1371 -0.0082 -0.0208
36187DPPS   C1A44870  13.217   0.060  16.567 -0.4401 -0.1397 -0.0605
36187DPPS   C2A44871  13.071  -0.004  16.879  0.1773 -0.1616 -0.3323
36187DPPS   C3A44872  13.121   0.071  17.420  0.2671  0.1146 -0.0116
36187DPPS   C4A44873  13.117   0.116  17.907  0.2534  0.1492  0.1338
36187DPPS   C1B44874  13.512   0.371  16.599 -0.1491 -0.4844 -0.0061
36187DPPS   C2B44875  13.472   0.336  17.034 -0.0712 -0.0042 -0.1161
36187DPPS   C3B44876  13.643   0.372  17.543  0.2637  0.4220  0.0419
36187DPPS   C4B44877  13.564   0.386  18.031 -0.1641 -0.3833  0.1390
36188DPPS   CNO44878  13.227   1.094  15.729  0.3492  0.0984 -0.2747
36188DPPS   PO444879  13.252   1.452  15.878 -0.0900 -0.0027 -0.2109
36188DPPS   GL144880  13.253   1.415  16.263 -0.1728  0.1882 -0.1607
36188DPPS   GL244881  13.083   1.176  16.315 -0.2340 -0.0416  0.0347
36188DPPS   C1A44882  13.324   1.627  16.530  0.1911 -0.1115  0.2656
36188DPPS   C2A44883  13.335   1.766  16.927  0.2258 -0.2566 -0.0198
36188DPPS   C3A44884  13.344   1.939  17.422 -0.1068  0.0712  0.1545
36188DPPS   C4A44885  13.387   1.943  17.894 -0.0109  0.0551 -0.0821
36188DPPS   C1B44886  12.937   1.332  16.612  0.0382 -0.0103  0.0971
36188DPPS   C2B44887  12.946   1.506  16.965 -0.0293  0.0185  0.1188
36188DPPS   C3B44888  12.929   1.522  17.413 -0.2084  0.0569 -0.1393
36188DPPS   C4B44889  12.935   1.504  17.915  0.0781 -0.2752 -0.2316
36189DPPS   CNO44890  10.835   0.236  15.367  0.2535 -0.2525  0.0984
36189DPPS   PO444891  10.590   0.225  15.699 -0.6821 -0.2177  0.0539
36189DPPS   GL144892  10.656  -0.013  16.134 -0.2987 -0.2756  0.5502
36189DPPS   GL244893  10.390   0.114  16.023  0.0001  0.5422  0.2460
36189DPPS   C1A44894  10.625   0.094  16.533  0.0731  0.0525  0.1670
36189DPPS   C2A44895  10.577   0.113  16.933  0.0160  0.0161 -0.1142
36189DPPS   C3A44896  10.545   0.019  17.448  0.0782  0.0553 -0.0675
36189DPPS   C4A44897  10.511   0.024  17.954  0.2885  0.0804  0.0669
36189DPPS   C1B44898  10.195   0.317  16.296  0.0179 -0.0674 -0.1518
36189DPPS   C2B44899  10.114   0.306  16.674  0.2591 -0.0967 -0.2302
36189DPPS   C3B44900  10.165   0.264  17.164  0.1344  0.0519  0.1431
36189DPPS   C4B44901  10.141   0.249  17.689  0.2073 -0.0026  0.2476
36190DPPS   CNO44902  11.189   3.897  15.832  0.4040  0.0936 -0.0700
36190DPPS   PO444903  11.524   3.824  16.020  0.0775  0.2244  0.2929
36190DPPS   GL144904  11.378   3.689  16.424  0.3419 -0.1714 -0.0094
36190DPPS   GL244905  11.590   3.703  16.575 -0.3799 -0.1833  0.0776
36190DPPS   C1A44906  11.108   3.829  16.657  0.4072  0.3581 -0.0685
36190DPPS   C2A44907  10.971   3.731  17.005  0.1851 -0.1773 -0.1472
36190DPPS   C3A44908  11.024   3.702  17.450  0.2321  0.3140 -0.4323
36190DPPS   C4A44909  10.951   3.683  17.928 -0.1526 -0.0297  0.0049
36190DPPS   C1B44910  11.434   3.619  16.901 -0.5080 -0.0384  0.0320
36190DPPS   C2B44911  11.442   3.536  17.269  0.2996  0.2437  0.0621
36190DPPS   C3B44912  11.412   3.580  17.737  0.0514 -0.1700 -0.0131
36190DPPS   C4B44913  11.384   3.494  18.197  0.0744  0.2649  0.2782
36191DPPS   CNO44914  14.822   4.901  15.758 -0.1781  0.2075  0.0592
36191DPPS   PO444915  14.648   4.917  16.069 -0.3597  0.1087 -0.0436
36191DPPS   GL144916  14.752   4.941  16.493  0.1145 -0.1480  0.0305
36191DPPS   GL244917  14.617   4.694  16.562  0.1846 -0.3393  0.1057
36191DPPS   C1A44918  14.659   5.134  16.751  0.2036  0.0972  0.0502
36191DPPS   C2A44919  14.675   5.195  17.172 -0.3397 -0.0176 -0.1228
36191DPPS   C3A44920  14.759   5.188  17.653 -0.1287  0.0694  0.0120
36191DPPS   C4A44921  14.596   5.248  18.124 -0.0409  0.0811  0.0412
36191DPPS   C1B44922  14.681   4.744  16.944  0.2354  0.1522  0.0214
36191DPPS   C2B44923  14.752   4.743  17.341  0.0414 -0.1245 -0.1606
36191DPPS   C3B44924  14.709   4.712  17.810 -0.0581 -0.0379 -0.2043
36191DPPS   C4B44925  14.736   4.744  18.284 -0.1713  0.0685 -0.0050
36192DPPS   CNO44926   9.775   4.121  15.726  0.0900  0.1047  0.0233
36192DPPS   PO444927  10.058   4.285  15.590  0.1598  0.0190 -0.1001
36192DPPS   GL144928  10.129   4.532  15.975 -0.1110  0.1953  0.1004
36192DPPS   GL244929   9.956   4.391  16.110  0.0569  0.0710 -0.1512
36192DPPS   C1A44930  10.406   4.404  16.248 -0.0280 -0.2138 -0.1310
36192DPPS   C2A44931  10.439   4.325  16.687 -0.0312 -0.0237  0.1467
36192DPPS   C3A44932  10.387   4.405  17.197  0.1732 -0.2228  0.1059
36192DPPS   C4A44933  10.388   4.329  17.695  0.2575  0.0749  0.0204
36192DPPS   C1B44934   9.968   4.475  16.485  0.0608 -0.0413  0.0542
36192DPPS   C2B44935   9.942   4.543  16.924 -0.1952 -0.0526 -0.2399
36192DPPS   C3B44936   9.896   4.582  17.385 -0.1948 -0.0797 -0.1153
36192DPPS   C4B44937   9.873   4.548  17.840  0.0277  0.0015  0.0642
36193DPPS   CNO44938  14.397   3.707  15.909  0.3142  0.0242 -0.2299
36193DPPS   PO444939  14.682   3.912  16.050  0.0552 -0.0970 -0.1401
36193DPPS   GL144940  14.628   3.959  16.440 -0.0436 -0.1005 -0.2013
36193DPPS   GL244941  14.973   3.960  16.496  0.1685  0.4879  0.0926
36193DPPS   C1A44942  14.520   3.934  16.744  0.3585 -0.0946  0.0748
36193DPPS   C2A44943  14.372   3.897  17.134  0.0923  0.0404 -0.0190
36193DPPS   C3A44944  14.388   3.871  17.564 -0.0363  0.0658 -0.0130
36193DPPS   C4A44945  14.457   3.856  18.062 -0.1133  0.0591 -0.3312
36193DPPS   C1B44946  14.964   3.845  16.862 -0.1728 -0.3645  0.2703
36193DPPS   C2B44947  14.833   3.687  17.222 -0.2526  0.1122  0.1062
36193DPPS   C3B44948  14.883   3.685  17.703  0.3092  0.0535 -0.3243
36193DPPS   C4B44949  14.915   3.676  18.229  0.0788 -0.0802 -0.0178
36194DPPS   CNO44950   9.565   2.108  15.524 -0.2421 -0.1563  0.0580
36194DPPS   PO444951   9.805   2.338  15.701 -0.0045  0.0886  0.0778
36194DPPS   GL144952   9.668   2.349  16.126  0.0638  0.1218 -0.3542
36194DPPS   GL244953   9.596   2.047  16.143 -0.2177 -0.0130  0.0585
36194DPPS   C1A44954   9.817   2.336  16.455  0.1539  0.1332 -0.0128
36194DPPS   C2A44955   9.830   2.215  16.858  0.0514  0.1658  0.0704
36194DPPS   C3A44956   9.908   2.186  17.389  0.0703 -0.0802 -0.1207
36194DPPS   C4A44957   9.873   2.178  17.870  0.3643  0.1546 -0.0818
36194DPPS   C1B44958   9.609   1.931  16.486 -0.1247 -0.4780 -0.2332
36194DPPS   C2B44959   9.480   1.858  16.895  0.1619 -0.4510  0.1145
36194DPPS   C3B44960   9.418   1.888  17.347 -0.0720 -0.1286  0.0709
36194DPPS   C4B44961   9.365   1.956  17.798 -0.0554  0.1315  0.2134
36195DPPS   CNO44962  14.436   2.214  15.694  0.0800 -0.2119 -0.0040
36195DPPS   PO444963  14.452   2.016  16.014  0.0818  0.2736 -0.0795
36195DPPS   GL144964  14.216   2.047  16.352  0.1488  0.0003  0.3981
36195DPPS   GL244965  14.517   2.228  16.490 -0.2257  0.0582  0.0858
36195DPPS   C1A44966  14.043   2.049  16.663  0.2679  0.0058 -0.1050
36195DPPS   C2A44967  14.155   2.041  17.081  0.2488  0.2295  0.0181
36195DPPS   C3A44968  14.297   2.072  17.499  0.2577  0.2622  0.0052
36195DPPS   C4A44969  14.289   2.020  17.943 -0.2946  0.2007  0.1082
36195DPPS   C1B44970  14.450   2.336  16.856  0.0485 -0.0658 -0.2045
36195DPPS   C2B44971  14.582   2.423  17.223  0.1677  0.4468 -0.1898
36195DPPS   C3B44972  14.616   2.412  17.709  0.2120  0.3797  0.1559
36195DPPS   C4B44973  14.575   2.398  18.219  0.1341  0.1192 -0.1642
36196DPPS   CNO44974   9.891   1.329  15.685 -0.1585 -0.0232 -0.2692
36196DPPS   PO444975   9.750   0.932  15.784  0.1182 -0.1578  0.0414
36196DPPS   GL144976   9.781   0.853  16.211  0.0442 -0.0493  0.2754
36196DPPS   GL244977   9.706   0.577  16.164  0.1415  0.2822  0.0347
36196DPPS   C1A44978   9.603   0.901  16.551  0.0247 -0.0947 -0.0555
36196DPPS   C2A44979   9.521   0.965  16.976 -0.0475  0.0635  0.1144
36196DPPS   C3A44980   9.544   0.933  17.470 -0.1116 -0.1191 -0.2240
36196DPPS   C4A44981   9.589   0.824  17.907 -0.0593 -0.2733  0.2876
36196DPPS   C1B44982   9.696   0.485  16.485  0.1254 -0.1527  0.0022
36196DPPS   C2B44983   9.717   0.487  16.896 -0.1131  0.0329  0.2506
36196DPPS   C3B44984   9.683   0.429  17.374 -0.0446  0.1824  0.1932
36196DPPS   C4B44985   9.588   0.342  17.857  0.0203  0.2132 -0.1279
36197DPPS   CNO44986  10.301   6.287  15.560  0.0542  0.2321  0.4500
36197DPPS   PO444987  10.522   6.293  15.847 -0.2447 -0.0228 -0.2713
36197DPPS   GL144988  10.348   6.294  16.267  0.5057  0.0314 -0.2910
36197DPPS   GL244989  10.552   6.139  16.409  0.3587 -0.2755  0.3699
36197DPPS   C1A44990  10.222   6.467  16.581  0.2993  0.0123 -0.0656
36197DPPS   C2A44991  10.146   6.420  16.962  0.0998 -0.0738 -0.0266
36197DPPS   C3A44992  10.155   6.371  17.479 -0.1120  0.2870 -0.1261
36197DPPS   C4A44993  10.212   6.264  17.980 -0.1386  0.0473 -0.0685
36197DPPS   C1B44994  10.602   6.150  16.782 -0.1706 -0.5193  0.0657
36197DPPS   C2B44995  10.624   6.180  17.148  0.2229  0.0893  0.1074
36197DPPS   C3B44996  10.622   6.192  17.653 -0.0302 -0.2593  0.1108
36197DPPS   C4B44997  10.648   6.212  18.174  0.0638  0.0290  0.0835
36198W        W44998  12.380   0.020  28.425 -0.0674 -0.2373  0.1760
36199W        W44999  24.210   0.212   7.991 -0.1724 -0.3011  0.1900
36200W        W45000  19.950   2.659  32.498 -0.0885 -0.0403 -0.1208
36201W        W45001  25.109   4.496  21.991  0.1015  0.1881 -0.2030
36202W        W45002  23.933   5.059   9.657  0.0461 -0.1033  0.0148
36203W        W45003  16.375   5.280   4.383  0.2075 -0.0284 -0.0886
36204W        W45004   4.541   5.764   5.643  0.1596 -0.1817 -0.3795
36205W        W45005  14.291   4.908  11.541  0.3525 -0.0243 -0.3628
36206W        W45006   1.169   0.332  10.336 -0.0267 -0.0033  0.3515
36207W        W45007   7.365   0.121   3.712  0.0731  0.0331  0.0608
36208W        W45008  15.665   4.465   9.004 -0.0419  0.0559  0.1969
36209W        W45009   4.702   0.698  35.617  0.0780 -0.1665  0.0480
36210W        W45010   3.156   0.386  26.904 -0.0929  0.3235  0.0562
36211W        W45011   8.147   3.237  29.525  0.0300  0.0262  0.0543
36212W        W45012   8.155   1.307  10.144 -0.2832 -0.0911 -0.3288
36213W        W45013  19.612   5.085   6.547 -0.2701  0.1367 -0.3402
36214W        W45014  18.441   3.484  32.290 -0.0493  0.0706  0.0799
36215W        W45015  15.345   4.745  31.684  0.1562 -0.0163 -0.0390
36216W        W45016  20.371   6.520  20.796 -0.0161  0.1881  0.2633
36217W        W45017  22.961   6.554  34.104  0.1930 -0.0207 -0.3588
36218W        W45018   9.499   4.604  22.311  0.1344  0.1152  0.0677
36219W        W45019  10.893   2.497  28.592 -0.0670 -0.0179  0.3690
36220W        W45020  16.345   5.943  32.620 -0.2215  0.0466 -0.1538
36221W        W45021  26.128   5.839   4.944  0.1195  0.0040 -0.1352
36222W        W45022   0.679   5.907  14.505  0.0446 -0.0653 -0.1539
36223W        W45023  25.775   5.029  12.492  0.3592  0.3891  0.1539
36224W        W45024  15.401   6.435   7.074  0.0368  0.1169  0.4505
36225W        W45025  17.370   5.953   6.670  0.1498  0.2748  0.6838
36226W        W45026   9.995   6.151  21.097 -0.0441 -0.0844  0.3913
36227W        W45027  14.469   4.949  31.102 -0.0077  0.0449 -0.0080
36228W        W45028   5.192   5.601  34.921 -0.1811  0.2085 -0.2483
36229W        W45029   0.808   0.973  20.590  0.1585 -0.1010  0.0251
36230W        W45030  24.006   5.207  12.368 -0.1558  0.0627  0.0573
36231W        W45031   6.296   4.507  34.146  0.2258  0.2100  0.0963
36232W        W45032   7.003   3.677  32.165 -0.1037  0.0545  0.0722
36233W        W45033   2.124   2.329  30.546  0.1606 -0.0700 -0.1314
36234W        W45034  18.436   3.789  22.784  0.1632  0.1922 -0.0169
36235W        W45035   8.097   4.071   3.007 -0.1491 -0.0004  0.0387
36236W        W45036  18.507   0.929   9.680  0.2446 -0.2894  0.2491
36237W        W45037  25.286   3.793  26.122 -0.1991 -0.1525 -0.1679
36238W        W45038  25.075   5.779  34.343  0.3596 -0.0358  0.0414
36239W        W45039  20.426   1.368   9.421  0.0449  0.0532 -0.1194
36240W        W45040  11.747   3.919  22.558  0.1158  0.1309  0.0612
36241W        W45041  13.763   5.939  28.664  0.3321 -0.3033 -0.0299
36242W        W45042   6.811   1.911  24.492  0.2042  0.2525  0.1388
36243W        W45043   4.426   3.500  25.784  0.0702  0.1094 -0.2060
36244W        W45044   1.211   1.205  34.974  0.0961  0.1284 -0.1255
36245W        W45045  16.576   4.143  32.036 -0.1915  0.1953 -0.0883
36246W        W45046   1.513   0.976   9.323 -0.1488 -0.0177 -0.3697
36247W        W45047   0.812   6.453  11.933 -0.2823  0.1472  0.0836
36248W        W45048   2.527   1.384  24.403 -0.0807  0.2672 -0.0919
36249W        W45049   6.982   0.020  24.567 -0.2731  0.1354  0.1026
36250W        W45050  14.300   2.139   1.890  0.0790  0.1763  0.1348
36251W        W45051  22.499   6.109  10.187  0.0874  0.3084  0.2200
36252W        W45052  10.889   3.553  30.550 -0.0048 -0.0034 -0.3746
36253W        W45053  18.884   4.914  22.044  0.1266 -0.1413 -0.1185
36254W        W45054  24.042   3.625  11.229 -0.0813  0.0156  0.0693
36255W        W45055  10.642   3.342  28.855  0.2252  0.1173  0.0997
36256W        W45056  23.537   1.723  12.138 -0.3613 -0.3307  0.0258
36257W        W45057  26.329   2.994   8.974  0.1256 -0.1649  0.0202
36258W        W45058  24.038   0.612   0.033  0.0579 -0.1639 -0.1667
36259W        W45059  23.384   6.413  21.280  0.0301  0.1854 -0.0076
36260W        W45060   4.218   1.391  34.936 -0.3703 -0.1195 -0.1225
36261W        W45061  10.437   2.803   3.870  0.2256 -0.1662  0.2084
36262W        W45062   1.982   4.339  31.955  0.4187 -0.2134 -0.4488
36263W        W45063   0.474   3.132  25.884  0.0447 -0.1894  0.2191
36264W        W45064  26.157   2.020   7.854 -0.0614 -0.1483  0.0849
36265W        W45065  18.174   4.966   6.991 -0.0101 -0.0623 -0.2143
36266W        W45066  15.396   5.551   9.239  0.0738  0.1340 -0.0089
36267W        W45067  25.766   5.628  23.860  0.1650 -0.0059 -0.2095
36268W        W45068  12.400   2.249  24.541 -0.0790  0.1396  0.0492
36269W        W45069   9.060   6.488  27.083 -0.2557 -0.0716  0.0061
36270W        W45070   1.739   2.301   0.083 -0.1115  0.1116  0.0986
36271W        W45071   7.221   1.989  12.708 -0.2260  0.2945  0.1357
36272W        W45072  11.952   3.947   6.029  0.3789 -0.0884 -0.0934
36273W        W45073   5.528   5.675  21.117  0.0752  0.0464 -0.3007
36274W        W45074  17.437   3.669  21.397 -0.1758 -0.0542  0.0749
36275W        W45075   0.497   1.207   4.149  0.2944 -0.0971 -0.1154
36276W        W45076   1.239   4.669  28.834 -0.1112  0.1913  0.0469
36277W        W45077   0.037   5.588  25.401  0.0672  0.1793  0.1547
36278W        W45078   0.974   0.940  32.145 -0.0477  0.0212  0.3464
36279W        W45079   7.314   4.849   0.654 -0.0464  0.2940 -0.0869
36280W        W45080  21.785   0.078  35.835  0.0201 -0.0541 -0.0912
36281W        W45081  26.392   0.292  11.584  0.0404  0.0050 -0.2718
36282W        W45082  16.280   4.298  14.126  0.0145  0.2068 -0.1947
36283W        W45083  11.372   2.329  24.782  0.0255 -0.1758  0.1043
36284W        W45084  20.196   3.210   7.596 -0.1582 -0.0230 -0.4130
36285W        W45085   3.425   0.350   5.927 -0.3413  0.0667  0.1855
36286W        W45086   6.806   1.002  10.440 -0.2038  0.2033 -0.6273
36287W        W45087  12.393   2.364  31.888  0.1389  0.0199 -0.3201
36288W        W45088  17.919   6.434  14.013  0.0284 -0.1428 -0.0051
36289W        W45089   1.346   3.705  25.444  0.0374 -0.0491 -0.0450
36290W        W45090   0.760   6.321  11.206 -0.6061 -0.2779  0.0456
36291W        W45091   6.068   0.613  34.489  0.1641  0.2227  0.0167
36292W        W45092   0.743   1.649  35.526  0.1756 -0.1739 -0.0383
36293W        W45093  12.865   3.959   9.945 -0.1119 -0.0143  0.0251
36294W        W45094   3.955   4.997   6.011 -0.0696 -0.0249 -0.3374
36295W        W45095   7.828   4.260   0.117  0.1790 -0.0605  0.1092
36296W        W45096   6.796   2.151  26.419 -0.1973 -0.0927  0.0112
36297W        W45097  12.817   4.263  26.428 -0.2153  0.0893 -0.2945
36298W        W45098  20.387   3.682   2.024  0.3596 -0.3210  0.0781
36299W        W45099  20.956   6.580   1.552  0.0199  0.1686 -0.1556
36300W        W45100  11.446   5.215  14.677 -0.1195  0.0399  0.0491
36301W        W45101   5.218   3.609  24.784  0.0893 -0.1763 -0.1047
36302W        W45102   0.768   4.138  26.695  0.0254  0.3500  0.1334
36303W        W45103  22.162   6.373  28.071 -0.1712  0.0508  0.1425
36304W        W45104   6.259   1.045  27.486  0.3243  0.0534 -0.0153
36305W        W45105  19.839   5.642   1.825  0.0632 -0.0205 -0.0100
36306W        W45106  24.360   0.040  11.196  0.1074  0.0564  0.0486
36307W        W45107  10.098   3.659   2.911 -0.0825  0.1080 -0.1821
36308W        W45108   0.129   2.528  14.497  0.0945  0.4117  0.2258
36309W        W45109   6.377   4.570  25.359  0.2942  0.2326  0.1670
36310W        W45110   3.044   3.854  33.713  0.2436 -0.0270  0.0095
36311W        W45111  20.299   3.828  21.455 -0.4489 -0.0277 -0.1131
36312W        W45112  11.470   4.514  15.549  0.2135  0.2625 -0.3056
36313W        W45113   0.538   4.975   9.477 -0.0457  0.1083 -0.2166
36314W        W45114   3.171   1.243  32.571  0.0201 -0.2575  0.0440
36315W        W45115   1.314   4.744  21.780 -0.2546 -0.0671  0.0573
36316W        W45116  18.772   0.566   5.743  0.0197  0.0701 -0.2261
36317W        W45117  23.671   6.301  14.251 -0.1564  0.0345 -0.0842
36318W        W45118  22.912   0.124   8.448 -0.2974 -0.0090 -0.0867
36319W        W45119  24.962   5.081  32.439  0.0344 -0.2114 -0.2361
36320W        W45120  17.953   2.701  10.247  0.1844 -0.0253 -0.1530
36321W        W45121   4.868   5.559   9.135  0.0962 -0.1392  0.2471
36322W        W45122  14.406   3.346  36.013 -0.1728  0.0861  0.3286
36323W        W45123  16.886   5.051   6.220  0.1471 -0.0551  0.2287
36324W        W45124  22.492   4.036  29.638  0.0345  0.1709 -0.2863
36325W        W45125  24.293   5.575   5.941  0.0597 -0.3229  0.3015
36326W        W45126  21.501   3.466  32.091 -0.2767  0.0248 -0.0680
36327W        W45127  13.308   4.180  10.062 -0.0901  0.1339  0.3010
36328W        W45128   2.057   4.880  13.351 -0.0208 -0.3320  0.0323
36329W        W45129   1.490   1.303   7.642 -0.0951  0.2873 -0.1020
36330W        W45130  22.495   1.443  34.237 -0.0596 -0.1102 -0.0227
36331W        W45131  16.612   4.152  27.130 -0.0472 -0.1871 -0.0074
36332W        W45132  18.094   2.244  26.138  0.1590  0.1001 -0.1880
36333W        W45133  22.728   2.299  23.755  0.1463  0.0117 -0.0080
36334W        W45134  18.865   0.746  30.974  0.0871 -0.0090  0.4248
36335W        W45135  13.243   6.498  23.303 -0.2014  0.3924 -0.2016
36336W        W45136   4.928   2.009  29.589  0.0381 -0.1529 -0.0096
36337W        W45137  25.093   6.050  21.144  0.0248  0.2511 -0.0303
36338W        W45138  19.171   5.936   0.928 -0.0615  0.3804 -0.0324
36339W        W45139  21.673   4.075  22.393  0.1374 -0.0340 -0.1178
36340W        W45140  25.576   1.247  28.954 -0.0096 -0.0338 -0.0349
36341W        W45141  23.279   3.435   3.525  0.1157  0.0810  0.0628
36342W        W45142   6.840   5.857   1.878 -0.0891  0.2102 -0.0743
36343W        W45143   1.564   2.317  24.833 -0.1991 -0.2306 -0.1492
36344W        W45144  24.376   4.990  14.526  0.0982  0.1312 -0.1817
36345W        W45145  16.154   0.714  12.597 -0.2508 -0.1970  0.0902
36346W        W45146  17.706   5.519  25.670  0.0230  0.0267  0.2109
36347W        W45147  23.877   4.461  22.105 -0.0538 -0.0903  0.1295
36348W        W45148  16.979   1.686  26.624  0.1235  0.1509  0.1769
36349W        W45149   9.549   4.449  26.051  0.2604  0.2216 -0.0532
36350W        W45150  24.964   5.084   8.701 -0.1251  0.1197 -0.0015
36351W        W45151  21.984   5.255  23.138  0.0369  0.0234  0.0359
36352W        W45152   8.396   1.939  31.705 -0.1733 -0.1364  0.1455
36353W        W45153  18.887   3.336  24.478 -0.1414  0.0847  0.1130
36354W        W45154   3.344   1.941   6.142 -0.2308  0.2824 -0.2266
36355W        W45155   0.810   0.726  34.318 -0.0889 -0.2373 -0.1958
36356W        W45156   2.085   0.972   8.273  0.0003  0.0797  0.0725
36357W        W45157  13.654   5.819  15.717 -0.0749 -0.1175  0.1269
36358W        W45158   0.970   2.130   5.290  0.1132  0.1687 -0.1616
36359W        W45159   4.762   3.088  32.790 -0.0401 -0.1668  0.0683
36360W        W45160  16.502   5.872   5.023 -0.1356  0.0108  0.2198
36361W        W45161   7.433   2.829  12.211 -0.1774  0.0198  0.2444
36362W        W45162  22.937   3.364   6.824  0.0424 -0.1828  0.0575
36363W        W45163   4.592   1.090   9.817  0.0949  0.0730 -0.0636
36364W        W45164  14.077   5.053  32.372  0.1283 -0.0020  0.3319
36365W        W45165  13.888   3.974  28.976 -0.3287  0.1372  0.3151
36366W        W45166  19.347   0.347  12.090 -0.1299 -0.3173 -0.4037
36367W        W45167  14.745   1.437  24.511 -0.1884  0.1390 -0.0281
36368W        W45168   0.565   4.760  19.985  0.0777 -0.1594 -0.0190
36369W        W45169  12.561   4.487   1.108 -0.3339  0.0835  0.0846
36370W        W45170  11.515   0.668   8.513  0.0842  0.0964 -0.2371
36371W        W45171  13.215   1.004   0.923 -0.2090 -0.2054 -0.0837
36372W        W45172  11.952   4.105  29.425 -0.1541  0.0296  0.1992
36373W        W45173  14.031   0.518  14.107 -0.1146  0.2097 -0.2015
36374W        W45174   2.163   2.332  13.809 -0.0370 -0.1117 -0.2929
36375W        W45175  11.187   1.358   1.896  0.0835 -0.3669 -0.0362
36376W        W45176   7.837   0.557   4.519  0.1001 -0.1160 -0.0194
36377W        W45177   0.600   4.264  25.272 -0.0761 -0.0123  0.2738
36378W        W45178  15.753   1.278   4.642  0.1485 -0.1759  0.0889
36379W        W45179   0.470   4.690  25.773  0.0129 -0.1454 -0.2040
36380W        W45180   1.070   3.128  26.277 -0.0604  0.0187 -0.0190
36381W        W45181   4.784   1.085  34.373 -0.0834  0.2609  0.1640
36382W        W45182  26.009   4.610  22.435  0.3923  0.0086  0.3956
36383W        W45183   7.195   4.166  13.217 -0.3513  0.2670  0.0837
36384W        W45184   0.690   4.853   8.386  0.0208 -0.0548  0.2215
36385W        W45185  26.330   1.890   1.343 -0.1101 -0.0309 -0.3808
36386W        W45186  16.597   2.928  24.724 -0.1797 -0.2589 -0.0255
36387W        W45187  11.699   1.651   5.574 -0.1373  0.2038  0.2458
36388W        W45188   2.454   1.613  34.132 -0.1211  0.0068  0.2773
36389W        W45189  17.529   4.923   0.832 -0.0835 -0.0546 -0.0936
36390W        W45190   9.700   4.090  30.281  0.1279 -0.2736 -0.0354
36391W        W45191   8.761   5.205   8.285  0.3484  0.0453  0.1029
36392W        W45192   5.753   4.420  25.980 -0.0535 -0.0633 -0.1132
36393W        W45193  15.559   6.139  31.225  0.1327 -0.2625  0.0836
36394W        W45194  12.798   6.367  34.037  0.0834 -0.0315  0.0267
36395W        W45195  14.802   2.686  30.471  0.0159  0.3496 -0.1102
36396W        W45196   9.430   0.546   0.995  0.1738 -0.3081 -0.0056
36397W        W45197   0.070   0.519   4.360  0.2292 -0.1211  0.2569
36398W        W45198  20.180   1.097   8.632  0.1739  0.3653 -0.0254
36399W        W45199  17.502   5.914  21.318  0.0953  0.4972  0.0752
36400W        W45200   8.418   5.554  28.244 -0.1234 -0.1084 -0.2616
36401W        W45201   6.242   4.042  22.135 -0.0753  0.1417 -0.1395
36402W        W45202   9.694   1.672   2.813 -0.1500  0.1557  0.1050
36403W        W45203  17.273   6.212  11.140  0.1317  0.0730  0.1890
36404W        W45204   7.244   5.208  25.294  0.0171 -0.2227 -0.1145
36405W        W45205  25.411   1.577  32.591  0.0040 -0.1209  0.0611
36406W        W45206   9.860   4.305  26.554  0.2093  0.2044  0.1622
36407W        W45207   4.700   3.642   7.193 -0.4768 -0.2017  0.0589
36408W        W45208  10.335   0.175  10.228  0.3802 -0.2551 -0.0483
36409W        W45209  16.814   1.433  33.326  0.0852  0.0186  0.0530
36410W        W45210  10.589   5.598  14.333  0.2689 -0.0148 -0.1489
36411W        W45211  13.457   3.123  10.159  0.2328 -0.3172 -0.2808
36412W        W45212  19.528   1.468   3.328 -0.1033  0.0054 -0.0352
36413W        W45213  16.411   2.246  15.419 -0.1120  0.0231  0.1794
36414W        W45214  21.760   4.762  11.524 -0.1898 -0.0326  0.0035
36415W        W45215   6.040   5.173  14.990 -0.0309  0.0266 -0.1285
36416W        W45216   5.767   2.806  32.705 -0.0632  0.3983 -0.2256
36417W        W45217   0.101   3.595  14.513 -0.0816 -0.1148 -0.0391
36418W        W45218   0.702   5.611   8.179  0.3906 -0.1176  0.0269
36419W        W45219  24.011   0.090  35.302  0.1281  0.1609 -0.1362
36420W        W45220  24.321   1.310   3.953  0.0881  0.0178  0.0317
36421W        W45221  18.570   5.265  10.312 -0.1035  0.0124  0.1933
36422W        W45222   2.521   3.841  27.796 -0.0019 -0.0450  0.1941
36423W        W45223  21.607   3.289  30.664  0.1500 -0.1384  0.1583
36424W        W45224  18.844   1.805  22.601 -0.1951  0.1446 -0.2717
36425W        W45225   5.378   3.246  14.731  0.0919  0.2561 -0.1622
36426W        W45226  12.509   2.718   6.122  0.1284 -0.2931 -0.0481
36427W        W45227  10.492   6.240  22.767  0.0325 -0.0402 -0.0430
36428W        W45228   8.257   0.879  28.323 -0.0276  0.1468  0.1233
36429W        W45229   6.029   4.104  14.079 -0.1095 -0.3776 -0.0581
36430W        W45230  17.743   1.823  34.395 -0.3304 -0.0030 -0.2704
36431W        W45231   4.402   2.219  29.803  0.2359 -0.0915 -0.5188
36432W        W45232  13.732   5.862  27.504  0.1035 -0.1626 -0.2071
36433W        W45233   3.359   2.734   7.694 -0.0978  0.1867  0.2921
36434W        W45234  19.376   1.194  13.089  0.0721 -0.0039  0.0240
36435W        W45235  13.539   1.606  26.474  0.1694  0.1758 -0.0602
36436W        W45236  25.111   5.294  26.400  0.1562  0.0071 -0.1815
36437W        W45237   0.631   0.949  28.904  0.0011 -0.0482  0.1664
36438W        W45238  22.607   2.669   4.024  0.0002  0.3112 -0.0271
36439W        W45239  20.174   3.107  25.640 -0.2488 -0.3174  0.0873
36440W        W45240  14.754   5.255   3.229  0.0183 -0.1666  0.4372
36441W        W45241  13.964   1.925   9.050 -0.1969  0.1281 -0.1050
36442W        W45242  17.615   4.405  26.025 -0.1539  0.1014  0.1826
36443W        W45243   5.388   6.074  29.969  0.0268 -0.1216 -0.1500
36444W        W45244  21.945   4.014  21.248  0.1233  0.1138 -0.2664
36445W        W45245   5.900   5.467   1.858  0.0365  0.2563 -0.2060
36446W        W45246  22.402   1.551  27.873 -0.2245 -0.0937  0.1543
36447W        W45247  23.541   3.453  25.250  0.0499 -0.0598 -0.0320
36448W        W45248  19.786   0.154   5.682 -0.1695  0.1609  0.0431
36449W        W45249   0.741   0.314  30.464  0.2060  0.0567 -0.0125
36450W        W45250   1.383   3.793  14.966 -0.2849  0.1972  0.0707
36451W        W45251  17.069   2.924  24.931 -0.1361  0.0210  0.1134
36452W        W45252  13.524   2.897   6.091  0.1885  0.0660  0.0690
36453W        W45253   2.185   1.330  13.483 -0.0568 -0.3300 -0.0584
36454W        W45254   1.005   2.363   2.716 -0.0880 -0.3353 -0.0855
36455W        W45255  24.763   0.469  31.318  0.1937  0.1792  0.1079
36456W        W45256  24.028   5.079   9.168 -0.1069  0.4784 -0.5311
36457W        W45257  22.639   3.067  23.189 -0.0093  0.0228  0.3036
36458W        W45258  24.378   1.442   9.178 -0.0503  0.2929  0.4667
36459W        W45259  18.049   3.973  32.469  0.0863  0.2131  0.0450
36460W        W45260  23.968   0.725  27.492  0.0844  0.1244 -0.3501
36461W        W45261   0.507   1.254   3.148 -0.0374  0.0616  0.0640
36462W        W45262  22.631   0.285   2.496 -0.1526 -0.0225  0.1157
36463W        W45263  23.736   4.247   4.731  0.2078  0.3115  0.0067
36464W        W45264  13.822   5.556   1.569 -0.1004 -0.0401 -0.0135
36465W        W45265   7.361   1.144   0.710  0.2170 -0.2856  0.1033
36466W        W45266  22.542   5.651  24.911 -0.0751  0.0664 -0.0915
36467W        W45267  18.228   4.463  23.506  0.0457 -0.3201 -0.1898
36468W        W45268  12.867   4.762  25.070 -0.0061 -0.2341  0.0539
36469W        W45269  18.948   1.418  30.558 -0.1093 -0.3673 -0.1423
36470W        W45270   5.424   0.306  32.446  0.0928 -0.2178 -0.1314
36471W        W45271  11.874   1.025  23.344  0.0690 -0.1827  0.1775
36472W        W45272   4.493   4.126  29.792  0.2836  0.1173  0.1541
36473W        W45273   6.702   6.502  23.568 -0.3012 -0.3116  0.0478
36474W        W45274   2.005   0.234  14.276 -0.0846 -0.0605 -0.1638
36475W        W45275   9.861   4.470  29.154  0.1852  0.3695  0.0899
36476W        W45276   1.649   1.750   5.911 -0.1991  0.0148 -0.2841
36477W        W45277   9.846   5.365   3.844  0.0414  0.1844  0.1264
36478W        W45278  12.819   0.119   4.275  0.3550  0.1712  0.1871
36479W        W45279   5.039   0.236  24.853 -0.1909 -0.1209 -0.1014
36480W        W45280  24.100   6.044  32.301  0.3041  0.0176  0.1625
36481W        W45281   3.053   2.358   5.046 -0.0797 -0.1400 -0.1883
36482W        W45282  17.727   0.189   6.241  0.0242  0.3063  0.2307
36483W        W45283   5.009   3.202  22.946  0.0406  0.1604 -0.1489
36484W        W45284   6.493   5.956   8.892  0.2624  0.0550 -0.0130
36485W        W45285   4.909   1.929  34.974 -0.0228 -0.1456  0.1512
36486W        W45286   6.044   1.323  30.874 -0.3881 -0.0229 -0.0988
36487W        W45287  23.973   1.463   7.839  0.0605  0.0316 -0.1562
36488W        W45288  18.811   0.251  28.146 -0.0520 -0.0436 -0.0582
36489W        W45289  14.036   1.764   3.341  0.1520 -0.0206  0.0242
36490W        W45290  20.200   2.029  29.667 -0.0211  0.1228  0.1170
36491W        W45291  17.188   1.912  31.779 -0.2267  0.3640 -0.2462
36492W        W45292  20.036   2.045   4.076  0.0070  0.2010 -0.0629
36493W        W45293   6.169   0.700   6.273 -0.1740  0.0061 -0.1621
36494W        W45294  11.300   4.946  35.937  0.1116 -0.3078 -0.2079
36495W        W45295  12.669   4.894  12.907 -0.2186 -0.0163  0.1247
36496W        W45296  20.941   5.708   9.552 -0.0974 -0.0592  0.0036
36497W        W45297  10.283   2.987   7.942 -0.2088 -0.1268  0.0751
36498W        W45298  20.482   2.258   4.402  0.4467  0.3234 -0.1281
36499W        W45299  18.329   3.867  26.752  0.1006 -0.0420  0.1615
36500W        W45300   7.604   2.266   1.907 -0.0129  0.0096  0.0330
36501W        W45301  17.079   0.158  22.098  0.0556  0.3601  0.0754
36502W        W45302  24.241   5.300  35.423 -0.0285 -0.1083 -0.2980
36503W        W45303  25.417   5.858  33.654 -0.0250  0.2133  0.1196
36504W        W45304  15.498   2.597  23.990 -0.0127  0.0932 -0.2056
36505W        W45305  15.805   4.206  23.746  0.0619 -0.2360  0.0388
36506W        W45306  14.476   6.592  21.711  0.1525  0.0386 -0.1100
36507W        W45307  24.942   4.050  34.023 -0.0386  0.3034 -0.1585
36508W        W45308   5.904   5.646  33.596  0.0893  0.2548 -0.1370
36509W        W45309   4.803   2.172   3.432  0.0932 -0.3479 -0.1137
36510W        W45310  18.473   3.345   0.141 -0.2210 -0.1077 -0.0726
36511W        W45311  20.094   3.365   8.207 -0.2695 -0.1762  0.2427
36512W        W45312   1.248   4.255  28.093  0.0609 -0.1948  0.1765
36513W        W45313   4.779   0.585   0.415  0.3681 -0.0996  0.1086
36514W        W45314   5.485   2.494   0.345  0.3408 -0.0931  0.1666
36515W        W45315  23.962   4.378   2.778 -0.0156  0.0654  0.1033
36516W        W45316   9.656   5.923  14.176  0.3119  0.0986 -0.1178
36517W        W45317   6.952   6.100  13.465 -0.3208 -0.1207 -0.0252
36518W        W45318   8.021   5.018   5.970 -0.0684 -0.1036 -0.1932
36519W        W45319  24.638   1.049  15.960  0.1647 -0.0431  0.1387
36520W        W45320   8.632   3.204  32.179  0.2310  0.1485 -0.1062
36521W        W45321  10.689   6.024  24.363 -0.1227 -0.2510 -0.1587
36522W        W45322  13.354   3.488  10.553  0.0873 -0.3331 -0.2274
36523W        W45323  17.285   0.455  26.191 -0.1608  0.1190  0.1229
36524W        W45324  12.952   1.775  33.349  0.0385  0.0213  0.2101
36525W        W45325  22.872   1.643   0.470 -0.0719 -0.0591 -0.3062
36526W        W45326  15.148   4.178   9.236  0.0631 -0.3093 -0.0119
36527W        W45327  21.865   0.207  13.869 -0.0511 -0.1397 -0.0971
36528W        W45328  17.012   6.063  20.984 -0.0726  0.2560 -0.2082
36529W        W45329  26.143   5.566  29.467  0.2239  0.1009  0.3288
36530W        W45330   9.218   1.338   1.239 -0.1605 -0.0226  0.0473
36531W        W45331  16.251   4.117   3.917 -0.0854 -0.2753 -0.2307
36532W        W45332   7.677   0.184  11.137 -0.2977 -0.0602 -0.0474
36533W        W45333  14.393   3.168  30.861 -0.0393 -0.2738  0.1653
36534W        W45334   2.978   5.988  26.689  0.2821  0.1642 -0.2956
36535W        W45335  19.701   2.640  35.810  0.2215 -0.4988 -0.3892
36536W        W45336  16.795   4.645   6.965  0.0654 -0.0153 -0.0818
36537W        W45337   7.795   1.491  28.657 -0.0596  0.2935 -0.0465
36538W        W45338  23.407   4.115  32.741  0.3813 -0.2763  0.1179
36539W        W45339  10.558   2.172  13.016 -0.0317 -0.0111 -0.2850
36540W        W45340   3.709   1.571   7.110  0.0586  0.0641 -0.2710
36541W        W45341  21.353   1.389   5.011  0.2506  0.1257  0.3759
36542W        W45342   5.642   5.471   8.371 -0.2377 -0.2131  0.0379
36543W        W45343  12.163   0.833   5.054  0.1293  0.0477 -0.0807
36544W        W45344  17.489   2.452  25.609 -0.0856  0.2023 -0.0058
36545W        W45345  19.743   6.582  32.106  0.1925 -0.0788  0.1570
36546W        W45346  19.263   2.113  12.202  0.1907 -0.5398  0.3340
36547W        W45347  16.470   4.034  30.140 -0.0337 -0.2600  0.1640
36548W        W45348   3.106   3.268  21.072  0.2525 -0.0823 -0.0065
36549W        W45349  14.649   0.923  20.787 -0.0287  0.2360  0.0196
36550W        W45350  23.711   0.645   7.450  0.1113  0.0812 -0.3251
36551W        W45351  21.018   2.247   3.553 -0.0298  0.0343  0.1599
36552W        W45352  10.683   5.859  31.611 -0.1468  0.0046 -0.1638
36553W        W45353  14.816   4.717   3.261  0.1263  0.1528  0.3102
36554W        W45354  20.361   2.816  26.548 -0.0120 -0.1283 -0.3379
36555W        W45355  24.781   0.145  34.376  0.2412 -0.1633 -0.0932
36556W        W45356   2.264   1.353  25.399 -0.1599  0.2701  0.3406
36557W        W45357  14.304   3.127  31.835  0.0741  0.2571 -0.0425
36558W        W45358  14.388   2.102   3.517 -0.2396 -0.2895  0.2443
36559W        W45359  16.290   1.293  32.517  0.0132 -0.2632 -0.2939
36560W        W45360  21.181   4.605   4.120  0.0012  0.0101  0.1332
36561W        W45361  25.834   5.639  23.321 -0.1284  0.2436  0.0056
36562W        W45362  14.929   5.128   3.685  0.1603 -0.2464 -0.4414
36563W        W45363  23.729   3.009  30.425 -0.0738 -0.1490 -0.1035
36564W        W45364  26.260   0.636  35.809 -0.1354 -0.0884  0.1383
36565W        W45365   7.800   6.206  28.723  0.1297 -0.0033  0.1609
36566W        W45366  25.422   0.990  25.088  0.1183 -0.0147  0.0766
36567W        W45367  18.981   6.084   2.444 -0.2128 -0.2115 -0.3121
36568W        W45368   6.629   0.357   8.620  0.0529 -0.0124 -0.0596
36569W        W45369   2.626   0.939  34.850  0.2965  0.0550  0.1382
36570W        W45370   5.716   6.430  27.122 -0.1402 -0.0104  0.0838
36571W        W45371  19.726   1.855  29.973  0.2278  0.1847  0.0359
36572W        W45372   1.529   2.323  32.038  0.1777 -0.1292 -0.0911
36573W        W45373  14.658   5.577  12.064 -0.0476  0.2067  0.1093
36574W        W45374  17.804   4.446  32.509 -0.1743 -0.0404 -0.0661
36575W        W45375   8.022   5.882   4.861  0.1560 -0.4251  0.1576
36576W        W45376   8.491   2.681  25.886  0.2791  0.2622 -0.2923
36577W        W45377  24.783   6.497  10.256 -0.0140 -0.0861  0.0303
36578W        W45378   9.449   2.108   9.473  0.0274 -0.2356  0.2597
36579W        W45379   6.406   1.740   2.782 -0.2976 -0.0206  0.0633
36580W        W45380  10.018   1.932   2.386  0.0378  0.2934  0.0489
36581W        W45381  17.937   6.582  30.046 -0.1001  0.2163 -0.1728
36582W        W45382   9.146   0.907  29.494  0.0511 -0.2168  0.0805
36583W        W45383   3.364   4.297   3.510  0.0969  0.1142 -0.2566
36584W        W45384  24.919   0.831   6.479  0.1198 -0.0761 -0.1597
36585W        W45385   6.784   0.566  27.208  0.1304  0.2949 -0.0841
36586W        W45386  11.935   1.955   0.910  0.0493  0.2267  0.1005
36587W        W45387  20.746   5.311   6.724 -0.3146  0.0511  0.0155
36588W        W45388  20.872   1.293   1.802  0.0465 -0.0286  0.0243
36589W        W45389  19.571   1.980  27.322  0.1092  0.0976 -0.2557
36590W        W45390   3.202   3.627  35.615 -0.0841  0.0639 -0.0357
36591W        W45391  25.565   0.904   8.904  0.2435 -0.1310 -0.3964
36592W        W45392  20.259   0.381  20.706  0.2158 -0.0189 -0.1779
36593W        W45393  15.486   0.248  26.939 -0.0099 -0.0729 -0.1727
36594W        W45394   7.257   5.279  22.011  0.2957  0.2581 -0.1729
36595W        W45395  20.636   0.662  12.160  0.2747 -0.2820  0.0062
36596W        W45396  14.896   2.598   2.559 -0.0222 -0.0035  0.0740
36597W        W45397  10.117   3.011  12.527  0.0044 -0.1969 -0.2218
36598W        W45398  16.031   5.736   5.207  0.0951  0.1635 -0.2627
36599W        W45399   7.155   6.144  22.266  0.0971 -0.0000 -0.0250
36600W        W45400  20.206   3.411   6.782 -0.1472  0.2663  0.1912
36601W        W45401  21.980   1.440  11.179  0.3199  0.1381 -0.0147
36602W        W45402  15.922   4.354  26.547 -0.0680  0.2334  0.1697
36603W        W45403   0.959   0.088  21.103  0.2011  0.0903 -0.0518
36604W        W45404   9.441   6.586  21.099 -0.0777  0.0751 -0.1535
36605W        W45405   8.998   3.001  12.162 -0.3787  0.2469  0.2213
36606W        W45406  10.131   6.223  33.593  0.0442  0.0515  0.0920
36607W        W45407   0.863   5.925   9.614 -0.3658  0.0724  0.3852
36608W        W45408   9.307   5.276  23.055  0.0931 -0.1438 -0.1287
36609W        W45409   7.054   2.670  26.540  0.0067  0.1506  0.0584
36610W        W45410   5.836   6.517   2.885 -0.2688  0.0034 -0.0839
36611W        W45411  15.193   3.138  29.195  0.1447 -0.0483  0.0198
36612W        W45412  12.926   3.374   1.898  0.1172  0.1920  0.0888
36613W        W45413  15.985   2.693   6.969 -0.0693  0.1707 -0.0125
36614W        W45414  17.755   2.055  26.448  0.1280  0.0719 -0.4387
36615W        W45415  15.063   3.247  12.508 -0.0853 -0.2646  0.2160
36616W        W45416   2.372   3.901   9.282 -0.0606  0.2981  0.3480
36617W        W45417  18.858   5.369  15.156 -0.1266  0.3045  0.3908
36618W        W45418   8.614   4.373  15.493  0.2937 -0.0006 -0.0533
36619W        W45419  21.638   2.142  28.895  0.0445 -0.1902 -0.0489
36620W        W45420   0.455   1.038   8.575  0.1152  0.0504 -0.0882
36621W        W45421  19.861   5.460  31.960 -0.3535  0.2638  0.0043
36622W        W45422  18.464   3.219  12.767 -0.2029 -0.2477 -0.0473
36623W        W45423  25.094   1.188  23.014 -0.3698  0.0363  0.1753
36624W        W45424  24.175   2.732  11.126  0.0838 -0.2675  0.2093
36625W        W45425  20.391   0.970   9.780  0.1432  0.2038  0.1824
36626W        W45426   7.403   6.140  23.793  0.0375  0.0347  0.0626
36627W        W45427  17.251   1.987  20.192  0.0112 -0.0394  0.0785
36628W        W45428  10.367   2.937  11.871  0.0676  0.1862  0.0625
36629W        W45429  15.921   0.828   6.757  0.1549  0.3510 -0.0128
36630W        W45430  24.985   1.781  13.058  0.2473 -0.1343  0.0858
36631W        W45431  24.581   5.457   9.976 -0.0588 -0.0546  0.0759
36632W        W45432  23.420   2.089   1.356  0.0520 -0.0621 -0.4585
36633W        W45433  10.522   5.524  21.664  0.4270 -0.1170  0.1802
36634W        W45434  16.197   4.159   2.128  0.0820 -0.0850  0.0542
36635W        W45435  25.039   0.799   8.218 -0.1568 -0.1601  0.2248
36636W        W45436  10.758   3.117   4.056  0.0072 -0.1337 -0.1514
36637W        W45437   4.533   1.855  14.700 -0.3217 -0.0256 -0.2893
36638W        W45438  17.435   3.191  28.401 -0.1717 -0.2203 -0.2538
36639W        W45439  23.048   2.308   8.991 -0.1624 -0.2743  0.0684
36640W        W45440   8.358   4.673  10.352 -0.0713 -0.1474 -0.0068
36641W        W45441  19.613   0.116  31.377  0.0780  0.2716  0.0775
36642W        W45442  11.273   4.256   3.505 -0.0997  0.3404 -0.1275
36643W        W45443  20.063   5.048  25.014 -0.2176  0.0979  0.0458
36644W        W45444   2.826   1.916  22.889  0.0740 -0.1084 -0.0602
36645W        W45445  22.536   2.745  10.688 -0.1317 -0.1839 -0.1923
36646W        W45446   6.426   3.772   0.573  0.1639 -0.4116  0.0460
36647W        W45447  22.909   0.002  26.040 -0.0215  0.2032  0.0369
36648W        W45448  20.816   3.235  24.229  0.2208 -0.0502 -0.0497
36649W        W45449  24.579   4.769  25.134 -0.2046  0.3623 -0.5771
36650W        W45450   5.324   3.421   8.418 -0.0234 -0.0867  0.0566
36651W        W45451  19.563   6.072   1.737 -0.0531 -0.1227  0.1513
36652W        W45452   6.315   1.791   8.758 -0.0364 -0.1255  0.0076
36653W        W45453  16.491   4.742  11.954  0.0396  0.1527 -0.0545
36654W        W45454   4.199   2.567  10.882  0.2838 -0.1084  0.4166
36655W        W45455   2.037   2.798  23.232  0.0783 -0.1174 -0.1162
36656W        W45456  23.963   6.322   5.842 -0.0713 -0.1430  0.3580
36657W        W45457  12.014   3.599  11.073 -0.0106 -0.1302  0.1265
36658W        W45458   8.105   3.533   1.619  0.0368 -0.1661  0.0318
36659W        W45459   2.162   1.286  21.098 -0.2847 -0.1699  0.0147
36660W        W45460  12.099   3.984  10.790  0.0857 -0.1719  0.0013
36661W        W45461  25.027   0.615  32.251 -0.0845  0.0133 -0.0262
36662W        W45462   8.070   0.316  22.968  0.0257  0.0124 -0.2623
36663W        W45463  17.233   5.608  26.551  0.0841 -0.1637 -0.0843
36664W        W45464   2.225   2.301  11.633  0.1907  0.1648  0.0101
36665W        W45465  24.784   3.453  31.556  0.3501 -0.2056  0.1770
36666W        W45466   4.300   2.226  26.076  0.2040  0.0851  0.0295
36667W        W45467  20.440   1.535  23.318 -0.0686 -0.1432  0.1051
36668W        W45468   4.906   5.228  31.606 -0.0830 -0.4306  0.0313
36669W        W45469  20.332   6.439  28.198 -0.0242  0.0625 -0.0704
36670W        W45470  23.831   4.221  21.326 -0.2682 -0.0438 -0.1260
36671W        W45471   3.964   4.890  29.023 -0.2496  0.0579  0.1184
36672W        W45472   3.170   0.161   9.252  0.0321 -0.1157  0.1815
36673W        W45473  19.559   6.273  35.402  0.1826 -0.1118 -0.1543
36674W        W45474   3.632   2.274  25.682  0.4883  0.1930  0.1400
36675W        W45475  19.652   6.558   9.162  0.1081  0.2612  0.0022
36676W        W45476  13.666   4.634   6.199  0.0889 -0.0816 -0.0104
36677W        W45477  10.226   0.422  30.678 -0.1402  0.0879 -0.0159
36678W        W45478  25.830   6.181   9.158  0.0272  0.2027 -0.0716
36679W        W45479  15.668   0.403   0.089  0.1653  0.2968 -0.0515
36680W        W45480  23.038   5.740  28.621 -0.0526  0.3344  0.2320
36681W        W45481  24.142   5.817  30.502 -0.2118  0.0807  0.0634
36682W        W45482  10.781   3.802  25.907 -0.1451  0.0648 -0.0417
36683W        W45483  20.314   2.990  27.361 -0.2311  0.0856 -0.2127
36684W        W45484   6.962   2.701  31.230 -0.3025  0.2407  0.1138
36685W        W45485  21.958   1.030  31.185 -0.4332 -0.0480 -0.0660
36686W        W45486  24.792   0.672  34.741  0.1109 -0.1911  0.4467
36687W        W45487   0.208   5.989  10.429 -0.0414  0.3146  0.0606
36688W        W45488   3.643   2.184  20.760 -0.1733 -0.2821  0.0863
36689W        W45489  20.352   5.337  36.035 -0.0181  0.0120 -0.4051
36690W        W45490   2.183   5.424  14.558 -0.4694 -0.1132  0.0391
36691W        W45491   4.306   3.180  35.265  0.2935  0.1006  0.0137
36692W        W45492  25.633   0.257  14.776  0.3137 -0.1991  0.1802
36693W        W45493   3.524   2.923   1.312  0.1975 -0.1598  0.1470
36694W        W45494  18.958   1.102  35.362 -0.0592  0.0814 -0.2315
36695W        W45495  18.417   0.854  33.881 -0.2415 -0.2165 -0.1114
36696W        W45496  15.619   5.396   3.427 -0.0310 -0.2264 -0.1271
36697W        W45497  10.438   5.223  10.260 -0.0296  0.4583 -0.0934
36698W        W45498   8.564   6.079  34.997 -0.0192 -0.0181 -0.0901
36699W        W45499  22.045   3.869  22.118 -0.0678 -0.0057  0.0021
36700W        W45500  11.795   3.926  32.886 -0.2123 -0.2623 -0.1029
36701W        W45501  14.958   5.231  32.197 -0.0443  0.1303  0.1503
36702W        W45502  17.577   3.883  25.836 -0.6070 -0.2832 -0.0275
36703W        W45503   4.740   2.198  32.386 -0.2052 -0.0097 -0.0615
36704W        W45504  14.173   1.310  35.197  0.0447 -0.3372 -0.2285
36705W        W45505  21.554   4.518   3.346 -0.3814 -0.0935  0.2850
36706W        W45506   5.666   4.607  13.403  0.0466 -0.0003  0.2068
36707W        W45507   9.887   3.639  10.566 -0.1986  0.1393 -0.0106
36708W        W45508   4.064   2.294  35.439  0.0989 -0.2533 -0.2094
36709W        W45509   1.571   5.228  26.989 -0.1858  0.1278  0.1744
36710W        W45510   2.286   3.346  32.620 -0.0889  0.1227  0.0783
36711W        W45511   4.047   0.020  26.773 -0.1155 -0.1757  0.0197
36712W        W45512  18.426   6.472   5.407 -0.2844 -0.0898 -0.4774
36713W        W45513  12.140   3.859   5.528  0.1204  0.1715  0.1085
36714W        W45514   8.051   2.216   0.423  0.2227 -0.0497 -0.0608
36715W        W45515  10.289   1.591   4.604 -0.0677  0.0206 -0.0020
36716W        W45516  12.128   3.265  28.815  0.1477 -0.0022  0.0937
36717W        W45517  26.018   4.936  27.961 -0.0662 -0.1128 -0.1435
36718W        W45518   7.783   4.546  26.815  0.1320 -0.2849  0.1189
36719W        W45519  15.193   5.449  30.202  0.0712 -0.0616  0.1031
36720W        W45520  12.287   5.016   8.260 -0.1746  0.1564  0.3639
36721W        W45521  14.835   0.704  28.458 -0.2454 -0.0580 -0.2247
36722W        W45522  24.584   1.208  28.056  0.1181 -0.4209  0.1327
36723W        W45523  16.648   6.365  12.571  0.1803 -0.1170 -0.2791
36724W        W45524   9.621   5.729   9.939 -0.2056 -0.2497  0.2473
36725W        W45525  15.627   3.257   9.743  0.0067  0.2751 -0.0717
36726W        W45526   5.157   2.791  26.549 -0.1437  0.0508  0.0113
36727W        W45527  19.040   2.074   8.904 -0.1244 -0.2970 -0.1359
36728W        W45528  25.377   1.696  30.113  0.0156  0.3044 -0.0457
36729W        W45529  23.299   6.211  28.758  0.1848 -0.0854  0.2304
36730W        W45530  24.687   2.404   5.829 -0.1272 -0.1643  0.1867
36731W        W45531  25.649   1.399   0.505 -0.0851  0.2026  0.0375
36732W        W45532  18.902   2.476  35.680  0.1024 -0.2257  0.0847
36733W        W45533  22.891   0.569  24.718 -0.0099  0.1528 -0.1468
36734W        W45534  13.183   4.904  27.030  0.0460  0.0205 -0.1527
36735W        W45535  26.362   4.093   4.512  0.1197 -0.0370  0.1957
36736W        W45536  11.621   1.784  27.926 -0.0215  0.1056 -0.1277
36737W        W45537  16.008   5.516  13.784  0.1566  0.2235  0.4819
36738W        W45538  24.259   2.315  25.103 -0.0432 -0.0699 -0.0663
36739W        W45539   1.910   1.772  30.948  0.0395 -0.2490 -0.2683
36740W        W45540  16.229   2.516  25.954  0.1930 -0.1602  0.3074
36741W        W45541   2.078   4.580  28.179 -0.1825 -0.4559  0.0220
36742W        W45542  20.451   4.228  31.442 -0.2738  0.0454  0.0389
36743W        W45543   9.192   5.797  33.897  0.3087  0.0655 -0.1643
36744W        W45544   9.238   2.771  27.878 -0.1747 -0.0899  0.2547
36745W        W45545  16.286   1.366  13.050  0.1506  0.2940 -0.0133
36746W        W45546  12.462   1.250   3.659  0.1658 -0.2037  0.1753
36747W        W45547  16.796   1.905  24.455  0.3583 -0.0267  0.3635
36748W        W45548  13.775   2.023  25.510 -0.2583 -0.3499 -0.0311
36749W        W45549   6.152   6.469  10.017 -0.0590  0.2646 -0.0466
36750W        W45550  21.069   1.159  24.632 -0.1573 -0.0390 -0.4405
36751W        W45551  10.701   4.285   3.764 -0.0829  0.0162  0.0109
36752W        W45552   0.731   0.148  26.597  0.1720  0.0866  0.0540
36753W        W45553   7.136   2.517  13.557 -0.1211 -0.4866 -0.1649
36754W        W45554  16.586   1.727   6.297 -0.0816 -0.0995 -0.1002
36755W        W45555   8.259   4.041   9.016  0.1392  0.1507  0.0651
36756W        W45556  24.142   1.976  32.910  0.0757  0.0635  0.0462
36757W        W45557  14.798   5.599  21.908  0.0706 -0.1620  0.0513
36758W        W45558   4.240   1.600   0.317  0.1295 -0.2259  0.3406
36759W        W45559  12.375   6.344  23.688  0.2787  0.0182  0.3207
36760W        W45560   8.483   0.988   1.362  0.2213  0.1138  0.5336
36761W        W45561   4.384   2.378  13.705 -0.0263 -0.0903  0.1130
36762W        W45562   4.969   0.439  33.879 -0.0116 -0.1349  0.2213
36763W        W45563  17.165   4.640   5.959 -0.2594 -0.4740  0.2591
36764W        W45564  19.707   5.128  30.505  0.0545  0.1194  0.3588
36765W        W45565  10.956   3.909   7.866 -0.3213  0.0375 -0.1721
36766W        W45566   0.626   0.637  13.226 -0.2502 -0.0688 -0.0013
36767W        W45567   3.287   3.635  14.905  0.1065  0.0723 -0.0696
36768W        W45568   5.800   5.573  35.385  0.0899  0.1390  0.1455
36769W        W45569   9.156   4.461   6.361 -0.3361 -0.0933 -0.0612
36770W        W45570  22.175   4.026   1.720  0.2853 -0.1274  0.2306
36771W        W45571  22.185   2.414  13.078  0.0971 -0.0963 -0.0912
36772W        W45572  25.568   3.076  13.655  0.0800 -0.5212  0.1511
36773W        W45573  13.770   5.642   6.183 -0.1514 -0.0845  0.2278
36774W        W45574  18.688   1.446   8.332  0.1046  0.0606  0.0235
36775W        W45575   9.705   0.279  23.729  0.0491 -0.0896 -0.0582
36776W        W45576  19.592   5.041   8.660 -0.2520  0.0436  0.3263
36777W        W45577  17.042   5.067  29.580  0.2094  0.0846  0.2486
36778W        W45578  10.058   4.986   3.050 -0.1067  0.1430 -0.0958
36779W        W45579   7.359   3.697  27.166 -0.0374  0.1706 -0.0780
36780W        W45580  18.107   4.714  31.558  0.0896 -0.2320  0.0164
36781W        W45581  20.103   3.308  26.487 -0.0426 -0.1177  0.2771
36782W        W45582  16.874   4.418  32.988  0.0590 -0.0760  0.0364
36783W        W45583   2.882   4.728  31.499 -0.0917  0.3604 -0.1313
36784W        W45584  22.206   2.228  28.624 -0.1409  0.0740  0.0986
36785W        W45585   5.454   1.276  12.263 -0.0877  0.1216  0.0096
36786W        W45586  15.373   2.391  21.833 -0.0301  0.0068 -0.0881
36787W        W45587   5.954   2.147  24.710 -0.0408 -0.1051 -0.1266
36788W        W45588  18.845   2.801  11.842 -0.0141 -0.0902  0.0196
36789W        W45589  20.123   0.917  29.800 -0.0924  0.1008 -0.1625
36790W        W45590  22.972   2.002  26.253 -0.1527  0.1025 -0.1131
36791W        W45591  10.580   5.091  35.693 -0.1481 -0.0209 -0.0990
36792W        W45592  21.187   2.066   5.879 -0.0007 -0.2020 -0.0626
36793W        W45593   8.958   5.509  22.710  0.4542 -0.0014 -0.0739
36794W        W45594  19.184   2.533   9.801  0.1118  0.3206  0.0376
36795W        W45595  16.174   2.182  13.446  0.1216 -0.2949 -0.1755
36796W        W45596   4.733   0.162  35.442  0.1925 -0.0438 -0.1064
36797W        W45597  13.824   0.232  10.941 -0.1898 -0.2665  0.3689
36798W        W45598  10.682   1.732   4.929 -0.1742  0.0631  0.0341
36799W        W45599   9.904   5.886  10.350 -0.1173 -0.0382  0.0351
36800W        W45600  22.317   4.826   4.654  0.1225  0.0020 -0.0483
36801W        W45601   5.911   2.097  12.830 -0.2084  0.1129  0.2110
36802W        W45602  17.068   3.503  13.365 -0.0676 -0.0221  0.0272
36803W        W45603   2.784   3.209   2.881 -0.2956  0.0688  0.1029
36804W        W45604  22.471   0.421   3.728  0.0347  0.4443  0.0995
36805W        W45605   9.302   1.863  15.167 -0.1082 -0.0132 -0.1705
36806W        W45606  17.672   3.903   0.114  0.0384  0.0483  0.1353
36807W        W45607  14.964   1.122   5.351 -0.6684 -0.0913 -0.3980
36808W        W45608  15.369   1.389  15.281  0.1386  0.2479 -0.1401
36809W        W45609   3.342   1.074   9.155 -0.2861 -0.0447 -0.3607
36810W        W45610   9.767   1.882   0.709 -0.0770 -0.0431  0.3298
36811W        W45611   6.841   2.539  25.184 -0.0426 -0.0634  0.0321
36812W        W45612   3.951   2.801   9.755 -0.1690  0.2004 -0.1205
36813W        W45613  16.951   2.385  33.123 -0.2771 -0.0446 -0.1124
36814W        W45614  17.892   4.023   6.788  0.0675 -0.2097  0.1304
36815W        W45615  21.584   2.350   0.540  0.0368  0.0709 -0.2852
36816W        W45616   3.160   5.566  23.246 -0.0540  0.0499  0.2522
36817W        W45617   3.948   1.463  33.806 -0.1776  0.1391  0.0043
36818W        W45618  12.520   4.074   9.555 -0.0878 -0.1332 -0.4047
36819W        W45619  10.559   4.757  34.866  0.1598 -0.2192 -0.0179
36820W        W45620  21.577   1.462  23.509  0.2278  0.0948  0.0111
36821W        W45621  21.468   1.867   4.821 -0.0327  0.2647 -0.0439
36822W        W45622  11.839   5.246  16.247 -0.0357 -0.0811  0.0240
36823W        W45623  21.978   4.303   2.219  0.1953 -0.0784 -0.3549
36824W        W45624  15.580   0.353   7.126  0.0035 -0.1056  0.3290
36825W        W45625  19.641   4.928  21.008  0.1689 -0.1528 -0.0029
36826W        W45626  21.723   0.703  30.303 -0.0668 -0.1526 -0.3052
36827W        W45627   3.820   4.310   1.498  0.1702 -0.0071 -0.3441
36828W        W45628   1.164   4.442  24.995 -0.0131 -0.1342  0.0057
36829W        W45629  23.922   6.236   3.848 -0.2229  0.2777 -0.2726
36830W        W45630   8.260   1.699   1.594  0.1955 -0.1262  0.1148
36831W        W45631  16.545   3.461  14.019 -0.1310 -0.1520  0.0754
36832W        W45632   3.134   5.142   9.351  0.1500  0.0753  0.1376
36833W        W45633  15.571   4.604  14.686  0.2406  0.2978 -0.2339
36834W        W45634  14.683   3.811   3.166 -0.0408  0.1760 -0.1218
36835W        W45635   8.071   5.907   1.082  0.0933 -0.3108  0.1723
36836W        W45636   5.185   1.661   5.855 -0.0343 -0.0123  0.0066
36837W        W45637   8.407   0.198  28.925 -0.1758  0.4810 -0.0344
36838W        W45638  25.779   1.714  35.630 -0.2911  0.1370 -0.1012
36839W        W45639   5.680   2.331   1.622  0.0118 -0.0201 -0.0522
36840W        W45640  17.972   3.584   9.125 -0.0569 -0.0959  0.2628
36841W        W45641  13.240   3.615  10.114 -0.2339  0.0917  0.0690
36842W        W45642   6.376   0.973  10.118  0.2134  0.1578 -0.0409
36843W        W45643   3.543   1.821   1.881  0.0733  0.0154 -0.2146
36844W        W45644   9.964   0.614  35.682  0.0184 -0.0585 -0.2407
36845W        W45645  15.546   0.475   6.014  0.0847  0.2798 -0.0148
36846W        W45646   2.738   3.826  34.099 -0.0786  0.0252  0.0108
36847W        W45647  10.857   2.469   1.668  0.2138 -0.2186 -0.0268
36848W        W45648   4.337   0.743   9.526 -0.4925 -0.2958 -0.0035
36849W        W45649  12.957   0.304   2.134  0.5690  0.0096  0.1158
36850W        W45650  10.291   3.928  10.726 -0.0276 -0.3059  0.1000
36851W        W45651   1.444   2.003   0.365 -0.0420  0.1327  0.0497
36852W        W45652  21.575   1.957  24.253  0.1217  0.1933 -0.4899
36853W        W45653   7.894   6.099  31.375  0.2228  0.1095  0.0292
36854W        W45654   6.967   5.944  28.564 -0.1016 -0.1877  0.0023
36855W        W45655  19.703   2.517  21.775 -0.2788 -0.0088 -0.0676
36856W        W45656  15.805   0.166   9.085  0.0769 -0.0253  0.0903
36857W        W45657   7.078   1.012  33.395  0.1556  0.0559 -0.2692
36858W        W45658   2.416   2.569  33.079  0.1187  0.1946 -0.0759
36859W        W45659   6.681   5.430   4.686  0.4024  0.2055 -0.0441
36860W        W45660  14.891   4.637  23.849  0.1442 -0.1411  0.3035
36861W        W45661  24.367   6.558   0.620  0.0286  0.2069 -0.1089
36862W        W45662   1.899   4.231  35.846  0.2157  0.0833 -0.0171
36863W        W45663  11.950   3.081  11.141 -0.1028 -0.2550 -0.3014
36864W        W45664  23.063   0.558  26.061 -0.0384 -0.2098  0.1556
36865W        W45665  17.133   0.230  31.230 -0.1559  0.1932 -0.1589
36866W        W45666  14.511   2.220   8.357 -0.0448 -0.1519  0.1842
36867W        W45667  11.540   0.957  21.938  0.0528  0.0280 -0.1872
36868W        W45668   5.087   3.803  16.290 -0.0059  0.3323 -0.2069
36869W        W45669   8.797   3.869   3.678 -0.1368  0.1543  0.0342
36870W        W45670  26.404   6.178  32.926 -0.1116  0.1379  0.2728
36871W        W45671  12.790   5.231  33.070  0.0172  0.0869  0.0853
36872W        W45672   9.237   4.796   1.699  0.0148 -0.0628  0.2496
36873W        W45673   0.766   6.012  26.998 -0.0155  0.0785  0.0540
36874W        W45674  25.094   2.589  31.567  0.0512  0.0130  0.0137
36875W        W45675   7.523   0.117  31.897 -0.0373 -0.1637  0.1964
36876W        W45676  16.243   1.566   5.929 -0.3078 -0.1129  0.0931
36877W        W45677  13.936   4.279   1.054  0.0911  0.4489 -0.0532
36878W        W45678  15.019   5.237   9.206 -0.1860 -0.0371  0.0730
36879W        W45679  16.466   5.484  32.214 -0.0674 -0.4015 -0.1277
36880W        W45680  22.440   3.559  25.389 -0.0726  0.1748  0.0706
36881W        W45681   9.767   5.127  15.292 -0.0020  0.2531  0.0804
36882W        W45682   1.128   2.683   6.291 -0.3030  0.2609  0.0194
36883W        W45683  20.203   4.053   2.362 -0.1681 -0.1595  0.0445
36884W        W45684  11.684   2.574  28.144  0.1240 -0.0543  0.2029
36885W        W45685  14.748   3.313  14.593 -0.0683 -0.1217 -0.0663
36886W        W45686  17.048   6.192  12.908 -0.2800 -0.3339  0.3633
36887W        W45687   0.145   4.914  36.057 -0.1988  0.1453 -0.1882
36888W        W45688  20.008   4.725  28.121  0.1002  0.3035 -0.2236
36889W        W45689  22.673   5.210   7.194  0.0579  0.1965 -0.1664
36890W        W45690   0.902   3.893  29.322 -0.2574  0.0607 -0.1039
36891W        W45691  17.343   2.749  13.864 -0.1109  0.0365 -0.2425
36892W        W45692  12.674   1.886  12.057 -0.3749  0.2084  0.0496
36893W        W45693   3.165   2.938   5.636  0.0275  0.3524  0.0701
36894W        W45694  13.685   0.684   7.873  0.1544 -0.0918  0.0467
36895W        W45695  19.968   1.950  26.917 -0.0426 -0.2444 -0.0254
36896W        W45696  12.386   5.010  11.200  0.0918 -0.0813  0.2247
36897W        W45697  12.962   1.315   3.660  0.4214 -0.0274 -0.0067
36898W        W45698  16.776   2.422   9.233  0.1369 -0.3232  0.2276
36899W        W45699  13.361   6.402   8.147  0.2441 -0.1380  0.0664
36900W        W45700   7.542   5.990   4.963 -0.0467 -0.0070 -0.1116
36901W        W45701   3.630   4.750   3.300 -0.0738  0.2288 -0.0638
36902W        W45702  13.315   6.499   4.691 -0.0745 -0.1434  0.1387
36903W        W45703  15.787   3.459  11.070  0.2490  0.1070  0.1651
36904W        W45704   5.110   3.748  22.652 -0.0136 -0.0817 -0.0051
36905W        W45705  13.832   0.258  22.709  0.2645 -0.1747 -0.0075
36906W        W45706  11.493   0.442  28.357  0.2564 -0.1421  0.2689
36907W        W45707  23.685   5.260   5.482  0.1255  0.1299 -0.1717
36908W        W45708   1.196   2.770  30.355 -0.0425 -0.2646  0.0087
36909W        W45709  15.028   4.849  15.252 -0.1581  0.3217  0.0016
36910W        W45710  21.386   4.020   3.478 -0.1104 -0.0704 -0.2520
36911W        W45711   7.301   6.319  14.755 -0.2960 -0.0141  0.2226
36912W        W45712  11.354   5.581  33.557  0.1731 -0.1675 -0.0006
36913W        W45713   6.430   1.577  22.943 -0.2375 -0.0382  0.0449
36914W        W45714   8.237   0.786  35.251 -0.2643 -0.0788  0.0298
36915W        W45715  24.179   0.225  35.850  0.2154  0.1818  0.3592
36916W        W45716   4.443   2.752  15.524 -0.0809 -0.2261 -0.0972
36917W        W45717  22.524   3.088   6.590 -0.3411 -0.1370  0.2389
36918W        W45718  21.164   1.200  30.767 -0.0859 -0.2639  0.1640
36919W        W45719  24.586   0.571  22.386 -0.2869 -0.3114  0.2782
36920W        W45720   6.979   1.729   4.081  0.0120  0.0464  0.2536
36921W        W45721  11.567   1.206   4.740 -0.0539  0.0344 -0.2698
36922W        W45722  13.781   2.809  31.816 -0.2571 -0.2068  0.0495
36923W        W45723  16.154   6.239  12.720  0.1327  0.1323  0.1154
36924W        W45724   6.046   3.883  25.923  0.1560  0.0625  0.4517
36925W        W45725   8.930   4.906  24.747  0.1214  0.1971  0.0722
36926W        W45726   2.092   2.561   7.994  0.1395 -0.0413  0.1490
36927W        W45727  20.392   2.898  33.705  0.1658  0.0293  0.2805
36928W        W45728   5.162   3.458   7.127  0.0836 -0.1170 -0.1801
36929W        W45729  11.573   1.461  11.840 -0.3487 -0.0378  0.2165
36930W        W45730  10.788   0.780  23.331  0.1022  0.3039  0.3205
36931W        W45731  12.667   2.091   2.619 -0.2355 -0.0709 -0.0134
36932W        W45732  15.495   1.692  21.171  0.0337  0.1394  0.0804
36933W        W45733  19.331   3.186  13.783  0.2049  0.1019  0.0121
36934W        W45734  15.425   6.543   7.518  0.1715 -0.1514  0.1087
36935W        W45735   7.349   4.960   8.817 -0.4016  0.3273 -0.1644
36936W        W45736  12.263   2.009  34.900 -0.0865  0.1461  0.1300
36937W        W45737   1.436   2.710  24.499 -0.1440  0.1709 -0.0239
36938W        W45738   3.533   1.796  13.778  0.3050  0.0900 -0.0870
36939W        W45739   2.078   2.351  32.272 -0.2111  0.0362  0.4069
36940W        W45740   3.090   5.183  27.236 -0.0356  0.1318 -0.2962
36941W        W45741  21.225   2.500  29.666 -0.3525  0.1959 -0.1351
36942W        W45742  21.210   1.675  22.901  0.1911 -0.2369 -0.0033
36943W        W45743  23.214   3.056  23.790  0.1074 -0.0620 -0.0864
36944W        W45744   8.648   5.417  23.877  0.0504 -0.0465 -0.0057
36945W        W45745   8.672   1.985   0.958 -0.1694  0.2480  0.0460
36946W        W45746  15.438   2.411   3.303  0.4295 -0.1417 -0.2496
36947W        W45747   8.816   1.038  29.988  0.0291  0.1465 -0.0459
36948W        W45748  19.529   1.260  32.985 -0.0891 -0.1812 -0.1593
36949W        W45749  24.354   6.044  24.818  0.0504  0.1696 -0.0160
36950W        W45750  18.911   2.258  32.861  0.5377 -0.1114 -0.1676
36951W        W45751  14.965   1.443  10.307 -0.0400  0.0824 -0.0041
36952W        W45752   5.409   6.131  33.842 -0.1670  0.1170 -0.0592
36953W        W45753   3.143   5.349   5.316 -0.0448 -0.2492 -0.0083
36954W        W45754  14.286   5.720   1.042 -0.0661 -0.1192  0.0299
36955W        W45755   5.146   3.548  29.589  0.0099  0.1005 -0.2290
36956W        W45756   9.867   1.082   4.014  0.0690  0.1311  0.2186
36957W        W45757   0.831   4.598  24.483  0.0539  0.1095 -0.2490
36958W        W45758   1.598   3.239  11.652  0.0951 -0.1734  0.2474
36959W        W45759  10.782   1.942  28.023 -0.2848 -0.5288  0.0128
36960W        W45760  23.082   3.597  34.592  0.1491  0.1842 -0.1141
36961W        W45761   2.792   5.770   7.081  0.2193  0.1552  0.1588
36962W        W45762   7.198   6.496  13.361  0.0858 -0.0429  0.2461
36963W        W45763  20.783   3.771  21.628  0.1647  0.0710 -0.1201
36964W        W45764  23.894   6.209  30.612  0.0160 -0.1051  0.0188
36965W        W45765  12.199   0.733  10.389 -0.3803 -0.0627 -0.0346
36966W        W45766   0.700   1.932  12.918  0.1774  0.0352 -0.0918
36967W        W45767  18.283   0.294   2.864 -0.0087  0.1219 -0.0000
36968W        W45768  12.254   3.195   4.196 -0.1675 -0.0831  0.1061
36969W        W45769  11.077   2.041   0.897  0.0059  0.3134  0.2374
36970W        W45770   6.539   6.226   2.020 -0.0940  0.2844 -0.1097
36971W        W45771  24.442   3.168  26.092 -0.1015 -0.0956 -0.1217
36972W        W45772  10.930   6.242  31.824  0.0443  0.1069  0.1069
36973W        W45773  23.465   2.019  21.865 -0.2497 -0.0576  0.1666
36974W        W45774  17.920   5.624   4.035 -0.2538  0.0499  0.1437
36975W        W45775   4.584   5.327   5.564 -0.0894  0.1811 -0.2106
36976W        W45776  13.840   0.100  12.023 -0.1524 -0.0768 -0.2093
36977W        W45777  20.627   2.613   0.527 -0.0336  0.1928  0.0693
36978W        W45778  11.403   0.070  13.024 -0.2407 -0.2078 -0.1118
36979W        W45779  12.465   4.141  26.927 -0.3545 -0.0784 -0.2602
36980W        W45780  15.300   1.689  23.357  0.2009  0.0658  0.2199
36981W        W45781   7.286   1.428  22.456 -0.0209  0.2620 -0.2816
36982W        W45782  24.842   0.674  32.732  0.1291 -0.2486  0.0165
36983W        W45783  10.709   4.720  30.870 -0.1802 -0.1596  0.1675
36984W        W45784   0.746   2.686  33.858 -0.0733  0.0445  0.2496
36985W        W45785  20.447   6.311  13.705 -0.1503  0.0980 -0.2360
36986W        W45786  21.095   0.860   2.844  0.1078 -0.1110 -0.1324
36987W        W45787  11.203   0.181  28.794  0.1203 -0.0956 -0.1529
36988W        W45788  11.085   1.931   4.255 -0.0338 -0.1228  0.0263
36989W        W45789  19.984   6.339   1.257  0.1634 -0.1180 -0.0324
36990W        W45790  23.817   3.698   8.514 -0.3117 -0.2049 -0.0349
36991W        W45791   3.916   5.450  25.198 -0.0875 -0.1400 -0.0041
36992W        W45792  12.184   0.469  33.383  0.0081 -0.3182 -0.1021
36993W        W45793  22.680   4.592   9.268  0.1149  0.1002  0.2880
36994W        W45794  19.016   5.043  28.640  0.0110 -0.0745 -0.0298
36995W        W45795   2.192   2.490   0.811 -0.1902  0.0010  0.0885
36996W        W45796  17.687   6.119  28.190 -0.0860  0.0951 -0.2247
36997W        W45797  12.299   6.571   5.565  0.0781 -0.2133 -0.0842
36998W        W45798  23.772   6.503  31.139  0.1794  0.0104 -0.0561
36999W        W45799   9.658   1.463  10.477  0.1920  0.3287 -0.0108
37000W        W45800  10.724   4.409  32.710  0.1901 -0.0432 -0.2010
37001W        W45801  18.599   5.970  25.757  0.0306  0.1288 -0.0852
37002W        W45802  11.033   1.464  24.778  0.1469 -0.4105  0.1307
37003W        W45803  16.483   5.924  31.500  0.0133  0.3917  0.0034
37004W        W45804  10.625   0.797   6.735  0.3019 -0.2250  0.0003
37005W        W45805   0.487   3.251  11.441  0.0099  0.0309  0.0490
37006W        W45806   5.699   0.852  23.822  0.3642  0.1697 -0.0280
37007W        W45807  11.839   2.529  13.091  0.0154  0.0345 -0.1270
37008W        W45808  23.263   6.069  22.347 -0.2981 -0.2336  0.1226
37009W        W45809   8.756   2.607  23.998 -0.1297  0.0522 -0.0766
37010W        W45810  25.435   2.672  25.990  0.0951  0.0614  0.1475
37011W        W45811   2.129   0.325  33.960  0.1329  0.2741 -0.2170
37012W        W45812  13.525   0.646   7.151  0.1973  0.0170 -0.0943
37013W        W45813   5.280   2.487   4.723 -0.3325 -0.2077  0.1787
37014W        W45814  19.608   5.935   7.716  0.1677 -0.0273  0.1074
37015W        W45815   5.974   0.408   4.937 -0.2017  0.3654  0.1108
37016W        W45816  16.178   5.252  12.808  0.0858  0.0729  0.0295
37017W        W45817  25.336   6.306  21.802  0.0355 -0.0247  0.2394
37018W        W45818   7.101   4.453  29.615 -0.1376 -0.0465  0.1806
37019W        W45819  13.082   6.071  29.388  0.0862 -0.1209 -0.2381
37020W        W45820  12.991   0.919  12.970  0.1913 -0.1151  0.2185
37021W        W45821  15.723   1.128  30.059  0.0969  0.0359  0.0731
37022W        W45822  25.039   6.577  35.469 -0.0337  0.2281 -0.0132
37023W        W45823  20.520   2.748  22.471 -0.1793  0.1175 -0.0642
37024W        W45824  13.356   5.446  22.940 -0.0480  0.2286  0.0057
37025W        W45825   7.779   0.988  35.270  0.0054 -0.1569 -0.1312
37026W        W45826  16.063   2.804  21.782  0.0733  0.1145 -0.0171
37027W        W45827  22.512   6.139  29.345  0.0954 -0.0639  0.0962
37028W        W45828   3.646   1.340   4.788  0.0412 -0.0956 -0.0113
37029W        W45829   8.440   1.774  14.168 -0.1196  0.2039 -0.0829
37030W        W45830  21.091   3.955   7.014 -0.0106 -0.0240 -0.0461
37031W        W45831  16.632   5.402   8.503 -0.3254  0.1798 -0.1690
37032W        W45832  12.635   3.905  24.124  0.1435  0.1574  0.0294
37033W        W45833   6.544   4.278   3.085  0.3731  0.0780 -0.1504
37034W        W45834  18.421   1.490  26.128 -0.1505 -0.0967 -0.0156
37035W        W45835   6.443   0.850  26.880  0.1802 -0.0222 -0.2810
37036W        W45836   6.813   0.861   6.502  0.1892 -0.0744 -0.0757
37037W        W45837   1.353   5.688  29.863 -0.2985  0.0643 -0.0810
37038W        W45838  20.643   1.844  32.412 -0.1488 -0.5185  0.0305
37039W        W45839   3.762   2.529   1.261 -0.0776  0.0503 -0.0524
37040W        W45840  14.184   3.988  13.541  0.1027 -0.2843  0.0605
37041W        W45841   5.527   2.309  29.003  0.1342 -0.1069 -0.1940
37042W        W45842   5.280   4.023  30.033  0.1370 -0.0705  0.0545
37043W        W45843  14.549   4.697   2.153 -0.0800  0.2258 -0.0953
37044W        W45844  23.910   5.044   2.036  0.0435 -0.1727  0.0128
37045W        W45845   6.959   4.029   5.567  0.0002  0.1325  0.2738
37046W        W45846   7.594   4.613   3.658  0.0854  0.0407  0.2950
37047W        W45847  18.851   3.793  22.453 -0.1844  0.2747  0.0801
37048W        W45848  24.942   4.705   5.661 -0.2333  0.2937 -0.0477
37049W        W45849   0.819   2.576  33.311  0.3748 -0.1517  0.1654
37050W        W45850  11.059   1.408  11.843 -0.3007  0.1215 -0.0036
37051W        W45851   1.798   3.715  35.787 -0.0186  0.3827  0.0224
37052W        W45852   2.667   3.951  28.695  0.0214  0.0951  0.1771
37053W        W45853  19.071   5.163   9.433 -0.1788 -0.1363  0.2638
37054W        W45854  26.065   4.548   3.010  0.0239 -0.1737  0.2720
37055W        W45855  16.999   5.383  13.898 -0.4287 -0.2892  0.0679
37056W        W45856   1.535   3.203  30.437  0.0378  0.2997  0.1385
37057W        W45857   6.680   5.383  26.728  0.2516  0.0187  0.0654
37058W        W45858  12.910   6.256   2.816  0.1325 -0.0460  0.0358
37059W        W45859  23.413   0.314  10.880  0.1031 -0.1943 -0.0058
37060W        W45860  22.150   4.387   4.468  0.1853  0.4162  0.1313
37061W        W45861   2.484   6.092  27.903 -0.1753 -0.0957 -0.1912
37062W        W45862  25.000   2.215  22.823  0.2669 -0.0261 -0.0934
37063W        W45863  23.146   4.026   1.608  0.0673  0.0161 -0.0970
37064W        W45864  16.347   3.397  11.659 -0.0982 -0.3320  0.1734
37065W        W45865   4.276   3.564   3.199  0.0729 -0.2653  0.3124
37066W        W45866  18.481   6.337   0.501 -0.1499  0.0329 -0.0298
37067W        W45867  14.047   6.515  26.910 -0.3853 -0.0594 -0.1599
37068W        W45868  18.195   0.024   3.321  0.0046 -0.0423 -0.2577
37069W        W45869  18.826   4.285  12.581 -0.1388 -0.2845 -0.0482
37070W        W45870  13.528   4.810  30.116  0.1294 -0.0939  0.3258
37071W        W45871  24.231   4.398  36.068  0.0163 -0.0857 -0.2858
37072W        W45872  20.435   2.068  31.123 -0.1714  0.2923  0.2263
37073W        W45873   5.542   6.423  13.836  0.0670  0.0981  0.0161
37074W        W45874   8.132   3.094   2.332  0.2158  0.1291 -0.1828
37075W        W45875  17.373   4.836   9.819  0.1190  0.2970 -0.1091
37076W        W45876  26.383   4.933  23.753 -0.3536 -0.0237  0.2427
37077W        W45877  19.002   2.809  12.960  0.1209  0.0171 -0.4079
37078W        W45878  11.738   5.791   8.564  0.2094  0.3329 -0.2378
37079W        W45879   8.942   4.514  24.172 -0.0284  0.0648 -0.0044
37080W        W45880  17.981   1.110  33.798 -0.4821  0.6448  0.0676
37081W        W45881   1.718   0.379   9.735 -0.0410 -0.2686  0.0613
37082W        W45882  18.857   2.275  25.837  0.2478  0.1484 -0.1887
37083W        W45883   9.148   0.136  31.602  0.0952  0.0341 -0.0291
37084W        W45884   8.212   2.069  24.197 -0.2657  0.0690  0.2221
37085W        W45885  23.149   1.340  10.785 -0.0034 -0.2285  0.0565
37086W        W45886  21.933   4.156  30.318  0.6657 -0.0055 -0.0636
37087W        W45887  12.254   4.537  22.231 -0.0328 -0.1113  0.1255
37088W        W45888   2.924   3.811   0.830  0.1234  0.3590  0.3550
37089W        W45889  21.237   2.202  14.560  0.1845  0.1046 -0.0373
37090W        W45890  23.100   2.716   3.152  0.2620  0.0070  0.0312
37091W        W45891  18.808   2.852  20.023  0.3920 -0.0638  0.1036
37092W        W45892  18.577   3.150  25.112  0.1820 -0.0259 -0.1085
37093W        W45893  23.769   4.652  15.622  0.4211 -0.0588 -0.0054
37094W        W45894   7.236   5.885  34.687 -0.1961 -0.1005 -0.1406
37095W        W45895   5.782   5.708  22.726  0.1571 -0.1230 -0.0135
37096W        W45896  21.469   0.032   8.657  0.0041 -0.1347 -0.2238
37097W        W45897  24.479   3.251   7.043  0.0993 -0.2676  0.0936
37098W        W45898  24.759   6.047  35.876  0.3651 -0.1177  0.0832
37099W        W45899   7.020   3.841  35.157  0.1473  0.0978 -0.3267
37100W        W45900  14.829   2.848  21.019 -0.0951 -0.0408 -0.0898
37101W        W45901   1.658   3.944  28.988 -0.0377 -0.0837  0.3351
37102W        W45902  21.944   5.215  27.254 -0.0432 -0.0486 -0.0143
37103W        W45903  12.978   6.104  33.163  0.0854 -0.3144 -0.1213
37104W        W45904  24.127   1.208  11.581  0.1910 -0.0665 -0.1669
37105W        W45905  17.759   0.284  13.658 -0.2831  0.2478 -0.1526
37106W        W45906  12.560   1.988   3.066  0.0760  0.1092 -0.0921
37107W        W45907  21.204   3.646  10.382  0.1035 -0.1739 -0.0583
37108W        W45908   0.740   0.144  35.806  0.2019  0.4423 -0.0885
37109W        W45909  15.573   1.209  21.738  0.2255  0.0119  0.0435
37110W        W45910  19.242   1.521  22.792 -0.2092  0.2593  0.0070
37111W        W45911  10.903   1.821   8.654  0.0208  0.0448 -0.1025
37112W        W45912   6.174   5.522   4.795 -0.0742 -0.0532  0.2135
37113W        W45913   0.885   0.582   7.034 -0.3064 -0.0993  0.0124
37114W        W45914  18.878   0.569  33.779 -0.2346 -0.2228  0.0356
37115W        W45915  12.352   3.220  12.533  0.1036  0.1014 -0.1894
37116W        W45916  12.844   2.784  30.973 -0.0693 -0.1835 -0.1171
37117W        W45917  17.683   2.199   2.630  0.0740  0.4024  0.0437
37118W        W45918  25.330   4.153   1.872  0.0426  0.1550 -0.1917
37119W        W45919   6.003   4.736  31.715  0.0911  0.0879  0.1016
37120W        W45920   4.762   0.636  23.881  0.1205 -0.0193 -0.0624
37121W        W45921   1.099   6.449   7.690  0.0336 -0.1928  0.0988
37122W        W45922  13.000   6.036  23.209 -0.0365 -0.0414 -0.0280
37123W        W45923   2.130   0.811  15.059 -0.0027 -0.2149 -0.2168
37124W        W45924  23.781   2.858  34.269 -0.0459 -0.1208  0.0856
37125W        W45925  25.939   5.481  12.010  0.1277 -0.2718  0.0679
37126W        W45926  14.755   1.070  12.974 -0.1197 -0.0119 -0.1896
37127W        W45927  12.127   2.931  35.817 -0.0970 -0.1419  0.2567
37128W        W45928  22.025   0.365   6.429 -0.3023  0.2501 -0.1101
37129W        W45929   0.203   3.087  27.549 -0.2099 -0.0747 -0.1435
37130W        W45930   3.999   5.428   6.915 -0.0098  0.1558  0.1808
37131W        W45931  10.589   3.833   1.208  0.0439  0.0701 -0.2248
37132W        W45932   8.352   5.961  26.347  0.3979  0.0299 -0.3028
37133W        W45933  12.550   5.635   7.576  0.0281 -0.2696 -0.2602
37134W        W45934   8.671   2.199  24.392  0.0762  0.4311  0.5572
37135W        W45935   7.244   0.411  33.383  0.0375 -0.0872 -0.0372
37136W        W45936   0.060   3.251  35.974  0.0936 -0.0889 -0.1208
37137W        W45937  13.434   5.821  35.430  0.2129  0.1965  0.0851
37138W        W45938  22.775   2.856   0.797  0.2252  0.2530  0.1079
37139W        W45939  12.618   3.490   8.782  0.0720  0.0957  0.1342
37140W        W45940  20.922   1.689  11.238 -0.1542 -0.0901 -0.1694
37141W        W45941  25.040   2.676   5.568 -0.2551 -0.1187  0.0515
37142W        W45942  17.920   5.307   7.781  0.2291 -0.0026  0.0734
37143W        W45943  14.205   1.979  32.429  0.1406 -0.0047 -0.1158
37144W        W45944  15.734   4.224   6.153  0.0756  0.1388  0.2635
37145W        W45945  17.961   6.416  35.811 -0.1283  0.0362  0.0289
37146W        W45946  18.148   2.071  24.610  0.0697 -0.2769  0.0400
37147W        W45947  22.711   4.136  13.065  0.2128 -0.2679 -0.3557
37148W        W45948  12.344   2.916   3.445 -0.0092  0.2617 -0.1758
37149W        W45949  22.680   5.674  34.803 -0.1998 -0.0169  0.1225
37150W        W45950   4.127   0.077  31.060 -0.0013 -0.3675 -0.0476
37151W        W45951   0.414   3.293  21.817  0.1194 -0.1739  0.0895
37152W        W45952  21.018   1.052  26.526  0.1379 -0.2222  0.1839
37153W        W45953  15.672   4.712  10.408  0.1978  0.4378 -0.4136
37154W        W45954   1.729   1.328  10.598  0.0111 -0.1704  0.0944
37155W        W45955   8.216   0.125  25.381  0.0280  0.3006  0.0531
37156W        W45956  15.299   1.050  12.956  0.1202 -0.3133  0.1971
37157W        W45957   7.684   0.765  21.990 -0.2869 -0.0923 -0.0268
37158W        W45958  26.132   4.390  29.098 -0.0742 -0.3740  0.1683
37159W        W45959   3.848   5.977  32.711 -0.1313  0.2771 -0.2828
37160W        W45960   9.004   1.252   7.984 -0.0734  0.0745 -0.0008
37161W        W45961  17.237   5.040  12.290  0.1258  0.0531  0.0091
37162W        W45962   2.374   4.924  27.617  0.1492  0.1487  0.0808
37163W        W45963   3.984   3.689  27.885  0.0989  0.0170 -0.2064
37164W        W45964  23.088   3.483  23.952 -0.2324  0.0607  0.0939
37165W        W45965  19.002   2.722   6.273  0.0866 -0.0143  0.2709
37166W        W45966  16.249   3.887  11.841 -0.4894  0.1587  0.0190
37167W        W45967  19.679   2.736   0.661 -0.3350 -0.0582  0.2273
37168W        W45968  23.953   0.550  31.356 -0.3646 -0.0001  0.0268
37169W        W45969  14.297   4.300  27.609  0.2316 -0.1026  0.0353
37170W        W45970  13.567   4.061   0.378  0.0892 -0.0181 -0.1657
37171W        W45971   7.978   3.826  13.837  0.0526 -0.1276  0.0509
37172W        W45972  18.485   5.213  15.505  0.1022 -0.2915  0.1719
37173W        W45973  23.738   1.497  30.537  0.1915 -0.0751  0.3998
37174W        W45974  17.324   6.523  12.689  0.2383 -0.0356 -0.1084
37175W        W45975   4.843   2.731  21.119 -0.0610 -0.2623  0.4257
37176W        W45976   1.183   4.315  14.326 -0.0049  0.0170  0.2481
37177W        W45977  14.808   0.545  31.616  0.0302 -0.2120  0.2886
37178W        W45978   3.771   1.210  10.842  0.0097  0.2490 -0.0805
37179W        W45979   2.471   1.398  13.896 -0.0976  0.0196  0.1149
37180W        W45980   5.947   4.301   3.221 -0.0493 -0.1835  0.0955
37181W        W45981   0.343   3.971  31.939  0.0519  0.0552 -0.0365
37182W        W45982  11.053   4.488   8.252  0.1813  0.0288  0.1925
37183W        W45983   4.028   2.628  10.246  0.1403 -0.1789 -0.1205
37184W        W45984   7.866   2.672  11.287 -0.1251  0.2651  0.0606
37185W        W45985  25.314   3.490  13.339  0.0046  0.0085 -0.1507
37186W        W45986  26.256   4.813  30.016  0.1336  0.1389 -0.1339
37187W        W45987  12.651   4.484  29.947  0.2396  0.0111  0.0432
37188W        W45988  13.206   4.294  33.734  0.2474  0.1199 -0.0921
37189W        W45989   5.874   2.835   7.815 -0.2325  0.0115 -0.1259
37190W        W45990  17.779   1.045  26.548 -0.0714 -0.3989  0.0995
37191W        W45991   7.716   4.701  12.430  0.0995  0.0327 -0.2893
37192W        W45992  23.108   3.864   5.439 -0.1508  0.3241  0.1250
37193W        W45993  24.990   5.050  21.562 -0.0138  0.2906  0.0466
37194W        W45994   7.148   2.984   7.497  0.2016 -0.3562 -0.0116
37195W        W45995   8.272   6.444   4.519  0.1340 -0.0198 -0.0571
37196W        W45996  25.099   2.893  24.713 -0.1171 -0.0100  0.2817
37197W        W45997   6.137   4.527  21.980  0.1376  0.1169 -0.0371
37198W        W45998  17.687   2.417  33.673 -0.2011  0.1942 -0.0185
37199W        W45999  19.482   4.395  10.653 -0.1198  0.1686 -0.1752
37200W        W46000   8.667   1.332  25.763  0.2784  0.1466  0.0914
37201W        W46001  22.970   3.439  30.044  0.0963 -0.2610  0.2215
37202W        W46002  23.965   2.244  21.526 -0.2963  0.0026  0.0346
37203W        W46003  21.941   0.265   8.598  0.1723 -0.3830 -0.2707
37204W        W46004  18.427   5.466   1.732 -0.2192  0.0911  0.0152
37205W        W46005  16.028   0.771  36.074 -0.0191 -0.2185  0.0602
37206W        W46006  26.383   2.851  14.071  0.0937  0.0519  0.1408
37207W        W46007  15.599   0.545  34.785 -0.1775  0.0432 -0.1521
37208W        W46008  14.428   3.063   1.659  0.0163  0.0220 -0.0696
37209W        W46009  23.384   5.441   4.168  0.0925  0.2743 -0.2726
37210W        W46010   6.097   1.154   0.656  0.3272  0.0563 -0.1763
37211W        W46011  15.403   2.833   9.865 -0.1092 -0.0481 -0.0074
37212W        W46012   8.201   3.815  32.793  0.1686 -0.0309  0.3352
37213W        W46013   1.739   5.048   3.565 -0.1234  0.5370 -0.3630
37214W        W46014   5.617   3.907  10.083  0.1295 -0.1513  0.4898
37215W        W46015  16.985   5.406   7.547  0.1150  0.2274  0.2928
37216W        W46016   8.014   4.463  34.091 -0.1347  0.1817 -0.0577
37217W        W46017  24.421   3.035  24.261 -0.1852  0.2788  0.0303
37218W        W46018  22.362   5.958  25.514 -0.1465  0.1880 -0.1927
37219W        W46019   8.454   0.435  23.494  0.1692 -0.2203  0.1057
37220W        W46020   6.858   6.524  14.351 -0.1645 -0.0024  0.2639
37221W        W46021  15.271   2.877  15.445  0.4386 -0.1249  0.0244
37222W        W46022  24.348   1.650  15.037  0.1826 -0.1575 -0.0678
37223W        W46023   9.052   0.991  11.033 -0.0754  0.3501  0.1106
37224W        W46024  20.779   4.608   5.599 -0.0148 -0.1719 -0.2052
37225W        W46025  26.176   1.858  11.321 -0.1002  0.1075  0.2094
37226W        W46026   8.337   5.953   3.816 -0.0061  0.0723 -0.2612
37227W        W46027   1.365   5.262  27.424  0.2369 -0.2727  0.1903
37228W        W46028   3.377   6.494  33.976  0.0192  0.0496  0.0627
37229W        W46029   3.696   2.043  13.320  0.1172  0.0326  0.0646
37230W        W46030   2.656   2.489  35.098  0.1137 -0.2842  0.2201
37231W        W46031  20.694   6.543  23.713  0.0755 -0.0343  0.1997
37232W        W46032  11.322   4.196  21.515 -0.0527 -0.1194 -0.1732
37233W        W46033  18.031   5.349  28.017 -0.0387 -0.0499  0.2414
37234W        W46034  12.651   4.061   5.370  0.1011  0.0342 -0.0519
37235W        W46035   0.546   2.943  12.725  0.2042 -0.4769  0.2491
37236W        W46036  12.425   6.119   4.073  0.0413 -0.0098 -0.2157
37237W        W46037   8.874   4.241  31.264  0.2322 -0.0205 -0.0009
37238W        W46038  25.986   0.183  21.703 -0.0210 -0.0363 -0.1152
37239W        W46039  18.564   4.035  14.232 -0.4470 -0.2882  0.3278
37240W        W46040   5.261   5.188  22.436  0.1493 -0.1273  0.1007
37241W        W46041  10.923   3.152  34.104  0.0110 -0.1843  0.2366
37242W        W46042  19.591   0.821   4.623 -0.1473  0.2668  0.1307
37243W        W46043  25.429   0.927  21.157 -0.1776  0.0875  0.1570
37244W        W46044   0.386   4.095  35.940  0.0746  0.3277 -0.2310
37245W        W46045   1.036   6.217  27.568  0.0135 -0.2056  0.0511
37246W        W46046  21.439   0.944  20.840  0.1423 -0.2665  0.1217
37247W        W46047   8.967   4.006  14.704 -0.2684 -0.1628  0.1523
37248W        W46048  12.658   3.971  25.498  0.2373  0.0629  0.1068
37249W        W46049  21.560   0.482   5.606  0.1470 -0.1450  0.1190
37250W        W46050   2.709   6.205   7.721  0.0885  0.0425 -0.2983
37251W        W46051   7.731   5.697  12.251 -0.0620  0.1461  0.0032
37252W        W46052   5.484   3.712  15.902 -0.2800  0.0301 -0.0685
37253W        W46053  19.139   2.480   4.600 -0.0747  0.1055  0.0996
37254W        W46054  21.734   5.708  24.379 -0.0911 -0.1591 -0.1857
37255W        W46055   6.525   4.771  35.041  0.0468 -0.0146  0.1881
37256W        W46056   8.896   4.125  24.568  0.0121 -0.0741  0.0905
37257W        W46057  15.336   2.221  23.199  0.2288  0.0396 -0.1290
37258W        W46058   6.500   3.391  27.708 -0.2667 -0.3201 -0.1419
37259W        W46059  26.234   1.049  11.917 -0.0286  0.1285 -0.1863
37260W        W46060  11.562   2.873  31.547  0.1966 -0.0304 -0.0356
37261W        W46061  26.232   6.031   2.231 -0.2894  0.2516 -0.1665
37262W        W46062  23.018   4.747  27.841 -0.0212  0.2852 -0.2608
37263W        W46063  24.360   4.893   3.418  0.0323 -0.0194  0.1031
37264W        W46064  24.164   5.465  21.779 -0.0030 -0.0165  0.0343
37265W        W46065  11.253   1.466  29.739 -0.1195  0.0955 -0.1097
37266W        W46066  14.858   2.659  28.453  0.0631  0.0582  0.4610
37267W        W46067   6.405   3.473   7.761 -0.0139  0.3018 -0.0211
37268W        W46068  10.497   6.056  14.599 -0.0217  0.2060  0.0918
37269W        W46069   3.741   5.349  22.814  0.1393 -0.0078 -0.0328
37270W        W46070   6.531   1.293   8.608  0.3472 -0.0656  0.0476
37271W        W46071  20.427   4.979  14.125 -0.1694 -0.1363 -0.0005
37272W        W46072  25.742   0.208  33.687  0.0884 -0.0776  0.2592
37273W        W46073   7.247   2.140   0.978  0.0759 -0.1348 -0.0848
37274W        W46074  20.940   1.081  13.232  0.2093 -0.3005  0.0852
37275W        W46075  19.084   3.031  10.369  0.2271 -0.0190  0.0819
37276W        W46076  16.031   5.871  11.316  0.5363  0.0520  0.1089
37277W        W46077  23.744   4.381  33.263  0.2073 -0.1899 -0.0309
37278W        W46078  16.699   4.526  12.992 -0.1076  0.1136  0.2688
37279W        W46079  24.062   2.025  26.435  0.0337  0.1871  0.3220
37280W        W46080  20.717   0.768  25.310  0.1371 -0.1280  0.0342
37281W        W46081  14.453   1.328   0.145 -0.1446 -0.3037  0.1883
37282W        W46082  25.805   3.606  13.578 -0.0733 -0.2170  0.0920
37283W        W46083   3.770   5.809  24.537 -0.2101 -0.0842  0.2677
37284W        W46084   2.034   0.116  32.620 -0.0639  0.0317  0.0050
37285W        W46085   8.825   2.022  21.752 -0.1176  0.0075 -0.1065
37286W        W46086  23.143   5.860  34.820 -0.1302  0.0930 -0.1502
37287W        W46087  14.381   1.860  35.080 -0.0539 -0.0597  0.3901
37288W        W46088   1.161   6.558  20.694 -0.5534  0.1734  0.0152
37289W        W46089  23.859   2.834  12.475 -0.1314 -0.2988  0.1647
37290W        W46090  16.484   0.694  24.203  0.2483  0.0181 -0.0840
37291W        W46091   1.136   2.187   1.871  0.1784  0.1074  0.0934
37292W        W46092   9.761   5.511   1.414  0.1113  0.0689 -0.0993
37293W        W46093   7.734   5.767  26.311 -0.2458  0.1937  0.0743
37294W        W46094   8.649   4.131   6.617 -0.1046 -0.2157 -0.0296
37295W        W46095  23.828   4.855  22.467 -0.0574 -0.0630  0.0138
37296W        W46096  16.146   3.479   7.151 -0.0912  0.2094  0.1993
37297W        W46097   5.830   0.589  14.955 -0.0673 -0.0457 -0.1891
37298W        W46098  23.826   5.233  32.832  0.1607 -0.4218 -0.0661
37299W        W46099   8.037   3.486   2.931  0.0642  0.2127 -0.1852
37300W        W46100  21.652   0.250  20.670 -0.2317  0.1759  0.0262
37301W        W46101   0.922   3.360  14.470  0.1139 -0.2692 -0.1419
37302W        W46102   4.386   1.623  14.238 -0.0164  0.1736  0.1322
37303W        W46103   3.121   4.979   8.682  0.2940 -0.2646 -0.1175
37304W        W46104  24.121   2.773  28.800  0.0790  0.2182  0.0640
37305W        W46105  14.805   0.106   8.624  0.1505  0.1229 -0.3036
37306W        W46106   9.072   6.453   5.640  0.1501 -0.1441 -0.1740
37307W        W46107  22.101   0.987  20.712 -0.2388 -0.1479  0.0829
37308W        W46108   0.055   4.152  25.694  0.1002 -0.1532 -0.1084
37309W        W46109  24.069   5.953  13.169  0.0170  0.2176  0.2403
37310W        W46110  23.712   0.095  11.689  0.1326  0.2102  0.1145
37311W        W46111  21.428   4.661  27.960  0.0002  0.0681  0.2286
37312W        W46112   5.375   3.329  34.433  0.1072  0.0512 -0.0028
37313W        W46113  14.110   3.104   6.139  0.2382  0.0667 -0.2009
37314W        W46114  10.181   0.191   4.285 -0.2166  0.1007 -0.1592
37315W        W46115  24.242   3.017   4.909  0.1861  0.0300 -0.1258
37316W        W46116  15.530   1.368   9.687 -0.0298 -0.0472 -0.0206
37317W        W46117  19.952   5.431  22.202  0.1206 -0.0223  0.0041
37318W        W46118  20.132   1.784   9.518 -0.1624 -0.5772  0.1826
37319W        W46119  12.268   1.665  31.122  0.0609 -0.0622  0.1082
37320W        W46120   7.191   0.023  32.386 -0.1512 -0.1116  0.3158
37321W        W46121   0.741   4.557  30.037  0.0250 -0.1102 -0.1088
37322W        W46122  17.761   2.210   3.761  0.2001 -0.4466 -0.2011
37323W        W46123  16.309   0.742   5.105 -0.3056  0.2869  0.1303
37324W        W46124   3.054   2.297  35.416  0.0291  0.0831  0.1563
37325W        W46125   5.577   3.288  23.530  0.4290 -0.1914  0.1181
37326W        W46126   5.130   6.057   6.252 -0.2298  0.0998  0.1996
37327W        W46127  11.499   3.917  32.447  0.3422  0.0958 -0.0201
37328W        W46128   5.555   2.015   7.593  0.0461  0.1964 -0.0140
37329W        W46129   8.351   2.125  33.121 -0.1876  0.0299  0.3922
37330W        W46130  10.675   1.209  25.348 -0.0485 -0.1002 -0.1211
37331W        W46131  15.143   2.763  22.181  0.1178  0.3659 -0.0465
37332W        W46132   6.549   3.907  21.068  0.0186 -0.3003  0.0137
37333W        W46133  26.176   4.341  27.659 -0.3890 -0.1691 -0.2044
37334W        W46134  23.012   1.802  12.111  0.0010 -0.1024 -0.1887
37335W        W46135   6.584   2.377  34.732 -0.1877  0.1580 -0.1935
37336W        W46136   3.452   4.694   4.218  0.0129 -0.1328  0.1350
37337W        W46137   0.392   4.497  26.676  0.0063 -0.0155  0.2043
37338W        W46138   6.252   3.571  21.155  0.2857 -0.0771 -0.0304
37339W        W46139  11.888   5.548  21.888 -0.0207 -0.0747 -0.0239
37340W        W46140  19.968   5.391  25.459 -0.0618  0.5477 -0.1490
37341W        W46141   5.938   3.290   7.677 -0.0465  0.3009  0.0338
37342W        W46142   5.124   6.363  22.327  0.0810  0.0976 -0.1871
37343W        W46143  25.054   3.997  31.561  0.1811 -0.1112 -0.1378
37344W        W46144  15.121   1.512  34.631 -0.1122 -0.0834 -0.3941
37345W        W46145  21.814   2.766  13.731 -0.0938  0.0911  0.0505
37346W        W46146  22.767   1.623  22.504 -0.2147 -0.4219  0.0530
37347W        W46147  18.452   2.388  14.633  0.0670  0.0419 -0.1424
37348W        W46148   1.066   6.558  32.013  0.1078 -0.2678  0.1812
37349W        W46149   1.040   3.440  24.202  0.1769  0.2147 -0.0123
37350W        W46150  21.757   2.035  31.439 -0.1322  0.0296 -0.1214
37351W        W46151  17.729   2.051   8.385 -0.1369  0.0839  0.1192
37352W        W46152   5.233   4.724   7.785 -0.2731 -0.1355  0.2416
37353W        W46153   1.162   5.637  23.429  0.2497 -0.1802  0.0322
37354W        W46154  19.051   6.249   5.713 -0.1756  0.0175  0.1086
37355W        W46155  17.571   1.691   9.900 -0.1318 -0.1308  0.0840
37356W        W46156  12.755   4.172  14.442  0.3850 -0.0307  0.3531
37357W        W46157   3.163   2.599   6.363  0.1964 -0.2169 -0.1603
37358W        W46158  20.458   0.166  26.666 -0.2176  0.1182  0.0711
37359W        W46159  10.962   3.562  26.787  0.2332 -0.0808 -0.2944
37360W        W46160  18.676   5.745  24.115 -0.1742  0.3526 -0.0203
37361W        W46161  25.970   1.457  24.933  0.1839 -0.1702  0.1087
37362W        W46162   4.662   6.107   1.786 -0.3320 -0.2539  0.0291
37363W        W46163   9.478   2.244   1.610 -0.0121 -0.0786  0.0771
37364W        W46164  21.979   2.271  33.775 -0.0193  0.0663 -0.0639
37365W        W46165  13.083   3.384  24.333  0.1637 -0.1088 -0.3009
37366W        W46166   9.233   0.749   7.974 -0.2817  0.0483 -0.0742
37367W        W46167  12.045   0.528  22.591  0.2234 -0.0524  0.0082
37368W        W46168  24.340   0.860  23.146  0.0189 -0.2103 -0.1885
37369W        W46169  21.766   0.222   0.225  0.1602  0.3924  0.0399
37370W        W46170  26.230   2.387   2.458  0.0519  0.1294  0.1744
37371W        W46171  21.280   1.693  21.429 -0.1101  0.1581 -0.0856
37372W        W46172  17.562   4.731  26.371  0.0994 -0.0448  0.2839
37373W        W46173  18.126   5.573   1.270 -0.1654 -0.5590 -0.1958
37374W        W46174  22.048   1.630  10.300  0.3795  0.2617 -0.1662
37375W        W46175  18.771   2.883   9.985 -0.1934  0.2806  0.0949
37376W        W46176   1.981   1.381  13.954  0.2061 -0.4068  0.0249
37377W        W46177  11.028   5.443  29.615  0.1211  0.1440  0.1582
37378W        W46178  12.550   5.710  25.699 -0.0986 -0.0555  0.0118
37379W        W46179  19.452   3.851  29.462  0.0859  0.0083  0.0303
37380W        W46180   0.408   4.319  11.333 -0.0717 -0.3328 -0.1924
37381W        W46181  24.304   3.677  26.152  0.0256  0.3097 -0.0800
37382W        W46182  24.566   5.407   0.752  0.0965 -0.0013  0.0025
37383W        W46183  18.201   0.912  28.010  0.0386  0.3863 -0.0808
37384W        W46184   7.845   4.649   4.500  0.0510  0.2946 -0.3947
37385W        W46185  20.206   1.173  12.902 -0.3266 -0.0905 -0.0160
37386W        W46186  10.112   2.033   8.429 -0.0807  0.0370  0.3431
37387W        W46187  17.732   5.730  26.111 -0.2618  0.3351 -0.3207
37388W        W46188  12.897   2.025  23.523  0.2820 -0.0197  0.0036
37389W        W46189  16.909   4.312   2.927 -0.2071 -0.3449  0.0809
37390W        W46190   4.735   1.677   6.259 -0.2745 -0.1944  0.2232
37391W        W46191   5.456   4.302  35.786  0.0868  0.0897  0.2059
37392W        W46192   4.888   0.692  34.694 -0.0299 -0.0658 -0.0865
37393W        W46193  23.372   0.870  31.357  0.0134 -0.1334  0.2412
37394W        W46194   4.890   6.105   7.878 -0.0225  0.0787  0.0855
37395W        W46195   5.895   1.133  21.542  0.2030  0.0879 -0.1648
37396W        W46196  11.242   1.935   6.714 -0.1489  0.0263  0.2574
37397W        W46197   2.099   1.831   2.910  0.1639  0.1163  0.1172
37398W        W46198   1.333   4.707  27.530  0.0131  0.0300  0.0006
37399W        W46199  15.137   3.093  11.542 -0.2429  0.1655 -0.0525
37400W        W46200  22.839   2.979  30.237 -0.1727  0.1213  0.1531
37401W        W46201   3.115   0.336  27.817 -0.0342 -0.2280  0.1814
37402W        W46202   2.614   1.055  26.625 -0.2464  0.2758  0.1555
37403W        W46203  21.366   4.051  34.748  0.0424 -0.0572  0.2375
37404W        W46204  16.411   2.693   5.915 -0.1826  0.1168 -0.1695
37405W        W46205  19.886   0.904   1.306  0.1002 -0.0193 -0.0345
37406W        W46206  10.627   6.532   8.897  0.0384  0.1204 -0.4762
37407W        W46207   4.278   2.079   4.820  0.1481  0.0166  0.2637
37408W        W46208  14.656   5.878  30.791 -0.2693  0.0121  0.4701
37409W        W46209  11.377   5.790   1.000  0.3577 -0.2122 -0.0779
37410W        W46210  23.769   0.104  24.340 -0.0896 -0.0521  0.1504
37411W        W46211  19.566   3.127   1.928  0.0587 -0.2283 -0.1082
37412W        W46212  25.561   0.894   6.785 -0.1473  0.0529 -0.3565
37413W        W46213   1.809   3.346   0.685 -0.5068  0.1463 -0.2360
37414W        W46214  23.244   1.966  26.828 -0.0811 -0.2404 -0.1003
37415W        W46215   4.947   0.758   5.919  0.0861  0.1527 -0.0198
37416W        W46216   9.521   5.585   3.399  0.0614 -0.1215 -0.1414
37417W        W46217  19.412   4.304  36.050 -0.3332 -0.2120 -0.0305
37418W        W46218  11.317   1.674   1.498 -0.0731  0.0441  0.0616
37419W        W46219   9.530   5.501  23.674 -0.0934 -0.3347 -0.3280
37420W        W46220  22.630   0.489   0.690  0.1143  0.0626  0.1176
37421W        W46221  19.895   2.499  31.998  0.0800  0.1874  0.2211
37422W        W46222   6.683   5.022  35.406  0.0900 -0.1054  0.0858
37423W        W46223  14.103   6.373   0.121  0.3633  0.0922 -0.5083
37424W        W46224  25.993   5.858  10.494  0.0187 -0.4024 -0.1401
37425W        W46225  19.531   6.325   6.342 -0.3416 -0.0468  0.0303
37426W        W46226  14.910   0.073   0.440  0.2216  0.1776  0.2998
37427W        W46227  13.037   1.371  12.202 -0.0831 -0.0733  0.1507
37428W        W46228  15.950   3.474   6.678  0.0705 -0.0672  0.0584
37429W        W46229   5.541   3.511   9.678  0.2263 -0.0405  0.0843
37430W        W46230   0.724   2.626  25.703  0.5781 -0.1856 -0.0747
37431W        W46231  18.304   6.390   2.874  0.2895  0.1396  0.2412
37432W        W46232  10.388   3.174  22.524  0.1205 -0.0101 -0.1334
37433W        W46233   2.617   5.893  33.192  0.0186  0.2393 -0.0878
37434W        W46234   8.246   3.475  27.305  0.2440 -0.0636  0.1922
37435W        W46235   2.101   0.041   2.019  0.1805  0.0935 -0.1092
37436W        W46236   7.808   1.002   5.059  0.2674 -0.1929  0.1898
37437W        W46237   3.051   2.617  31.324  0.0491 -0.2896 -0.0396
37438W        W46238  12.960   2.102   3.397 -0.1910 -0.1648  0.0621
37439W        W46239  12.733   5.481   7.129 -0.2020 -0.0407 -0.1270
37440W        W46240  23.835   4.995  32.297 -0.1038 -0.0610 -0.0883
37441W        W46241  17.755   3.738   8.650 -0.0491 -0.1300 -0.1255
37442W        W46242   0.304   4.575  34.080 -0.0917 -0.2785  0.2273
37443W        W46243  17.199   2.313  30.015  0.0074 -0.0051  0.0806
37444W        W46244   9.996   0.747  31.068 -0.0301  0.2063  0.0018
37445W        W46245   8.944   4.139  15.754 -0.0086  0.0761  0.0088
37446W        W46246  21.888   1.798  12.719  0.3413  0.0280  0.0989
37447W        W46247  19.048   3.036   4.584 -0.3751 -0.2192  0.5251
37448W        W46248  12.464   6.300  22.638 -0.2422  0.1585 -0.1575
37449W        W46249  24.894   1.999  35.762 -0.0391 -0.2237 -0.0154
37450W        W46250  11.247   1.685  31.075 -0.0201 -0.0665  0.0742
37451W        W46251   8.402   3.685  33.856 -0.3327  0.0425  0.3668
37452W        W46252  21.003   5.488   8.853 -0.0346  0.0625 -0.0719
37453W        W46253  20.213   0.445  13.796 -0.0526  0.1536 -0.2820
37454W        W46254   7.420   2.725  22.019 -0.1458  0.1327  0.1850
37455W        W46255   2.017   0.515  20.932 -0.1717  0.1127 -0.2627
37456W        W46256   1.561   1.274  29.248 -0.2518  0.0566 -0.2843
37457W        W46257  10.096   0.913   6.560 -0.0868  0.1014  0.0834
37458W        W46258   7.054   1.433   9.348 -0.0874 -0.2101 -0.2152
37459W        W46259  11.616   6.319   9.571  0.1605  0.0249  0.0848
37460W        W46260  26.218   6.465   5.140 -0.1472 -0.1292 -0.0087
37461W        W46261  11.797   2.423  14.366 -0.0027 -0.1624  0.0238
37462W        W46262  24.862   3.966   3.260  0.0282 -0.2849 -0.1265
37463W        W46263  20.980   2.408  26.331  0.2603 -0.1585  0.1641
37464W        W46264  23.250   2.962  11.091 -0.0770 -0.2435 -0.2491
37465W        W46265   8.827   1.704  11.573  0.1398 -0.2163  0.0121
37466W        W46266  24.093   3.047   1.793  0.0442 -0.0156  0.2153
37467W        W46267  10.998   5.628  31.172  0.1097  0.0292  0.2729
37468W        W46268   0.329   3.154  12.346 -0.1195  0.1315 -0.1701
37469W        W46269  13.870   2.461  25.720 -0.2159  0.0594  0.0528
37470W        W46270  17.073   5.109  12.762  0.1980 -0.4354 -0.3223
37471W        W46271   0.602   2.095  28.507  0.0414 -0.0871  0.0293
37472W        W46272  22.108   3.405  24.583 -0.1080  0.2705  0.2209
37473W        W46273  16.966   3.053  13.955 -0.1451  0.1641 -0.1174
37474W        W46274   2.888   2.473  32.276 -0.0147 -0.2385 -0.3831
37475W        W46275  25.326   2.925  28.431 -0.0606 -0.1735  0.0714
37476W        W46276  11.514   5.386   5.600 -0.1606 -0.2357  0.2148
37477W        W46277   0.927   0.832  22.705  0.0189  0.2118 -0.0870
37478W        W46278  19.712   1.277  24.618  0.0993  0.1791 -0.1996
37479W        W46279  16.077   0.023  11.799  0.0563  0.1033 -0.0327
37480W        W46280  11.692   5.470  24.019  0.1624 -0.3157 -0.0602
37481W        W46281  20.611   4.870   0.998  0.4455 -0.2320 -0.1537
37482W        W46282   4.212   1.310  15.230 -0.1527 -0.3855 -0.1955
37483W        W46283   0.941   0.597  30.781  0.2499 -0.1974 -0.1992
37484W        W46284  22.187   4.416  12.687  0.1167 -0.2958 -0.0132
37485W        W46285  23.151   2.213  12.334 -0.0473 -0.0287  0.1198
37486W        W46286  16.899   1.515  29.550 -0.1496 -0.2924  0.2559
37487W        W46287   3.918   3.419   9.933 -0.0968  0.1154 -0.2922
37488W        W46288   7.844   3.638  11.276 -0.1302  0.1828 -0.1696
37489W        W46289  18.591   3.494   1.498 -0.0134  0.0856  0.0426
37490W        W46290  12.692   1.650   7.188 -0.1330 -0.0793  0.0206
37491W        W46291   5.907   6.426  10.895 -0.1971 -0.3655  0.0176
37492W        W46292  25.298   4.634  29.271  0.0310 -0.2633 -0.1837
37493W        W46293  12.561   2.430   3.409 -0.1139  0.2185  0.1922
37494W        W46294  20.868   6.495  15.226 -0.1036  0.1113  0.1053
37495W        W46295   5.687   3.711  13.896 -0.0502 -0.2755 -0.0307
37496W        W46296  11.071   4.797  14.805 -0.2963  0.0419 -0.0756
37497W        W46297  23.560   1.780  15.876 -0.3098 -0.1192 -0.0300
37498W        W46298   3.172   1.692  33.324 -0.0651  0.1877 -0.1753
37499W        W46299  16.149   0.861  11.454 -0.1211 -0.1083  0.2825
37500W        W46300   4.090   6.443  13.055 -0.0396  0.1894 -0.1830
37501W        W46301  12.613   3.797  26.516  0.0396  0.1519 -0.0318
37502W        W46302  18.549   0.959  25.934 -0.0945 -0.2032 -0.3713
37503W        W46303   1.585   2.666  10.020  0.0684 -0.1047  0.0150
37504W        W46304  18.864   3.423  33.721 -0.3055 -0.0610  0.2139
37505W        W46305  20.386   2.106   0.567  0.0984 -0.2608  0.0066
37506W        W46306   7.997   3.136  23.183  0.0060 -0.2355  0.0745
37507W        W46307   0.672   1.895  14.077  0.2137 -0.1025  0.2440
37508W        W46308   5.007   0.841   4.340  0.1154  0.2341 -0.2476
37509W        W46309   7.846   0.555   6.940  0.0564 -0.0817 -0.2078
37510W        W46310  10.263   2.054  31.774 -0.0243 -0.4280 -0.0238
37511W        W46311   0.406   0.538   8.276  0.1263  0.1226 -0.2370
37512W        W46312   2.222   3.956  23.141 -0.0476  0.1015  0.0233
37513W        W46313   3.359   4.883  31.619 -0.1909  0.1687  0.1316
37514W        W46314   4.752   2.468   5.601  0.1150  0.1626 -0.2898
37515W        W46315   2.355   0.927  11.345  0.3016 -0.0501 -0.3231
37516W        W46316   0.502   5.038  35.652 -0.0111  0.0752  0.4165
37517W        W46317   5.332   2.895   8.583  0.0890  0.0574  0.0869
37518W        W46318   3.522   1.889   3.576  0.0830 -0.2490 -0.0927
37519W        W46319   4.839   0.701  31.313  0.2701  0.1790 -0.0981
37520W        W46320   8.626   6.189  12.940  0.0593  0.2255 -0.1026
37521W        W46321  25.727   1.250  23.791  0.0547  0.2084 -0.0943
37522W        W46322   7.935   0.964   0.885 -0.2695  0.0937 -0.1329
37523W        W46323  11.339   5.404   2.814  0.0158 -0.0751 -0.0414
37524W        W46324  12.463   6.424  34.998  0.1010 -0.0596 -0.4346
37525W        W46325   2.427   1.391  14.430 -0.2463 -0.2564  0.0346
37526W        W46326  12.673   3.915  26.051  0.0222 -0.0657 -0.0259
37527W        W46327  13.580   3.818  12.365 -0.1218 -0.0597 -0.0263
37528W        W46328  16.183   4.514   5.311 -0.2967  0.2218  0.4072
37529W        W46329  11.067   0.024  12.387 -0.5070 -0.0227 -0.0424
37530W        W46330   4.174   3.356   4.049  0.1474 -0.0320  0.3798
37531W        W46331  15.896   0.173  25.754 -0.0218 -0.0205 -0.0322
37532W        W46332  22.685   0.816  32.815  0.1405 -0.0346  0.1856
37533W        W46333   2.221   1.586   0.964  0.4123  0.1211 -0.0592
37534W        W46334  15.628   2.606  34.065 -0.3737  0.2355  0.0230
37535W        W46335  12.093   5.461   6.658 -0.0811 -0.1312  0.4118
37536W        W46336  26.316   5.111   5.183 -0.0313  0.2532 -0.4485
37537W        W46337   3.889   6.344   4.902 -0.0864  0.3296  0.0817
37538W        W46338   1.807   6.054  27.309  0.0162 -0.1375 -0.1656
37539W        W46339   2.645   1.575   5.075 -0.0630 -0.0936  0.1153
37540W        W46340  17.189   6.167   8.942  0.1064  0.1148 -0.0189
37541W        W46341  25.134   5.491  34.827 -0.0991 -0.0220  0.3140
37542W        W46342  19.057   4.805   7.894 -0.0507 -0.0069 -0.1793
37543W        W46343   4.857   2.230   6.416 -0.0064  0.0805 -0.0265
37544W        W46344   1.726   5.013  24.008  0.0639 -0.1487  0.0494
37545W        W46345   1.426   6.283  35.675 -0.1178  0.1299  0.2136
37546W        W46346  12.031   0.364  33.924 -0.0368  0.0010  0.0336
37547W        W46347  23.524   3.291  26.437  0.2528  0.1133  0.0170
37548W        W46348   4.002   3.709  35.032 -0.3668 -0.3450  0.1328
37549W        W46349  14.813   0.185   6.509 -0.0270 -0.1854 -0.0644
37550W        W46350  20.871   0.187   7.819 -0.1304  0.1274 -0.0274
37551W        W46351   7.517   6.079  24.828 -0.6826  0.1165 -0.2860
37552W        W46352  21.312   3.663  23.641  0.0560 -0.3667  0.2820
37553W        W46353  16.913   3.490  27.101 -0.2108 -0.0642  0.1767
37554W        W46354  20.927   0.403  31.649 -0.2791 -0.0635  0.1383
37555W        W46355  18.064   0.315  26.839 -0.2981 -0.1285  0.2106
37556W        W46356  12.660   6.548   3.148  0.0554 -0.0666 -0.0564
37557W        W46357  17.053   3.843  21.906 -0.2396  0.0353 -0.3129
37558W        W46358   6.819   3.891  24.686  0.0923  0.0627 -0.1163
37559W        W46359  22.539   3.608  32.945  0.0121  0.0487  0.2974
37560W        W46360   0.592   5.957   9.213  0.4837  0.3551 -0.0619
37561W        W46361  10.331   3.259  24.000  0.2274  0.2978  0.0684
37562W        W46362  11.992   2.407  28.557 -0.0456 -0.0260  0.0427
37563W        W46363  13.010   4.254  34.499  0.1570  0.1279  0.1165
37564W        W46364  19.153   3.933   3.056  0.1250 -0.0458 -0.2637
37565W        W46365  20.403   2.131  31.669  0.0925 -0.2419  0.0377
37566W        W46366   5.146   6.318  20.458  0.1374  0.0450 -0.3510
37567W        W46367  11.543   6.510   1.427 -0.0192 -0.0321 -0.0299
37568W        W46368   0.877   0.639   9.882 -0.2215 -0.2105 -0.1541
37569W        W46369   3.228   1.244   7.145  0.0218  0.1523  0.0363
37570W        W46370  21.002   1.200   1.011  0.0651  0.0547  0.2209
37571W        W46371  24.763   1.260   8.013 -0.0032 -0.1493  0.1021
37572W        W46372  20.165   4.959  29.923 -0.1528  0.1489 -0.2049
37573W        W46373   3.451   1.776  24.901  0.0741 -0.2377  0.0767
37574W        W46374  16.100   3.036  25.885 -0.2236  0.0527  0.2514
37575W        W46375   0.985   5.731  21.722 -0.1920  0.0687 -0.2060
37576W        W46376  18.719   0.257  27.116  0.1312 -0.2416  0.1833
37577W        W46377  17.678   6.389  11.346 -0.0807 -0.2299 -0.1491
37578W        W46378   3.173   3.481   2.108  0.1396  0.0547  0.0300
37579W        W46379   4.081   0.113  28.131  0.0082 -0.0568 -0.0112
37580W        W46380  18.061   1.151  26.946  0.0779 -0.1756 -0.0959
37581W        W46381   5.202   0.056  21.893 -0.0410  0.1279  0.2655
37582W        W46382  12.039   0.753   0.151 -0.0955  0.2568 -0.0872
37583W        W46383  18.441   1.057   4.091 -0.1063 -0.0177  0.0614
37584W        W46384  17.970   4.345   2.836 -0.0107  0.1096 -0.0569
37585W        W46385  24.059   0.682  12.180 -0.1792  0.2035  0.1303
37586W        W46386  26.024   1.067  22.009 -0.0818 -0.0542  0.1990
37587W        W46387  21.234   1.061   0.549 -0.1186 -0.0139 -0.1421
37588W        W46388  18.151   3.058  21.892  0.1038 -0.0402  0.1453
37589W        W46389  12.756   1.222   1.047 -0.1702 -0.0093  0.0586
37590W        W46390  24.258   6.316  14.647 -0.1201  0.0175 -0.0734
37591W        W46391  21.265   1.824  29.057  0.0930  0.1063 -0.3022
37592W        W46392  11.521   3.145   2.208  0.1097  0.1385  0.1860
37593W        W46393   0.648   1.718   3.411  0.0992  0.2161 -0.3631
37594W        W46394  15.588   0.747  12.726 -0.4570 -0.0366  0.0567
37595W        W46395  19.573   3.297   8.222 -0.0988  0.1909 -0.1445
37596W        W46396   9.757   5.898  24.959  0.1360  0.0191 -0.1634
37597W        W46397   2.336   0.898  33.949  0.0017  0.2330 -0.0351
37598W        W46398  14.414   5.361   4.548 -0.0136  0.0083 -0.1539
37599W        W46399  10.705   5.826  30.760 -0.1895  0.0046 -0.1466
37600W        W46400  10.791   2.625  15.472 -0.2085  0.1754  0.2641
37601W        W46401   7.041   0.487   6.791 -0.1559  0.2573 -0.0574
37602W        W46402   1.708   5.962   6.375 -0.0878 -0.0913  0.0588
37603W        W46403  16.348   1.380  22.622 -0.1454  0.1167 -0.0134
37604W        W46404   0.610   3.322  26.341 -0.2384  0.1654  0.3223
37605W        W46405   8.581   2.804  31.354  0.0979 -0.0312 -0.1315
37606W        W46406   7.316   3.494  30.057 -0.4476 -0.1950  0.2293
37607W        W46407  18.739   2.707  25.427 -0.0289 -0.0142  0.2358
37608W        W46408  11.856   3.427  28.426  0.0811 -0.1643 -0.1065
37609W        W46409   8.488   0.208  30.339 -0.0561  0.2072 -0.1669
37610W        W46410  20.064   0.405  34.839 -0.2513  0.1416  0.0763
37611W        W46411  26.332   5.387  34.519 -0.0708  0.2746  0.0681
37612W        W46412  23.853   2.252  35.086  0.3639  0.0472  0.0359
37613W        W46413  17.110   4.182  31.926  0.0895 -0.0301  0.0580
37614W        W46414  10.415   4.742   7.663 -0.0682 -0.0073  0.2620
37615W        W46415   1.675   5.358  30.539 -0.4328 -0.1489 -0.0473
37616W        W46416   8.870   5.176  22.282  0.1575 -0.1408 -0.0650
37617W        W46417   2.722   2.931  13.602  0.0386 -0.2446  0.3983
37618W        W46418   6.802   0.887  22.517  0.1754 -0.1300  0.0514
37619W        W46419   8.836   5.692  11.402 -0.0289  0.0540  0.0736
37620W        W46420  22.219   1.737  23.163  0.6182  0.1388  0.1634
37621W        W46421  10.012   3.274   9.629 -0.2719 -0.1121 -0.0062
37622W        W46422  20.736   4.725   0.507 -0.2097 -0.1396 -0.0508
37623W        W46423  10.196   5.624  24.879  0.0427  0.0165 -0.1727
37624W        W46424   3.470   4.572  11.559 -0.0452 -0.0621  0.2404
37625W        W46425  21.096   2.928   0.864  0.2393 -0.0631  0.3533
37626W        W46426  19.173   4.656  27.645 -0.2474 -0.2212 -0.1334
37627W        W46427  12.286   4.042  23.632  0.2038  0.0153  0.2934
37628W        W46428   3.484   2.622   4.033 -0.2632 -0.0995 -0.1791
37629W        W46429  18.357   1.414   2.259 -0.1049 -0.0080 -0.0953
37630W        W46430   8.185   0.947   3.215  0.3172  0.1714 -0.0363
37631W        W46431  22.365   0.307  14.000  0.2261 -0.2414 -0.0632
37632W        W46432   5.083   1.770  25.335  0.0140 -0.0371 -0.0553
37633W        W46433  18.365   1.421   5.294  0.1738 -0.0641  0.3229
37634W        W46434  21.983   4.176  26.400 -0.0030  0.2830 -0.1957
37635W        W46435   2.059   3.156  23.718 -0.1421 -0.0834  0.1999
37636W        W46436   1.537   5.702  27.054  0.1390  0.2449  0.1914
37637W        W46437  12.749   4.832  30.658  0.0639  0.2668 -0.1652
37638W        W46438   3.763   1.853  14.843  0.0743 -0.0405 -0.0289
37639W        W46439  21.033   1.434   7.112  0.2924 -0.4142 -0.3351
37640W        W46440   4.928   5.061  23.283  0.1918  0.1566  0.1458
37641W        W46441   7.784   0.690   9.251  0.0815  0.0933 -0.0808
37642W        W46442  25.970   0.760  30.692 -0.0499  0.0584  0.1434
37643W        W46443  24.695   1.709   7.060 -0.0523 -0.1392 -0.1271
37644W        W46444  11.833   6.582   9.112 -0.0650 -0.0532  0.3553
37645W        W46445  10.654   2.267   4.046 -0.0659  0.0766  0.0337
37646W        W46446   9.576   2.091  29.508 -0.0620 -0.0724  0.2938
37647W        W46447   7.693   0.533  25.996 -0.1107 -0.1448 -0.0182
37648W        W46448   2.030   1.353  29.648  0.0592  0.0064  0.1471
37649W        W46449  25.140   3.793  14.723 -0.0175  0.2016  0.0287
37650W        W46450   7.463   0.405   0.412 -0.1888  0.1704  0.0322
37651W        W46451  11.615   6.558  35.804 -0.1698 -0.2444 -0.1684
37652W        W46452   0.029   5.427  30.592 -0.0780  0.4079  0.0034
37653W        W46453  23.193   6.571  22.134  0.0892 -0.2105 -0.1355
37654W        W46454   7.155   1.547   6.328  0.4529 -0.4232 -0.2451
37655W        W46455   2.291   1.197   6.290  0.0524 -0.1014  0.0305
37656W        W46456  18.296   5.140  13.362  0.1593  0.1368  0.2107
37657W        W46457  18.584   0.670  15.128 -0.2448 -0.3223  0.0172
37658W        W46458  26.313   3.064  34.115  0.1286 -0.3145  0.1191
37659W        W46459  12.931   5.795  25.966 -0.1234  0.0290 -0.1467
37660W        W46460  17.176   1.956  23.876  0.0881  0.0946  0.3323
37661W        W46461  11.160   3.039  31.834 -0.0045  0.5130 -0.3456
37662W        W46462  13.932   5.369  26.098 -0.0978  0.1013 -0.3624
37663W        W46463   4.540   0.042  23.368  0.0504  0.1101 -0.0365
37664W        W46464   0.713   0.138   7.436  0.3238  0.1119 -0.0814
37665W        W46465   6.457   4.237  10.551  0.2068  0.1411  0.0178
37666W        W46466  23.248   2.930   3.572  0.1912  0.0362  0.1042
37667W        W46467   9.069   2.036  29.596  0.1851 -0.0839 -0.1660
37668W        W46468  17.440   4.498  14.820  0.3592  0.2633  0.0360
37669W        W46469   6.590   3.451  21.566  0.0141 -0.0793  0.2342
37670W        W46470  15.467   0.577  10.463  0.0079  0.2280 -0.0954
37671W        W46471   4.352   1.415  21.666 -0.1352 -0.1427 -0.0236
37672W        W46472  12.434   3.168  11.142  0.2058 -0.0576 -0.3312
37673W        W46473  13.671   2.405  28.234 -0.0213  0.1506 -0.2702
37674W        W46474  24.548   0.604  14.238 -0.1129  0.2779 -0.1103
37675W        W46475  10.795   2.905  29.810  0.0274 -0.3260  0.4068
37676W        W46476   4.415   4.076  16.214  0.2010  0.0982 -0.2047
37677W        W46477   2.391   5.427  23.682 -0.1593 -0.1212 -0.0777
37678W        W46478  12.935   3.903  22.175 -0.1536  0.0100 -0.0114
37679W        W46479  11.781   0.508  31.446 -0.2581  0.0273 -0.0672
37680W        W46480   2.643   1.292  25.784  0.1128 -0.0355  0.3526
37681W        W46481  25.433   2.217  29.271  0.0164 -0.0695  0.4130
37682W        W46482  17.222   5.901  12.038  0.0640 -0.0442  0.1673
37683W        W46483  11.661   1.341   1.317  0.1308 -0.1513 -0.0632
37684W        W46484  16.991   1.010  22.283  0.1583  0.1679 -0.3233
37685W        W46485   0.298   4.502   8.325  0.1892 -0.0883  0.0754
37686W        W46486   6.770   2.459   6.249  0.0999 -0.1232  0.0610
37687W        W46487   3.607   0.662  31.435  0.0268  0.1463  0.2322
37688W        W46488  21.748   3.958  31.297  0.1293 -0.0701 -0.0833
37689W        W46489  23.106   0.577  32.679 -0.2325  0.0276  0.1054
37690W        W46490   5.807   6.405  14.265 -0.1066  0.1630 -0.0482
37691W        W46491  17.699   3.015  24.828 -0.0593  0.0708  0.3977
37692W        W46492  14.599   1.698  32.553 -0.2960  0.0886  0.1570
37693W        W46493   1.729   6.321   4.793  0.0755 -0.1619 -0.2190
37694W        W46494   7.837   0.250  24.998 -0.4028  0.2559  0.2020
37695W        W46495   8.705   4.170  21.499 -0.0034  0.1485 -0.0291
37696W        W46496  26.124   3.081   2.785  0.1688  0.2467 -0.1655
37697W        W46497  23.403   6.401  11.164 -0.1454  0.2219 -0.3688
37698W        W46498  11.523   4.979  25.532 -0.0013  0.0874 -0.0768
37699W        W46499  10.986   4.639  30.046  0.1586  0.1102  0.0502
37700W        W46500  15.853   5.265  27.273 -0.1125  0.1583 -0.0004
37701W        W46501  11.827   1.523  12.248 -0.1058 -0.0595 -0.0183
37702W        W46502   6.940   3.617  32.807 -0.1368 -0.0450  0.1793
37703W        W46503   7.712   1.149   7.759  0.1237 -0.1124  0.0813
37704W        W46504   2.890   3.009  28.527 -0.3483 -0.1591 -0.1890
37705W        W46505  19.937   0.528   3.298  0.1304  0.0358 -0.1663
37706W        W46506   3.051   0.153   8.735  0.0186 -0.0480  0.1664
37707W        W46507  21.574   2.543  34.616 -0.2461 -0.3217  0.1434
37708W        W46508   8.076   2.035  22.337 -0.1588  0.1264  0.2525
37709W        W46509  13.553   6.408  24.933  0.0002 -0.0222 -0.0338
37710W        W46510   6.876   0.612  15.962  0.1956  0.2447 -0.0544
37711W        W46511   8.981   1.503  32.730  0.0604  0.0282 -0.4270
37712W        W46512   2.991   6.041   1.370  0.1870  0.0308 -0.1140
37713W        W46513  15.282   5.937   7.393 -0.0555 -0.0494  0.3018
37714W        W46514  21.146   6.249  11.372 -0.3850  0.0424 -0.2765
37715W        W46515  18.175   5.859  26.035 -0.2871  0.0026 -0.2283
37716W        W46516   5.909   3.954   6.736 -0.1659 -0.2948  0.2603
37717W        W46517  23.670   6.586  33.639 -0.0601  0.1190 -0.0492
37718W        W46518   2.284   1.125   0.745 -0.3932 -0.1994 -0.1026
37719W        W46519   3.069   3.427  20.417  0.0784  0.1445 -0.0755
37720W        W46520  24.990   4.825  27.446 -0.0889  0.3281 -0.1143
37721W        W46521  19.433   1.808  31.487  0.0037 -0.1641 -0.2429
37722W        W46522  15.200   2.380   9.161 -0.1327  0.0787 -0.1056
37723W        W46523  12.800   0.112  24.559  0.1431  0.1036  0.1120
37724W        W46524  20.075   3.233   9.100  0.0488  0.2316  0.0045
37725W        W46525   3.715   4.091  34.826  0.0477  0.1402 -0.0506
37726W        W46526  24.666   0.764  27.238  0.0538 -0.1575 -0.1855
37727W        W46527  21.418   0.987  13.316 -0.1020 -0.0287 -0.1122
37728W        W46528   4.255   4.541   5.214  0.0455 -0.1522 -0.1541
37729W        W46529   3.591   5.179  24.409  0.0871  0.0819 -0.0624
37730W        W46530  16.506   6.104  14.076 -0.2610  0.3048  0.0099
37731W        W46531   3.342   1.411  27.172 -0.2742  0.0207 -0.1241
37732W        W46532  20.206   0.212  32.262  0.0274 -0.1443 -0.0179
37733W        W46533   8.193   0.244  35.261  0.0991  0.1018 -0.1745
37734W        W46534  25.467   2.873  31.828 -0.0503 -0.1102  0.1484
37735W        W46535   6.973   4.654  10.593  0.1539  0.0269 -0.2965
37736W        W46536  15.201   6.194  35.823  0.2454  0.1467 -0.4156
37737W        W46537  21.350   3.399   5.925 -0.2945  0.1086  0.1643
37738W        W46538   4.890   0.156  22.553 -0.1861 -0.0292  0.2047
37739W        W46539  23.341   1.566  23.734  0.0363 -0.0535 -0.1867
37740W        W46540   7.040   5.759  31.918  0.1039 -0.1925  0.1242
37741W        W46541  19.628   2.613  15.249  0.0946  0.2058  0.4487
37742W        W46542  23.748   0.917  23.104  0.1142 -0.2084 -0.1806
37743W        W46543   3.030   1.479  27.858 -0.0919  0.2357  0.1379
37744W        W46544   9.206   0.189   4.702 -0.0696 -0.1740 -0.1696
37745W        W46545   4.065   2.805   0.898  0.0490 -0.0725  0.4234
37746W        W46546  13.520   0.428   4.657  0.0931 -0.3917  0.1856
37747W        W46547   7.211   3.703  24.898  0.2535 -0.1880 -0.2581
37748W        W46548   5.146   4.727   9.020 -0.0680  0.2353 -0.3000
37749W        W46549  16.073   2.497  35.735  0.3105 -0.1477  0.0700
37750W        W46550  13.186   3.167  32.786  0.1271 -0.0193  0.0393
37751W        W46551  10.545   3.690  21.783 -0.0793 -0.1076  0.1497
37752W        W46552  17.749   5.673  32.265  0.1743 -0.0515 -0.2124
37753W        W46553   9.457   2.930   8.276 -0.2487 -0.0627  0.1881
37754W        W46554   6.522   1.426  27.101 -0.0605  0.0866 -0.2223
37755W        W46555  17.345   4.643  27.170  0.0116 -0.0580  0.1930
37756W        W46556   6.593   1.969   6.083 -0.1625 -0.0807  0.2069
37757W        W46557   9.974   1.022   2.805  0.0147 -0.1068 -0.2360
37758W        W46558  10.325   2.554   1.266 -0.3140 -0.1141  0.1464
37759W        W46559   0.489   0.195  26.149  0.0068  0.2292  0.1007
37760W        W46560   6.877   1.726  35.592 -0.0052 -0.1668 -0.0281
37761W        W46561  23.061   2.639  35.836 -0.0559 -0.1079  0.2333
37762W        W46562   2.159   1.445   3.884  0.1193  0.1933 -0.0749
37763W        W46563  22.466   5.366  12.353  0.2132 -0.0817  0.0160
37764W        W46564   2.264   5.352  28.580 -0.0273  0.1135  0.4280
37765W        W46565   3.348   1.207  29.185  0.1498 -0.0584  0.2183
37766W        W46566  20.452   1.781  24.674  0.0050 -0.1683 -0.1761
37767W        W46567  25.508   3.763   1.469  0.1476 -0.0767 -0.0477
37768W        W46568   3.393   1.252  21.272  0.1490  0.1132  0.0885
37769W        W46569   0.364   1.063  21.235 -0.0331 -0.1361 -0.0078
37770W        W46570  12.931   1.366  13.222  0.1905 -0.0307  0.0206
37771W        W46571  23.869   1.853   4.703  0.0401 -0.1366  0.0806
37772W        W46572   0.098   4.828  29.273  0.1808 -0.2181 -0.0457
37773W        W46573  13.701   2.221  24.657  0.3744  0.3869  0.0533
37774W        W46574  21.056   2.444  11.077  0.2530  0.1058  0.1546
37775W        W46575  17.238   4.487   7.841  0.1048  0.0579  0.2823
37776W        W46576  12.584   4.887  34.230 -0.0129  0.0235 -0.2463
37777W        W46577   3.984   4.589   9.850  0.2361  0.0404 -0.1953
37778W        W46578  21.344   3.570  24.335  0.0352  0.1613 -0.2629
37779W        W46579   3.747   5.654  27.237  0.2265  0.3472  0.3064
37780W        W46580  20.936   4.190   1.554  0.2000 -0.2057  0.0440
37781W        W46581  17.670   3.582   5.051  0.1289 -0.0752  0.2345
37782W        W46582  24.419   1.931  32.024 -0.0618  0.1051  0.2316
37783W        W46583  18.339   3.308   9.347  0.1294  0.1477  0.2706
37784W        W46584  10.020   0.681  34.598 -0.0769  0.1133 -0.0079
37785W        W46585  18.160   2.476   5.566 -0.0409 -0.2694  0.1100
37786W        W46586   8.005   0.369  21.305  0.1352 -0.0568  0.1771
37787W        W46587  23.241   1.466  14.036  0.2684 -0.1004 -0.3199
37788W        W46588  14.391   0.033  28.994 -0.1631  0.0983  0.2151
37789W        W46589  13.767   1.942  12.708 -0.1566 -0.1386 -0.0779
37790W        W46590  20.718   1.015   1.391 -0.4409 -0.1624  0.0509
37791W        W46591   3.941   2.254  30.066  0.0392 -0.0446 -0.0368
37792W        W46592  12.312   0.988  11.618 -0.1486  0.0349  0.0024
37793W        W46593  15.291   1.960  31.588  0.0330 -0.1514 -0.2008
37794W        W46594  17.926   6.395  29.577 -0.0826  0.0965  0.0641
37795W        W46595  19.854   0.035  11.425 -0.2235  0.2594 -0.1017
37796W        W46596   8.599   1.672  21.359 -0.1206 -0.1009  0.0407
37797W        W46597   8.802   3.276  21.548  0.0547  0.0589 -0.0825
37798W        W46598   1.376   1.562   4.289  0.0270  0.3138 -0.1942
37799W        W46599  16.958   5.252   3.065 -0.0396  0.1750  0.0131
37800W        W46600  10.212   4.951   4.847  0.0139  0.0582  0.0851
37801W        W46601  22.866   1.109  15.247 -0.3715  0.1895 -0.1580
37802W        W46602  14.172   4.134  15.155 -0.0870 -0.0245 -0.0413
37803W        W46603  16.152   1.088  26.574  0.1739 -0.0359  0.0660
37804W        W46604  16.371   6.593   3.861 -0.2253 -0.1032 -0.3255
37805W        W46605  10.036   0.031  24.072  0.1068 -0.0046 -0.0039
37806W        W46606  26.393   3.756  15.222 -0.1447  0.1941  0.1662
37807W        W46607   7.842   6.247   4.405 -0.0490 -0.0732 -0.1024
37808W        W46608  11.893   6.351  23.586  0.2948 -0.1135 -0.0038
37809W        W46609  26.400   1.338  22.731 -0.5579 -0.0492 -0.2809
37810W        W46610  14.803   6.083  29.726  0.3782  0.0508 -0.0637
37811W        W46611  23.337   1.763   0.581  0.0217  0.0719  0.0296
37812W        W46612   1.634   0.706  36.062  0.0402 -0.1063 -0.2722
37813W        W46613   0.910   2.373  27.444  0.3619  0.2707 -0.3522
37814W        W46614   3.082   0.078  31.684  0.0685 -0.0511  0.2506
37815W        W46615   0.713   0.539  32.927  0.2235 -0.3528 -0.0820
37816W        W46616  19.707   0.461  21.496 -0.3116  0.1452 -0.1568
37817W        W46617  26.286   6.371  35.188 -0.0263 -0.1411  0.1453
37818W        W46618  12.760   1.649   4.927 -0.0382 -0.3973 -0.0020
37819W        W46619  16.740   0.778   2.282  0.1195  0.2222 -0.0218
37820W        W46620   8.152   2.509  32.916  0.1016  0.0386 -0.2694
37821W        W46621  23.900   5.360  11.278 -0.1387  0.2149  0.0913
37822W        W46622  23.639   6.068  12.890  0.1104 -0.0683 -0.1190
37823W        W46623   8.694   4.551   7.000  0.0242 -0.1839  0.1694
37824W        W46624  11.953   5.200  14.706  0.1498 -0.0444 -0.0308
37825W        W46625  18.204   1.212   0.216 -0.0372 -0.0371 -0.2601
37826W        W46626   7.188   5.524  28.757  0.0812  0.0234  0.1510
37827W        W46627  10.874   0.814  35.082 -0.0729 -0.3352 -0.1037
37828W        W46628  23.205   3.133  36.028  0.2037 -0.0104 -0.1070
37829W        W46629   1.222   0.919  29.755  0.1773  0.2132  0.3401
37830W        W46630  19.341   5.342   3.395 -0.1448 -0.0549 -0.1487
37831W        W46631  18.300   5.046  11.514  0.1305  0.0427 -0.0722
37832W        W46632  25.641   1.594   3.037 -0.0289  0.2798 -0.0551
37833W        W46633   0.114   5.897   4.578 -0.0968  0.0549 -0.0431
37834W        W46634  26.405   1.842  24.244 -0.1454 -0.1033  0.0686
37835W        W46635  25.666   5.483   3.329 -0.1195 -0.1532  0.0707
37836W        W46636   0.755   4.785  15.448 -0.1309  0.0116 -0.0018
37837W        W46637   1.923   2.431   7.368 -0.2488 -0.4136  0.0074
37838W        W46638  10.070   1.084   9.480  0.2275  0.3191 -0.1268
37839W        W46639   2.447   2.115  22.530  0.0488  0.0924  0.1246
37840W        W46640  12.452   1.975   9.997  0.0045 -0.1460  0.1565
37841W        W46641   9.438   3.928  34.055  0.1414 -0.1867  0.1208
37842W        W46642   8.085   4.465  27.821 -0.0699  0.0104 -0.0063
37843W        W46643  14.258   0.136  28.157 -0.1544 -0.2255 -0.1329
37844W        W46644  12.338   3.521  30.462  0.1685  0.1875  0.1192
37845W        W46645  22.020   1.224  21.612 -0.0259 -0.1377  0.0373
37846W        W46646  22.322   5.770   2.491  0.0219 -0.0318 -0.2049
37847W        W46647   2.965   3.143  23.997 -0.1348 -0.1399  0.5890
37848W        W46648   7.638   4.049  31.546 -0.2863  0.0013 -0.3111
37849W        W46649  13.426   5.891   7.106  0.1518 -0.2675  0.3675
37850W        W46650   7.544   3.481   6.369 -0.0645 -0.5172 -0.0102
37851W        W46651  13.076   5.743   8.367 -0.1198  0.1255 -0.5707
37852W        W46652   9.662   4.702   7.840  0.3414  0.1857 -0.0545
37853W        W46653  15.725   3.974  30.741  0.0391  0.4116 -0.2784
37854W        W46654   8.979   2.046   4.356 -0.0614 -0.1453 -0.2474
37855W        W46655   5.273   4.481  24.318  0.2084  0.1914  0.1419
37856W        W46656   5.306   5.582  29.775 -0.0516 -0.1559  0.2186
37857W        W46657  10.583   5.847  11.077  0.0234 -0.1766  0.0467
37858W        W46658  18.387   1.686  23.911  0.2281 -0.1727  0.2310
37859W        W46659   3.763   0.365   0.154  0.0882  0.0419  0.1554
37860W        W46660   0.062   3.224   2.402 -0.4134 -0.0978 -0.0408
37861W        W46661  21.387   4.299   7.140 -0.0281 -0.1309 -0.1374
37862W        W46662  10.468   2.897  10.644  0.2240  0.3024  0.0627
37863W        W46663  22.061   5.752   6.530  0.0492 -0.1624  0.1336
37864W        W46664   0.856   2.329  14.298  0.1154  0.1139 -0.0150
37865W        W46665  17.414   2.571  36.039 -0.0130 -0.0248  0.1767
37866W        W46666  19.967   1.656  14.757 -0.0090 -0.0426  0.0334
37867W        W46667  17.306   4.976  14.856 -0.0861 -0.2965 -0.1466
37868W        W46668  13.665   1.749   2.371 -0.0569 -0.1249 -0.1866
37869W        W46669  24.619   3.763  25.413  0.1616 -0.0731  0.2577
37870W        W46670   0.681   6.148  10.529  0.0677  0.0410  0.1295
37871W        W46671  26.036   4.090  35.896  0.0181  0.3459 -0.1778
37872W        W46672  16.451   2.528  23.933 -0.0212 -0.2615  0.0098
37873W        W46673   0.189   1.153  13.870 -0.1566 -0.1069 -0.1002
37874W        W46674  10.291   1.730  25.403 -0.1239  0.2061 -0.0817
37875W        W46675  12.222   0.514   6.827  0.0623  0.0772 -0.1920
37876W        W46676   9.765   5.537  11.576 -0.1324 -0.0587  0.2491
37877W        W46677   0.388   3.797  25.546  0.1959 -0.0586 -0.3379
37878W        W46678  21.509   1.562   7.112 -0.1191 -0.1585 -0.0283
37879W        W46679  16.565   5.427   5.979  0.1079 -0.3118  0.3060
37880W        W46680  15.315   3.206  10.247  0.3445 -0.2573 -0.0276
37881W        W46681  26.218   2.987  25.437  0.1566  0.1316 -0.0086
37882W        W46682  12.752   1.788  28.651  0.0877  0.1417  0.1729
37883W        W46683   6.471   0.724  13.604 -0.2572  0.0646  0.0578
37884W        W46684   3.239   5.048   2.964  0.0092 -0.1375 -0.3922
37885W        W46685  26.328   1.868   5.267 -0.1747 -0.1461  0.1422
37886W        W46686  21.680   4.738  12.717 -0.1171  0.1540 -0.2409
37887W        W46687  20.082   1.436  34.418  0.1271 -0.2971  0.4558
37888W        W46688  22.002   2.859  33.817  0.0602 -0.1093  0.0887
37889W        W46689   9.721   2.729   2.547  0.0898 -0.2305 -0.1481
37890W        W46690   5.542   1.572   0.601  0.0821  0.3478 -0.2037
37891W        W46691   2.086   0.178  29.430 -0.1334  0.0800 -0.2094
37892W        W46692  12.952   3.949   7.531  0.3425  0.0302  0.1512
37893W        W46693  13.409   5.508  27.674 -0.0380  0.0868 -0.1375
37894W        W46694  19.872   1.188  27.925  0.3734 -0.1965  0.2858
37895W        W46695   2.984   4.888  36.046 -0.1820  0.2018 -0.2780
37896W        W46696  17.950   5.311  29.824 -0.1662  0.1513 -0.1114
37897W        W46697   1.536   3.254   4.160  0.0319  0.2145 -0.2161
37898W        W46698  13.519   1.457  31.276 -0.2999  0.1343  0.0131
37899W        W46699  23.921   1.601   8.304 -0.1082 -0.0029  0.1245
37900W        W46700  25.546   0.221   1.667 -0.2701  0.1459 -0.2785
37901W        W46701  22.746   5.547  25.438 -0.2725  0.0009  0.0495
37902W        W46702   2.680   2.331  14.699 -0.1933 -0.0560  0.2763
37903W        W46703  21.352   6.076  28.346 -0.1335 -0.0095 -0.1376
37904W        W46704   5.409   2.919  15.154 -0.0613 -0.0991 -0.0129
37905W        W46705  20.716   1.076  34.914 -0.1575  0.1028 -0.4007
37906W        W46706  17.049   6.528  35.874 -0.1964  0.1652 -0.1357
37907W        W46707  22.903   1.992  29.786 -0.0516 -0.1172 -0.1203
37908W        W46708   1.369   0.503  12.196  0.0576 -0.1106 -0.2467
37909W        W46709   6.015   1.689   0.495  0.2176  0.0143 -0.0458
37910W        W46710  12.977   1.940   1.554 -0.0346 -0.1533 -0.0290
37911W        W46711  18.092   4.220  35.945 -0.0184 -0.1384  0.0848
37912W        W46712  11.425   6.392   4.605 -0.1017 -0.0533 -0.2090
37913W        W46713   5.624   3.805  23.784 -0.1566  0.1153 -0.0888
37914W        W46714  10.520   4.021  27.962 -0.1290  0.0610 -0.0410
37915W        W46715  24.874   2.109  32.036  0.0411  0.1585 -0.1690
37916W        W46716  26.405   3.769  12.167 -0.3244  0.5192 -0.1588
37917W        W46717   3.695   0.635  22.839 -0.2667  0.1483  0.2742
37918W        W46718   5.691   4.308   0.703  0.2057  0.0069 -0.0262
37919W        W46719  16.750   4.930  12.421  0.0393 -0.0598  0.1934
37920W        W46720  18.285   0.936   4.901 -0.3107 -0.0321  0.1726
37921W        W46721  22.452   0.047  34.725 -0.2452 -0.1191  0.2369
37922W        W46722   4.129   1.301   6.776 -0.4242  0.0388 -0.2746
37923W        W46723  16.998   3.325  31.789  0.0233  0.2017  0.1054
37924W        W46724  24.270   6.455  33.547  0.0877 -0.0857  0.0501
37925W        W46725  20.754   0.969   3.664  0.1171 -0.2504  0.1685
37926W        W46726   4.795   4.993   4.572 -0.0857  0.0417  0.3144
37927W        W46727  14.237   3.342   9.997  0.1978  0.0107  0.2152
37928W        W46728   2.640   2.909  28.987  0.2842 -0.1219  0.1087
37929W        W46729   4.417   5.521  11.779  0.1919  0.2795  0.1015
37930W        W46730  15.843   5.320  29.719  0.0428  0.0399 -0.0533
37931W        W46731  10.578   0.107  30.367  0.2293  0.0473  0.0392
37932W        W46732  16.469   1.084  28.577 -0.3311 -0.0961 -0.1478
37933W        W46733   5.154   3.741  28.338 -0.2248 -0.0330  0.2844
37934W        W46734  21.922   5.905  26.667 -0.0145  0.0989 -0.2602
37935W        W46735   4.244   1.106  24.599  0.0748  0.2231  0.1048
37936W        W46736   9.126   5.753  21.920 -0.1972  0.3466 -0.0233
37937W        W46737   6.889   0.340  29.513 -0.1415 -0.1772  0.0505
37938W        W46738  12.638   5.680  27.190 -0.3263  0.0070  0.2325
37939W        W46739  15.981   0.423  32.004  0.0609  0.2401 -0.1751
37940W        W46740  11.301   0.901   1.684 -0.0071 -0.2553 -0.1674
37941W        W46741   4.351   4.194  12.027  0.1237  0.0818 -0.2237
37942W        W46742  14.429   0.196  24.962  0.2567 -0.1680  0.2071
37943W        W46743  14.000   4.088  11.602  0.2215 -0.1109  0.3016
37944W        W46744   9.845   3.108   7.147 -0.1609  0.1147  0.2337
37945W        W46745  12.418   3.828   1.176  0.1867 -0.2124  0.3128
37946W        W46746  20.634   5.569  27.067 -0.0044  0.2829 -0.1879
37947W        W46747  10.614   4.130  25.080 -0.2753  0.1638  0.1927
37948W        W46748  11.662   0.856  35.676  0.1311  0.0367 -0.0915
37949W        W46749  12.085   2.196   3.102 -0.0994  0.1842  0.2088
37950W        W46750  10.955   1.272  14.751 -0.1283 -0.3218 -0.0723
37951W        W46751   2.210   2.596   1.913  0.0667  0.1317  0.2553
37952W        W46752   1.674   3.036  33.679  0.0497  0.3096 -0.3069
37953W        W46753   9.858   0.379  26.628  0.0687  0.2495  0.1976
37954W        W46754  22.408   0.786   6.980  0.0731  0.2175  0.2469
37955W        W46755   2.378   0.505  11.016  0.0012 -0.2677  0.0185
37956W        W46756  25.554   1.709  27.080 -0.0172 -0.0360 -0.1996
37957W        W46757  14.874   0.394  30.764 -0.0141  0.0358 -0.0890
37958W        W46758  13.701   3.494  12.741  0.1016 -0.3536 -0.1546
37959W        W46759   9.206   2.579  11.454 -0.1346 -0.1162 -0.2899
37960W        W46760  16.225   1.952  25.178  0.1994  0.3137 -0.3754
37961W        W46761   9.980   4.957  14.455  0.1713  0.0884  0.2803
37962W        W46762   3.006   1.771  29.854  0.2053  0.0736 -0.1588
37963W        W46763   1.609   5.484   4.213  0.3478  0.2007  0.2427
37964W        W46764  19.610   0.547  22.907 -0.3993 -0.2075  0.1001
37965W        W46765   8.624   6.129  10.057 -0.2164 -0.2657  0.4208
37966W        W46766   5.045   4.575   6.571 -0.2693 -0.2293 -0.1381
37967W        W46767  17.286   5.719  22.505 -0.2805  0.2319  0.0633
37968W        W46768  24.283   1.376   1.994  0.0028 -0.1202  0.1603
37969W        W46769  23.359   3.453  31.894  0.1347  0.0410  0.0202
37970W        W46770   6.383   6.055   4.243 -0.0679 -0.0550  0.1330
37971W        W46771  23.888   1.401  34.248  0.3008  0.3321 -0.2190
37972W        W46772   3.563   0.420  12.476 -0.0340  0.0742  0.1631
37973W        W46773  24.721   6.100   5.651 -0.0324  0.1196 -0.3976
37974W        W46774  24.043   5.179  21.277 -0.0117 -0.0601  0.0985
37975W        W46775  24.754   2.028  11.603  0.2971  0.2131 -0.0334
37976W        W46776   0.814   2.220  27.928  0.0379  0.1992 -0.0444
37977W        W46777   5.677   6.568  34.059 -0.1728 -0.3198  0.2493
37978W        W46778  21.641   0.406  24.181 -0.3020 -0.3678  0.1842
37979W        W46779  22.677   3.986  33.865 -0.0766  0.0568  0.1269
37980W        W46780   1.613   4.009  25.817 -0.2272 -0.1520  0.1657
37981W        W46781   8.376   6.324   5.229  0.0752  0.1711  0.1404
37982W        W46782   1.143   1.551   8.646  0.0111  0.1297 -0.0576
37983W        W46783  18.030   2.918  14.884  0.0231  0.3496 -0.2039
37984W        W46784  24.692   0.914  28.924 -0.1216  0.2855 -0.0699
37985W        W46785  18.427   4.503  15.091  0.0985  0.0437 -0.0257
37986W        W46786  25.621   4.432   2.127  0.2157  0.0260  0.1056
37987W        W46787  26.265   5.619   1.854 -0.0409  0.1191  0.2026
37988W        W46788  21.020   4.808  22.028  0.2404  0.0069  0.2800
37989W        W46789  13.890   2.788  33.310  0.0581  0.1722 -0.0685
37990W        W46790  16.229   0.745   4.399 -0.1737 -0.2836  0.0093
37991W        W46791  20.304   3.501  29.385  0.0306  0.1100 -0.1086
37992W        W46792  22.695   0.640   9.101 -0.0201 -0.0491  0.0679
37993W        W46793  19.920   5.184   4.213 -0.0071  0.0267 -0.1334
37994W        W46794  14.069   4.322  28.159 -0.1012  0.2029 -0.2226
37995W        W46795  21.941   6.378   8.400  0.0941 -0.1651  0.0146
37996W        W46796  15.804   5.375  35.821 -0.2166  0.1121 -0.0503
37997W        W46797   1.445   4.545   7.966  0.1957  0.0440 -0.4542
37998W        W46798  23.247   6.194  33.477 -0.3497  0.1056  0.0694
37999W        W46799   5.384   6.342   7.106  0.0225  0.2162  0.1243
38000W        W46800   4.940   3.640  10.810 -0.1771 -0.1158 -0.0057
38001W        W46801   7.659   5.703   1.660 -0.0098 -0.0697 -0.1616
38002W        W46802   3.497   1.930  10.324  0.0511  0.2334 -0.3278
38003W        W46803  17.734   4.017   4.242 -0.0479 -0.1056 -0.0367
38004W        W46804   1.298   0.816  14.154 -0.1654  0.1192 -0.0948
38005W        W46805  25.187   6.576   0.816  0.0802 -0.2859  0.2354
38006W        W46806   0.269   4.614  35.608  0.3926  0.2244  0.0907
38007W        W46807   3.930   3.062  12.936  0.4507  0.2317 -0.2416
38008W        W46808  25.766   0.510  29.425 -0.0195 -0.0188  0.4658
38009W        W46809   4.369   6.237   4.254 -0.0721  0.0668 -0.1030
38010W        W46810   5.296   4.154  35.066 -0.0476  0.2281  0.1607
38011W        W46811   1.009   4.096   6.567 -0.1359 -0.0858  0.0354
38012W        W46812   4.826   0.783  27.429 -0.0499  0.2753 -0.1639
38013W        W46813  21.582   6.401   4.684  0.3142 -0.0698  0.0684
38014W        W46814   5.617   5.914   3.562 -0.0491  0.1891 -0.0099
38015W        W46815  22.407   3.407   8.692 -0.1813  0.1095 -0.0965
38016W        W46816   8.555   2.160   3.303 -0.3669  0.2293 -0.1580
38017W        W46817   5.733   0.651  32.163  0.1378  0.0373 -0.1000
38018W        W46818  15.183   4.823  27.906  0.0078 -0.0520  0.0282
38019W        W46819   1.793   1.723   4.883  0.1199 -0.0937 -0.2604
38020W        W46820   7.756   5.787  20.812  0.0294 -0.0516 -0.2058
38021W        W46821  21.871   2.531   2.850  0.0826  0.2340  0.1771
38022W        W46822  18.022   3.441   5.952  0.2030 -0.1840  0.1335
38023W        W46823  24.818   1.582  20.980 -0.2653  0.3710  0.2133
38024W        W46824  17.238   5.847  14.546 -0.1881 -0.0668 -0.2370
38025W        W46825  11.577   4.467  10.038  0.2637  0.1209 -0.1309
38026W        W46826  19.600   5.249  13.814 -0.2350 -0.2831  0.0201
38027W        W46827   5.465   4.580  27.087  0.3593  0.0398 -0.1786
38028W        W46828   6.108   2.689  27.772 -0.0248  0.1943 -0.3828
38029W        W46829  12.358   2.013  29.755 -0.2355  0.0924  0.1988
38030W        W46830   0.272   0.327   2.467  0.1185  0.0386  0.0167
38031W        W46831   3.063   1.928   8.236 -0.1817  0.0249  0.2319
38032W        W46832   3.970   2.182   1.707 -0.0114  0.0390  0.1598
38033W        W46833   0.724   4.706  24.958  0.0084  0.0860 -0.1388
38034W        W46834  12.100   2.236  27.173  0.1509 -0.1768 -0.3108
38035W        W46835  22.969   2.678  25.147 -0.3390  0.1284  0.2805
38036W        W46836  19.999   5.833   5.082 -0.0646 -0.1111  0.1094
38037W        W46837   1.111   3.635  21.166  0.2535 -0.3204 -0.0028
38038W        W46838   1.227   5.441   1.974 -0.1105 -0.0496 -0.1160
38039W        W46839  13.472   0.473  26.724 -0.2831  0.0887 -0.2484
38040W        W46840   7.344   1.461  32.224  0.0892  0.2495 -0.1251
38041W        W46841  24.407   4.665  33.614 -0.0342 -0.0600 -0.3098
38042W        W46842  10.786   4.113  26.352 -0.1443  0.1891 -0.2464
38043W        W46843  15.164   2.654   3.030 -0.1226 -0.5116  0.4009
38044W        W46844  16.971   2.579   3.199 -0.0610  0.0952 -0.1320
38045W        W46845   4.527   6.016  27.298  0.0965  0.1763 -0.1531
38046W        W46846   8.071   6.601  12.093  0.1714  0.2398 -0.0419
38047W        W46847   7.335   5.650  15.412 -0.0258 -0.2669  0.2298
38048W        W46848  12.603   5.232   7.896  0.1656  0.1333 -0.0792
38049W        W46849  11.693   2.973   6.437 -0.1599 -0.1925 -0.1854
38050W        W46850  21.267   4.346  21.212 -0.2651  0.0587  0.0380
38051W        W46851  23.403   5.590   7.294  0.0893  0.3174  0.0676
38052W        W46852   6.516   4.826   1.606 -0.1130 -0.0051 -0.1862
38053W        W46853   3.255   1.435   1.753 -0.1715  0.2355  0.2719
38054W        W46854   4.695   1.546   2.695  0.0187 -0.3759 -0.1304
38055W        W46855  25.721   0.614  23.368  0.1678 -0.2067  0.0284
38056W        W46856  15.687   5.786   4.828 -0.0890 -0.2402  0.1684
38057W        W46857  11.611   3.541   5.186  0.0638  0.0930  0.0120
38058W        W46858   2.604   1.903  30.155 -0.1093  0.0644 -0.1855
38059W        W46859   2.511   0.694  21.810 -0.1395  0.0190 -0.0311
38060W        W46860  20.407   2.743  32.273  0.2019  0.1563 -0.2323
38061W        W46861  15.469   4.998   2.099 -0.0049 -0.1701 -0.1831
38062W        W46862  15.724   2.250  23.669 -0.0951  0.1811 -0.0412
38063W        W46863  11.040   5.823  32.285 -0.1906 -0.1957  0.0552
38064W        W46864  10.305   2.539   4.868 -0.2046 -0.0725  0.0014
38065W        W46865  20.393   6.247  28.697 -0.4620 -0.2309  0.2316
38066W        W46866  13.608   0.971   5.071  0.1894 -0.0028  0.0880
38067W        W46867   9.611   1.806   7.161 -0.0526  0.0045  0.2050
38068W        W46868  15.801   5.156  30.488  0.0486  0.3338  0.0140
38069W        W46869  10.026   6.234   2.382 -0.0856  0.1697 -0.2466
38070W        W46870  20.465   6.566   3.000 -0.5351 -0.2604 -0.0116
38071W        W46871  10.238   2.625  23.534 -0.0606  0.0188 -0.0408
38072W        W46872  13.587   2.575   5.718 -0.2449  0.1980 -0.4073
38073W        W46873   6.986   1.788   7.502 -0.0137  0.0288  0.0367
38074W        W46874  24.289   5.732   0.961 -0.3036 -0.2291  0.0122
38075W        W46875  21.101   1.932  32.581 -0.2615  0.2266 -0.3830
38076W        W46876   2.574   6.195  34.698  0.2493 -0.2481  0.1527
38077W        W46877   6.009   6.335   2.151  0.0661 -0.4091 -0.3055
38078W        W46878   6.006   0.697  21.947  0.0217 -0.2087  0.0716
38079W        W46879  15.689   5.702  27.542  0.2320  0.1080  0.0011
38080W        W46880   8.303   4.863   5.322 -0.0167  0.3631  0.2232
38081W        W46881  20.624   3.582   7.001 -0.1541 -0.1790  0.0119
38082W        W46882  11.293   1.278  26.490  0.0456  0.0094  0.1273
38083W        W46883   6.609   2.076  30.435 -0.1260 -0.2487 -0.1323
38084W        W46884  18.479   4.163  28.021 -0.1292 -0.2335  0.1553
38085W        W46885  21.092   0.811   2.120  0.1677  0.1158 -0.0122
38086W        W46886   8.683   5.144  15.618 -0.0209  0.0914 -0.1409
38087W        W46887  22.214   0.488  33.258 -0.1609 -0.0275  0.2749
38088W        W46888  18.587   1.130  22.159  0.2507 -0.2784 -0.1332
38089W        W46889  19.469   1.484  20.634  0.3096 -0.2815 -0.0663
38090W        W46890   6.570   5.000  14.888  0.1621  0.2716  0.0869
38091W        W46891   6.747   3.503  13.804  0.2231  0.3633  0.0295
38092W        W46892  23.618   5.568  31.481  0.2719  0.1192 -0.1596
38093W        W46893   5.230   4.083  13.494 -0.4893  0.1638  0.2588
38094W        W46894  21.104   4.789  23.200  0.4057 -0.0216 -0.0437
38095W        W46895  16.392   0.932   6.829  0.1855 -0.2765 -0.1045
38096W        W46896  23.149   3.255  31.495  0.3061 -0.1075  0.1658
38097W        W46897   6.402   4.549  10.176 -0.0168 -0.0362  0.0340
38098W        W46898   0.726   5.436  32.069  0.0619 -0.2291 -0.1614
38099W        W46899  21.240   4.886  11.810 -0.0899 -0.1024  0.0837
38100W        W46900  10.979   1.339   2.531 -0.2664 -0.0062 -0.3843
38101W        W46901   3.240   6.558  14.254  0.0250 -0.0737  0.1240
38102W        W46902   3.692   1.722  24.439 -0.1119 -0.0870 -0.2426
38103W        W46903  15.321   3.722  29.866  0.2005 -0.1179  0.3496
38104W        W46904   3.387   3.744   7.279 -0.1592 -0.1061 -0.0754
38105W        W46905  12.055   4.482  33.728  0.0357  0.1743 -0.0786
38106W        W46906  22.087   5.741  27.342 -0.1190 -0.0806  0.1393
38107W        W46907   5.715   6.050  31.060  0.0497 -0.1680 -0.0775
38108W        W46908   1.615   1.918  28.903  0.0282  0.1108 -0.0522
38109W        W46909  18.575   2.602  28.241 -0.4728 -0.2449 -0.2201
38110W        W46910  14.782   5.867   5.778 -0.1030  0.0829 -0.0658
38111W        W46911  13.007   1.366  26.302 -0.0990 -0.1335 -0.1366
38112W        W46912   9.256   6.544   2.431 -0.3766 -0.0829 -0.2518
38113W        W46913   1.467   0.900   3.826 -0.1192  0.2940  0.2648
38114W        W46914   7.701   6.584  13.351  0.1792  0.0697 -0.1955
38115W        W46915  15.066   4.680  35.043 -0.0885  0.4044  0.1671
38116W        W46916   4.684   4.816  32.992 -0.2761  0.2169  0.1358
38117W        W46917  14.928   2.028  10.139 -0.2325  0.1312 -0.1319
38118W        W46918  17.699   0.089  24.228 -0.2502  0.3075  0.1043
38119W        W46919  14.478   3.915  21.008  0.0343  0.0848 -0.5442
38120W        W46920  24.147   1.178  21.250 -0.1390 -0.0149  0.2120
38121W        W46921  23.686   1.044   1.195 -0.0912 -0.0840 -0.0959
38122W        W46922  24.162   3.514   8.154 -0.1697  0.0642 -0.2943
38123W        W46923   1.994   6.374  10.570 -0.0765 -0.1130 -0.1182
38124W        W46924  17.765   2.756   3.450 -0.0556  0.0416 -0.0627
38125W        W46925  24.721   4.130   7.632  0.2506  0.0391 -0.0382
38126W        W46926   0.266   6.202   5.409 -0.2044  0.1072  0.0805
38127W        W46927  21.443   3.125  13.999  0.1488  0.0162 -0.0098
38128W        W46928  15.815   2.021  28.720  0.0234 -0.0963  0.1415
38129W        W46929   4.386   5.541  25.023 -0.0191 -0.2479 -0.1918
38130W        W46930   5.581   5.841  33.229 -0.1573  0.0530 -0.1125
38131W        W46931  15.260   0.655  31.539 -0.1321  0.0389  0.0850
38132W        W46932   1.770   4.716  30.652 -0.1211  0.1223 -0.1779
38133W        W46933   0.702   4.569  21.345 -0.1651  0.1792  0.3791
38134W        W46934   8.355   6.214  25.232 -0.1000 -0.1436 -0.1394
38135W        W46935  20.619   1.590  10.359  0.0776 -0.0527  0.4320
38136W        W46936   0.888   0.109  15.107  0.3582 -0.3851  0.2724
38137W        W46937   3.463   2.592  20.382 -0.0588  0.2821  0.1544
38138W        W46938  14.670   4.875  35.259 -0.1990  0.0579 -0.1679
38139W        W46939   9.552   6.569  10.456 -0.0619 -0.1204  0.0036
38140W        W46940   5.555   1.324   3.069 -0.0067  0.0102  0.0668
38141W        W46941   3.232   2.539  21.663  0.2551  0.0911 -0.2032
38142W        W46942   5.225   6.390  27.069 -0.1811  0.1456 -0.1144
38143W        W46943  23.854   1.760  26.024  0.3728  0.1887  0.1610
38144W        W46944  15.247   2.918   6.306  0.2406 -0.1700  0.1236
38145W        W46945  14.868   5.617  33.755 -0.0783 -0.0644  0.3049
38146W        W46946   6.781   4.509  34.225  0.3130  0.1808 -0.0682
38147W        W46947   3.938   2.787  21.268 -0.1087  0.0069 -0.0235
38148W        W46948  18.251   0.280  32.825  0.1013  0.3359 -0.2411
38149W        W46949  16.314   2.273   7.126 -0.2166  0.1793  0.2206
38150W        W46950   2.876   1.154   8.468 -0.1418 -0.0723 -0.0610
38151W        W46951  12.171   2.635   5.728  0.0535 -0.1161  0.1812
38152W        W46952   7.462   5.864   3.173 -0.0030  0.1622  0.4091
38153W        W46953  14.042   3.105   7.656  0.2914 -0.1433 -0.1401
38154W        W46954   2.322   4.867   0.472 -0.2001  0.2730  0.0586
38155W        W46955  19.377   6.490  12.860 -0.0634 -0.2808  0.0182
38156W        W46956  18.949   1.025  23.078 -0.0149  0.2063  0.2644
38157W        W46957   8.710   2.665  11.534 -0.0816 -0.0167  0.0027
38158W        W46958  10.083   4.971  10.506  0.2665  0.2490  0.0903
38159W        W46959  14.723   3.917  13.890 -0.1916 -0.2439  0.3916
38160W        W46960  10.529   6.340  11.002  0.3371  0.2925  0.3689
38161W        W46961  22.490   0.732  28.360  0.0833  0.3100  0.2926
38162W        W46962  22.129   5.484  24.730  0.0324  0.1292 -0.2939
38163W        W46963   6.794   2.635   1.254  0.1194 -0.0411 -0.1133
38164W        W46964   4.218   1.360  10.674  0.2789  0.0063 -0.0473
38165W        W46965  11.866   1.701  13.263  0.0247 -0.0589  0.0510
38166W        W46966   4.101   4.035   5.359  0.3576  0.0051  0.0796
38167W        W46967  10.113   0.834  13.828  0.3575  0.3378  0.1302
38168W        W46968   5.175   4.036   4.182 -0.1922 -0.0238 -0.0966
38169W        W46969  19.186   4.350   4.902 -0.0344 -0.0494  0.0382
38170W        W46970   9.921   4.509   2.271 -0.1387  0.3136 -0.1815
38171W        W46971   3.105   4.039  22.770  0.0408 -0.1617 -0.0453
38172W        W46972  23.217   4.285  13.809  0.0279 -0.0840  0.0583
38173W        W46973  21.957   1.677  11.854  0.1122  0.0332 -0.1929
38174W        W46974   0.822   6.360  12.433  0.0002  0.5928 -0.0695
38175W        W46975  22.787   1.248   0.093  0.1551 -0.1426 -0.3131
38176W        W46976   0.309   2.820  11.999 -0.3896 -0.3924 -0.0780
38177W        W46977  18.467   4.968  35.002 -0.0706  0.0791 -0.3238
38178W        W46978  15.411   5.481  14.647 -0.0827 -0.2694 -0.0038
38179W        W46979  14.883   2.470  21.547  0.2687  0.1214  0.1663
38180W        W46980  11.295   5.098  30.391 -0.0246 -0.5075 -0.1800
38181W        W46981   5.924   1.647   7.776  0.2118  0.3139  0.0306
38182W        W46982   4.836   5.935  25.696 -0.0574  0.1101  0.3074
38183W        W46983  10.242   5.582  11.820  0.0071  0.1235  0.2274
38184W        W46984   8.353   5.573  34.461  0.0345 -0.0804 -0.1729
38185W        W46985   3.496   0.113  31.380 -0.1103 -0.0792 -0.2475
38186W        W46986   9.203   4.387   5.804  0.0149  0.2693 -0.1495
38187W        W46987   8.997   4.249  34.084  0.0762 -0.1204 -0.0129
38188W        W46988  21.048   2.831  13.805  0.3668  0.0270 -0.0924
38189W        W46989  20.494   2.287  28.220 -0.1577  0.1054 -0.1259
38190W        W46990  13.678   4.732  14.508  0.2483  0.0043 -0.0435
38191W        W46991  12.295   1.278  13.553  0.0249 -0.0012 -0.2953
38192W        W46992  16.887   0.329  33.536 -0.1627 -0.0725  0.0357
38193W        W46993  17.450   3.664   9.019 -0.3303  0.0162  0.0556
38194W        W46994   6.895   2.772  35.993  0.0064  0.2851  0.0910
38195W        W46995   1.224   3.346  27.164  0.1450 -0.0880 -0.1818
38196W        W46996  14.570   5.835   7.980 -0.2581 -0.4311 -0.1394
38197W        W46997   9.205   0.144   0.012 -0.1335 -0.1787 -0.0064
38198W        W46998  21.253   1.796  35.638 -0.0032  0.1422 -0.3967
38199W        W46999   2.828   0.497   4.112  0.0121 -0.1346 -0.1703
38200W        W47000  26.031   2.600  32.679  0.3241 -0.0925  0.1245
38201W        W47001  26.341   4.214  12.365 -0.1238 -0.0822 -0.2274
38202W        W47002   4.665   1.843  13.272  0.1621 -0.0131 -0.0218
38203W        W47003  16.414   3.157  24.192  0.0042  0.2276  0.0329
38204W        W47004   1.909   4.908   1.209 -0.3163  0.0898 -0.0511
38205W        W47005  16.255   5.578  29.940 -0.1126  0.3495  0.1786
38206W        W47006   5.765   5.374   4.398 -0.2391 -0.2601 -0.0006
38207W        W47007  13.927   0.316   5.415 -0.1052  0.0118  0.0238
38208W        W47008  16.705   2.178   8.027 -0.0471  0.0796  0.1504
38209W        W47009  21.859   5.421  12.421 -0.0978 -0.1688 -0.2386
38210W        W47010   3.396   1.523  26.262  0.1179 -0.2867  0.0858
38211W        W47011   8.233   5.209  32.411  0.4877  0.3208 -0.0767
38212W        W47012  19.774   4.493  22.997  0.1630 -0.2360 -0.0863
38213W        W47013   2.821   1.405  35.042  0.0030  0.0448  0.1289
38214W        W47014  11.445   3.580  32.782  0.0822  0.0779 -0.2351
38215W        W47015   7.290   0.856   0.125  0.0075 -0.0493  0.0011
38216W        W47016   0.105   1.914  28.791 -0.2055 -0.3667 -0.0141
38217W        W47017  11.224   0.985  11.518  0.0369 -0.1230 -0.1694
38218W        W47018  24.125   2.996  21.242 -0.3302  0.2514 -0.3718
38219W        W47019  24.662   4.409   2.404 -0.1470  0.0826  0.0397
38220W        W47020   3.488   1.472  31.039 -0.0662 -0.2895 -0.2880
38221W        W47021   6.546   4.018  15.701 -0.0740  0.0940  0.0890
38222W        W47022  24.978   0.034  34.954  0.0918 -0.0885  0.0777
38223W        W47023   9.605   3.055  23.106  0.0606  0.0035  0.0840
38224W        W47024  23.644   6.010   8.013  0.0778 -0.0949 -0.0990
38225W        W47025   3.985   1.995   9.180 -0.0265 -0.1231 -0.0827
38226W        W47026   7.390   4.003  21.461 -0.0456  0.1172  0.1873
38227W        W47027  19.680   3.367   1.113  0.0584  0.0691 -0.0606
38228W        W47028  13.593   0.963  31.941  0.0768  0.0373 -0.0719
38229W        W47029  15.002   2.382  35.298  0.2059 -0.2367 -0.0345
38230W        W47030  13.160   2.276  30.478 -0.0140  0.4489  0.0591
38231W        W47031  20.451   4.451  33.686 -0.0839 -0.2236 -0.0787
38232W        W47032   4.961   6.538  28.506  0.0431  0.0725 -0.1001
38233W        W47033  17.162   0.722  10.605 -0.1686 -0.0615 -0.1376
38234W        W47034  18.894   0.105   5.588 -0.2082 -0.0361 -0.1065
38235W        W47035   4.294   5.826  25.441 -0.1800  0.0520 -0.2755
38236W        W47036  19.096   4.086  23.579 -0.0174  0.0416  0.0862
38237W        W47037   0.953   1.069  14.431  0.0050 -0.1408  0.0542
38238W        W47038   8.139   0.160   5.221 -0.1614 -0.0797 -0.0419
38239W        W47039  25.611   5.374  12.820  0.2137 -0.0041  0.2942
38240W        W47040  18.712   6.580  26.307 -0.1848 -0.1028 -0.0198
38241W        W47041  15.143   5.204  33.457 -0.0649 -0.1664  0.0731
38242W        W47042   0.917   3.207  24.956  0.0409  0.3346  0.1414
38243W        W47043  19.420   4.823  23.090 -0.1395 -0.2815  0.0248
38244W        W47044   5.683   2.122  16.040 -0.3250  0.1385  0.1001
38245W        W47045   5.031   0.968  31.712 -0.1116  0.2425  0.0539
38246W        W47046  25.366   6.555   2.502 -0.0385 -0.0203  0.2338
38247W        W47047   7.479   0.432  33.977  0.1342  0.1866 -0.1733
38248W        W47048   7.549   1.314  26.123  0.0309  0.0577 -0.0004
38249W        W47049  21.758   1.453  30.933  0.1689  0.6563  0.3437
38250W        W47050   9.236   2.360  32.931  0.0014  0.2513  0.0636
38251W        W47051  24.020   1.573  27.377 -0.1936 -0.1295  0.0938
38252W        W47052   5.047   1.155  11.986  0.0104 -0.0622 -0.1374
38253W        W47053  17.727   1.792  14.105  0.0481  0.0498  0.1543
38254W        W47054  19.066   6.433   4.126  0.2830  0.0200 -0.3338
38255W        W47055  19.171   3.149   9.760  0.1061  0.0062 -0.2105
38256W        W47056  22.840   4.923   1.218  0.0786  0.0269  0.0610
38257W        W47057   8.297   0.908  29.810 -0.1268  0.0672  0.2638
38258W        W47058  17.710   4.033   2.545  0.0960  0.1600  0.1014
38259W        W47059  15.904   0.543  10.645 -0.3423 -0.0063 -0.0764
38260W        W47060  25.410   2.383  10.361  0.0009  0.2461  0.2617
38261W        W47061  11.957   5.653  31.543 -0.1002  0.0068  0.2777
38262W        W47062  23.294   2.859   2.539 -0.1563 -0.0356 -0.1521
38263W        W47063  19.104   3.283   0.289 -0.0980 -0.2908 -0.1862
38264W        W47064  14.736   2.854  21.942  0.3214  0.0764  0.2561
38265W        W47065   7.373   0.990  22.754  0.0346 -0.1120  0.1600
38266W        W47066  16.811   5.768   0.143  0.1072  0.1207  0.1845
38267W        W47067   1.162   5.131   8.337  0.3871 -0.0523  0.0466
38268W        W47068   7.990   3.017   9.033  0.1362 -0.2582  0.2481
38269W        W47069   9.683   1.067   4.898 -0.3147  0.1557 -0.0215
38270W        W47070   3.685   2.931  28.902  0.0354 -0.3579  0.1506
38271W        W47071   5.700   0.670   1.333 -0.0817  0.4146 -0.1121
38272W        W47072   4.843   0.405   3.786 -0.0095 -0.3233  0.3020
38273W        W47073   9.151   3.216  14.348 -0.1247  0.0706 -0.1887
38274W        W47074   9.903   2.894  22.077  0.1099  0.1207 -0.2384
38275W        W47075   4.421   3.729  31.876 -0.1712  0.1751 -0.0026
38276W        W47076  10.645   4.650  33.174  0.0729 -0.0000 -0.1174
38277W        W47077  12.484   0.036  15.255 -0.1046 -0.1778  0.3108
38278W        W47078  21.025   2.794  12.530  0.0426 -0.0519 -0.1805
38279W        W47079   3.207   4.778  14.194 -0.1398  0.0595 -0.5167
38280W        W47080  12.514   3.555   5.651  0.1208  0.0624  0.1534
38281W        W47081  20.267   5.448  14.672 -0.1164  0.0290 -0.1482
38282W        W47082  24.375   3.787   7.755  0.1194  0.1612  0.2581
38283W        W47083  17.789   5.838   3.156  0.0120  0.0155 -0.0711
38284W        W47084  18.610   2.972   2.438 -0.0749  0.1275  0.1376
38285W        W47085  12.241   4.601  21.678 -0.2727  0.2473 -0.0833
38286W        W47086  19.640   3.265   3.264 -0.1882  0.1012  0.3400
38287W        W47087  19.271   1.561  28.748 -0.2140  0.1869  0.0816
38288W        W47088  16.962   0.954  11.129  0.0660 -0.0660  0.1512
38289W        W47089  21.111   2.924   5.891  0.1716  0.1006 -0.4148
38290W        W47090  18.833   4.857   4.271  0.0419 -0.1746  0.1253
38291W        W47091   1.006   2.714   1.646  0.0248 -0.0378  0.0964
38292W        W47092   5.029   5.650  20.921  0.0204  0.0226 -0.1078
38293W        W47093  20.149   4.095  28.674 -0.0621  0.0849  0.0839
38294W        W47094   2.707   6.121  28.943  0.0285 -0.2453 -0.0326
38295W        W47095   5.734   4.450   7.269 -0.1561 -0.2960 -0.3021
38296W        W47096  14.290   2.032  23.115 -0.1552  0.3125 -0.1520
38297W        W47097   0.139   5.967   9.588  0.0450 -0.1347 -0.1207
38298W        W47098  13.995   4.238   5.047 -0.2261  0.1060  0.0987
38299W        W47099  11.299   6.442   6.505 -0.1666  0.1544  0.1208
38300W        W47100  12.434   2.085  28.389 -0.1158  0.0965 -0.1967
38301W        W47101   2.195   3.151   5.815  0.0411 -0.3173  0.1281
38302W        W47102  12.665   3.922   6.084  0.1600  0.0197 -0.2776
38303W        W47103  25.712   1.390  27.627  0.1506  0.1282  0.1704
38304W        W47104  17.304   0.762  25.720  0.0251 -0.0857  0.1601
38305W        W47105  21.724   2.595  31.203  0.0008  0.0173 -0.1376
38306W        W47106   6.276   6.067  33.795  0.1591  0.1442  0.0739
38307W        W47107   7.746   0.713  32.724  0.0442  0.1136 -0.0590
38308W        W47108  14.639   4.630  10.417  0.0118  0.2948 -0.1164
38309W        W47109  19.355   3.843  28.061 -0.1368  0.3628 -0.1494
38310W        W47110  15.832   1.444  35.089 -0.0515 -0.1977  0.1238
38311W        W47111  17.308   4.032  24.310  0.2186 -0.3193  0.2990
38312W        W47112  14.588   2.025   0.153  0.1396  0.0792  0.1600
38313W        W47113  19.201   1.395  33.898 -0.0730 -0.0000 -0.0866
38314W        W47114   6.814   2.658   4.661 -0.1610 -0.0285  0.0384
38315W        W47115  17.382   0.256   8.608  0.1919 -0.1784 -0.0046
38316W        W47116  19.330   1.167  11.492  0.0428  0.0574  0.2395
38317W        W47117  17.949   1.195  10.171  0.0815 -0.0842 -0.0871
38318W        W47118  15.988   1.783  29.712  0.2652  0.0758 -0.0592
38319W        W47119   5.499   5.685   4.659 -0.1999  0.1301  0.0415
38320W        W47120  24.828   2.796   4.935 -0.0254 -0.1956  0.2803
38321W        W47121  13.331   6.058  23.572 -0.2072 -0.1671 -0.3676
38322W        W47122   4.370   3.621   1.488  0.1614  0.0011 -0.0551
38323W        W47123   7.963   5.784   8.803 -0.4092  0.2604  0.3799
38324W        W47124   7.513   1.264  30.609 -0.0314  0.1471  0.1164
38325W        W47125  10.775   2.761  28.973 -0.0605 -0.3131 -0.0383
38326W        W47126  15.598   2.157   8.291 -0.0181 -0.0566  0.4597
38327W        W47127  16.835   1.894  26.190 -0.0992  0.5576 -0.0929
38328W        W47128   6.957   3.173  30.120  0.0379 -0.1511 -0.1212
38329W        W47129   7.826   2.684  11.810 -0.0334  0.3364  0.1302
38330W        W47130  14.797   2.567   4.594  0.0623  0.1784 -0.0849
38331W        W47131  23.361   4.009   9.537  0.0137  0.0160 -0.0017
38332W        W47132  24.999   4.308   4.242 -0.1437  0.3367 -0.0498
38333W        W47133  11.759   0.482  14.124  0.0271  0.1594 -0.1168
38334W        W47134   3.566   2.717   4.929 -0.0731  0.3725 -0.1323
38335W        W47135  26.218   5.837  34.344 -0.0562 -0.1610 -0.0386
38336W        W47136  11.447   4.800   4.082  0.0770  0.0283 -0.1084
38337W        W47137   9.529   1.131  11.767 -0.0504 -0.2485  0.0145
38338W        W47138  15.746   6.434  21.260 -0.0104  0.2393  0.1043
38339W        W47139   6.004   3.215  11.193  0.0937  0.0211 -0.1049
38340W        W47140   7.478   4.685   3.120  0.0714 -0.0322 -0.1890
38341W        W47141   9.630   4.969  29.312  0.0955  0.1380 -0.2352
38342W        W47142   9.224   2.835   2.468  0.1613  0.0627 -0.3858
38343W        W47143   1.158   5.805  23.887 -0.1193 -0.0315  0.3577
38344W        W47144  12.551   6.289  34.545 -0.0192  0.0875  0.1161
38345W        W47145  22.058   3.725   3.677 -0.2383 -0.0057 -0.0065
38346W        W47146  11.710   3.708  32.021 -0.1386 -0.0851 -0.2105
38347W        W47147  19.700   6.050  35.008 -0.1193  0.4097 -0.2667
38348W        W47148  25.538   4.509   2.822 -0.1121  0.1794  0.0181
38349W        W47149  11.130   3.620   5.118  0.0477 -0.2918  0.0523
38350W        W47150   1.845   0.783  11.445 -0.1297 -0.0602 -0.1720
38351W        W47151  22.242   2.448  23.681  0.2004 -0.0214  0.1102
38352W        W47152  18.599   1.272  31.678 -0.0381 -0.0312 -0.0214
38353W        W47153   0.669   6.174  14.948  0.0153  0.0550 -0.0356
38354W        W47154   8.014   5.026  35.676  0.0395  0.1628 -0.0785
38355W        W47155   5.137   3.483  32.670 -0.1552  0.0946 -0.0635
38356W        W47156   6.065   1.144  10.506  0.2697  0.0743  0.3558
38357W        W47157  20.812   0.098  23.183  0.0207  0.4569 -0.2675
38358W        W47158  12.823   5.611  34.990 -0.1906 -0.1738  0.1565
38359W        W47159  14.221   1.346   6.560  0.0527 -0.2035 -0.1454
38360W        W47160  14.182   2.024  34.647 -0.2300  0.1014  0.1877
38361W        W47161  18.326   0.124   1.833 -0.1015  0.0073 -0.2088
38362W        W47162  17.545   1.154   5.474 -0.0389  0.0174 -0.2347
38363W        W47163  20.884   3.934  35.003  0.3577 -0.0875  0.0995
38364W        W47164  11.804   4.048  34.604  0.1017 -0.3418  0.0104
38365W        W47165  21.395   6.132  32.824  0.3083 -0.2853 -0.0650
38366W        W47166  13.666   6.543  30.975 -0.1006 -0.3856  0.1707
38367W        W47167   2.427   0.796   2.964 -0.2830 -0.3577 -0.1934
38368W        W47168  25.679   6.432  27.493 -0.0254  0.0655 -0.4239
38369W        W47169  11.413   2.009   9.546  0.2142 -0.2492  0.1638
38370W        W47170  24.026   4.770  32.699  0.1747  0.1151 -0.3686
38371W        W47171  14.508   2.448  27.349 -0.1231  0.0909  0.0210
38372W        W47172  17.480   3.771  28.552 -0.0943  0.3999  0.0561
38373W        W47173  22.497   1.045  29.523 -0.2022 -0.0255 -0.0319
38374W        W47174   5.356   4.850   4.492  0.0359  0.0517  0.3173
38375W        W47175   4.043   0.936   3.747  0.2063  0.0999  0.0866
38376W        W47176   7.184   2.890  28.685 -0.2396 -0.1559 -0.2734
38377W        W47177  13.437   1.950  11.855 -0.0118  0.1783 -0.3247
38378W        W47178  15.930   6.545  20.253 -0.0082 -0.2510  0.0800
38379W        W47179  16.154   5.521   8.465 -0.1950 -0.0341 -0.3924
38380W        W47180  10.847   3.256  13.034 -0.0869 -0.0509 -0.0138
38381W        W47181   1.273   0.655  34.203  0.0167 -0.2681 -0.2403
38382W        W47182  15.176   2.764  12.725  0.0897  0.4263 -0.0445
38383W        W47183   9.135   1.206   1.685  0.1919  0.0254 -0.0347
38384W        W47184   3.272   2.204  32.179  0.1841  0.0883  0.1342
38385W        W47185  18.934   1.156   7.497 -0.0703 -0.1356 -0.2585
38386W        W47186  26.129   3.320   9.305 -0.0024  0.1199  0.2101
38387W        W47187   2.086   4.304   4.920  0.4880 -0.1700 -0.1789
38388W        W47188   4.114   2.418  12.383 -0.1776  0.2256  0.1305
38389W        W47189  15.125   5.396   7.358 -0.0753 -0.1642  0.4422
38390W        W47190   1.331   4.326  13.381  0.0551 -0.1634  0.0463
38391W        W47191   7.574   4.510   8.711  0.0889  0.0740 -0.2309
38392W        W47192  24.971   2.668  23.009  0.1658  0.0608 -0.1100
38393W        W47193  17.335   0.341  28.557 -0.2303 -0.1883  0.2028
38394W        W47194  13.140   0.410   0.208  0.1547 -0.1390 -0.0032
38395W        W47195   2.492   2.948  24.003  0.1168 -0.0050 -0.0767
38396W        W47196  25.303   2.995  22.168  0.0826 -0.2392  0.2816
38397W        W47197   4.316   0.712  33.241 -0.1568 -0.0146 -0.1446
38398W        W47198  15.623   6.165   1.523 -0.1164 -0.1738 -0.1074
38399W        W47199  25.574   0.985  22.924 -0.1293 -0.0150  0.1870
38400W        W47200   1.089   5.464  15.655 -0.1277  0.1772 -0.2750
38401W        W47201   1.521   4.492  20.962  0.1806 -0.1055 -0.0586
38402W        W47202   1.969   2.732  31.877 -0.5573  0.1283  0.1189
38403W        W47203  19.741   3.859  10.086  0.2949 -0.0196  0.1050
38404W        W47204   8.545   0.727  23.938 -0.0302  0.1623  0.2425
38405W        W47205  15.103   5.117  11.133  0.1329  0.3176  0.0144
38406W        W47206  20.696   3.458  24.998  0.1631 -0.0227 -0.2173
38407W        W47207  26.068   4.530  14.149  0.1150  0.0047 -0.4800
38408W        W47208  14.388   2.793   2.648 -0.0919  0.0735  0.1781
38409W        W47209  20.472   5.416  22.308 -0.2222 -0.0338  0.1653
38410W        W47210  22.092   2.978  33.340 -0.0886 -0.0885  0.0811
38411W        W47211   7.934   2.606   2.081  0.0549 -0.1675  0.0336
38412W        W47212  11.339   1.073   2.811  0.0698  0.1277 -0.3738
38413W        W47213   0.775   4.598   4.991  0.1557  0.2031 -0.0532
38414W        W47214  25.853   0.093  13.025  0.2394 -0.0913 -0.1860
38415W        W47215   9.465   5.279   5.520  0.2168 -0.1559  0.0404
38416W        W47216  18.876   2.963  23.462  0.1100  0.0634 -0.1220
38417W        W47217  17.795   2.756  23.259  0.1047  0.1061 -0.4032
38418W        W47218   5.135   6.053  34.716 -0.0948 -0.0694 -0.3264
38419W        W47219  11.554   0.348  32.737 -0.2045  0.1175 -0.0143
38420W        W47220   5.190   3.538   6.494  0.1244 -0.0808 -0.2048
38421W        W47221  10.045   1.106   4.533  0.1516  0.0153  0.1513
38422W        W47222  18.214   2.715  25.217  0.0240  0.2591 -0.1313
38423W        W47223   1.573   0.376  20.829  0.0270  0.2242  0.1002
38424W        W47224  19.330   3.361   7.800 -0.1798 -0.0988 -0.0023
38425W        W47225  25.401   0.893  32.067  0.0157 -0.0366  0.0374
38426W        W47226  19.949   1.061   7.759 -0.3812  0.0622 -0.0395
38427W        W47227  20.166   5.139  27.919 -0.2564 -0.0765  0.0218
38428W        W47228   7.440   0.371  10.484 -0.1034 -0.1715 -0.0072
38429W        W47229  23.024   5.148   7.744  0.0233 -0.1279  0.0855
38430W        W47230   7.875   6.302  26.058  0.0911 -0.1154 -0.1772
38431W        W47231  18.030   1.735   6.753  0.3202  0.0305  0.2088
38432W        W47232   1.911   4.597  11.019 -0.1268  0.2209 -0.2549
38433W        W47233  18.971   6.473   7.085  0.2597 -0.1603 -0.1706
38434W        W47234   7.132   5.059   6.843 -0.1695  0.1871  0.0684
38435W        W47235  24.732   6.275  23.981  0.2436 -0.0936 -0.1219
38436W        W47236  23.139   2.710   9.925  0.0930  0.1281 -0.1827
38437W        W47237   9.640   2.693   7.470 -0.2586 -0.2042 -0.0648
38438W        W47238   3.816   5.765  33.230 -0.2927  0.0200 -0.2141
38439W        W47239  23.560   1.495  11.073  0.2600  0.1680  0.1163
38440W        W47240  12.697   2.551   0.783 -0.5769  0.0102 -0.0250
38441W        W47241   7.412   0.564   7.251 -0.1435 -0.2646  0.0792
38442W        W47242   5.670   5.522  27.704 -0.1323 -0.1159 -0.0306
38443W        W47243   7.863   0.597  14.347  0.0119 -0.2088  0.0520
38444W        W47244  12.950   0.823   6.883  0.2241 -0.2322 -0.1684
38445W        W47245   3.385   0.875  33.232 -0.0734 -0.3202 -0.3677
38446W        W47246   3.054   5.916   3.873 -0.2283 -0.0226 -0.0748
38447W        W47247  14.426   1.216  33.933  0.0595 -0.0526  0.1205
38448W        W47248  24.539   4.584  35.716  0.1221  0.3412 -0.0102
38449W        W47249  24.190   0.227  26.801  0.1201 -0.0948  0.1500
38450W        W47250   4.843   5.740  25.192  0.1815  0.0030  0.2171
38451W        W47251  22.924   2.020   5.878 -0.0920  0.0916  0.2269
38452W        W47252   1.057   3.752   4.841  0.1299  0.2279 -0.2022
38453W        W47253   2.457   4.623  33.332 -0.4889  0.0162  0.0867
38454W        W47254  22.279   2.304  25.573 -0.0500  0.1437  0.1749
38455W        W47255  23.448   4.198  36.060  0.3043 -0.5435  0.0002
38456W        W47256   4.730   3.168   0.283  0.0692  0.2451  0.0358
38457W        W47257  22.996   4.657  22.271  0.1157 -0.1273 -0.1386
38458W        W47258  19.785   2.960  25.319 -0.0445  0.0361  0.0250
38459W        W47259  22.846   1.194   5.334 -0.2020  0.3830 -0.2149
38460W        W47260  23.231   5.404  28.980 -0.0962 -0.0350 -0.2790
38461W        W47261  21.321   1.735  21.894 -0.1984  0.1571 -0.4294
38462W        W47262   2.165   0.782  26.825 -0.0535 -0.3754  0.1733
38463W        W47263  11.004   6.296  22.754 -0.1117 -0.1672 -0.0225
38464W        W47264   2.719   5.331  14.378  0.0850 -0.0893  0.1390
38465W        W47265  12.046   2.655  25.651 -0.3835  0.1108  0.0631
38466W        W47266  25.715   5.659  22.372  0.1472  0.0639 -0.0949
38467W        W47267  19.600   3.414   5.987  0.0679 -0.0738  0.1009
38468W        W47268   4.091   0.081   0.986 -0.0151 -0.0681 -0.3294
38469W        W47269  17.704   1.851  12.112  0.1550 -0.2148 -0.2395
38470W        W47270   0.319   6.528  34.011  0.0739  0.0817 -0.0984
38471W        W47271   2.921   1.624  28.418 -0.3139  0.1363 -0.1182
38472W        W47272  16.737   4.101  33.305 -0.0182 -0.0576  0.1957
38473W        W47273   6.961   5.834  25.940 -0.2666 -0.1155 -0.0366
38474W        W47274   4.135   1.588   1.138  0.1414 -0.0164 -0.1434
38475W        W47275  15.325   4.803  15.678  0.2273 -0.2481 -0.0527
38476W        W47276  25.942   4.017   6.338 -0.1038 -0.1267  0.1340
38477W        W47277  22.937   1.057  31.516  0.1520 -0.1905  0.0726
38478W        W47278   9.143   0.913  26.402  0.1350 -0.1746 -0.0144
38479W        W47279   1.890   1.211  30.062  0.1888  0.1421  0.2202
38480W        W47280   6.882   3.543  24.194  0.0454  0.0915 -0.2291
38481W        W47281   8.256   1.599   7.090  0.1113  0.0790 -0.1182
38482W        W47282   8.117   2.510  10.444  0.1912 -0.2673  0.2667
38483W        W47283  10.101   6.370  12.532  0.1335 -0.1024 -0.0432
38484W        W47284   2.106   1.744  12.356  0.0195 -0.2252 -0.0011
38485W        W47285   5.319   1.100   0.754 -0.0211 -0.2811  0.2751
38486W        W47286  24.584   4.332   5.589  0.0832  0.0080 -0.0884
38487W        W47287  18.754   2.440  14.197 -0.0321 -0.1336 -0.1246
38488W        W47288  10.407   2.830  21.898  0.0107 -0.1385 -0.1381
38489W        W47289  16.864   4.721   0.549 -0.0326  0.2161 -0.0649
38490W        W47290   3.383   4.864   7.882  0.0754 -0.2169  0.2672
38491W        W47291  13.906   5.023  15.594  0.0447  0.1990 -0.0458
38492W        W47292   2.809   4.030  35.673  0.1285 -0.0777  0.1124
38493W        W47293  16.750   0.630  21.513 -0.0585 -0.2124  0.2266
38494W        W47294   5.927   4.038  22.552 -0.0582 -0.2360 -0.0322
38495W        W47295   7.262   6.266   1.135  0.0089 -0.0639  0.1897
38496W        W47296   7.022   2.570   5.331  0.3272 -0.2695  0.1498
38497W        W47297  25.729   5.296   7.570 -0.1299 -0.0704 -0.2137
38498W        W47298  13.762   0.685  32.824 -0.2337  0.3968  0.3136
38499W        W47299  10.895   2.615  30.506  0.1092  0.0100 -0.2214
38500W        W47300  12.316   2.448  29.328 -0.1117 -0.0527 -0.1360
38501W        W47301  17.108   4.625  34.543 -0.2418 -0.0336 -0.2440
38502W        W47302  18.024   1.161   9.681 -0.2511 -0.0597  0.1983
38503W        W47303  24.743   3.106  15.446 -0.0051 -0.0303  0.1100
38504W        W47304   4.739   3.634  25.368 -0.1188 -0.0623 -0.1603
38505W        W47305  22.918   2.574  24.165 -0.0674  0.1433  0.0684
38506W        W47306  14.953   1.987  21.873  0.2136 -0.1847  0.0744
38507W        W47307  14.498   3.751  31.997  0.0842  0.2343 -0.0230
38508W        W47308   4.482   5.459  31.177 -0.0941  0.0879  0.2476
38509W        W47309  22.950   3.072   4.819  0.1280  0.3125 -0.2041
38510W        W47310  21.888   5.943  12.430 -0.0562 -0.3123  0.0302
38511W        W47311  20.381   5.052   3.469  0.0285 -0.1859 -0.1530
38512W        W47312   0.759   3.116   6.994  0.2859  0.1465 -0.0182
38513W        W47313   9.608   2.612  33.274  0.0351 -0.1226  0.0923
38514W        W47314   4.530   1.638   3.991  0.1416 -0.4328 -0.0360
38515W        W47315   4.604   4.518  33.973  0.0178 -0.2517  0.1820
38516W        W47316   2.729   3.498  25.508  0.0260  0.2497 -0.2902
38517W        W47317   3.665   4.899  14.132 -0.0104 -0.0230  0.1135
38518W        W47318  18.662   3.225  11.561 -0.1645 -0.3592 -0.1998
38519W        W47319  18.578   4.955  15.057 -0.2341 -0.0494 -0.0944
38520W        W47320  23.860   6.222   5.296  0.0295  0.0015  0.0695
38521W        W47321  22.064   0.426  10.810 -0.0456 -0.1508  0.1802
38522W        W47322  17.228   5.461   0.035 -0.3241  0.0489  0.0861
38523W        W47323   7.171   2.558  29.604 -0.2158 -0.0021 -0.1170
38524W        W47324   8.052   2.962  33.608  0.0692  0.1384 -0.0113
38525W        W47325   4.829   1.440   8.460  0.0059 -0.1422  0.0029
38526W        W47326   9.022   4.357  12.453 -0.0860 -0.0759 -0.0679
38527W        W47327   6.879   1.895   3.517 -0.0063 -0.1225 -0.1751
38528W        W47328   3.275   5.852  10.017 -0.3689 -0.0334  0.2362
38529W        W47329  24.197   3.274   4.493  0.1716  0.3182 -0.2538
38530W        W47330   7.936   5.952  11.801  0.0435 -0.0225 -0.1338
38531W        W47331  15.969   2.827  11.554 -0.1268  0.1150 -0.1960
38532W        W47332   0.459   2.595   5.134  0.0248  0.1496  0.1947
38533W        W47333  20.306   6.107  10.765  0.1060  0.1929  0.0024
38534W        W47334  26.394   3.468  11.333 -0.1543  0.0921  0.0942
38535W        W47335   1.540   4.172   3.332 -0.0276  0.0214  0.2516
38536W        W47336  25.733   1.598  31.083 -0.1556  0.1735  0.1872
38537W        W47337  11.108   0.091  31.701  0.3835  0.1226 -0.0670
38538W        W47338   5.236   3.478  35.373 -0.1990 -0.0473  0.0304
38539W        W47339   1.822   0.593  32.488  0.2449  0.1390  0.0524
38540W        W47340  26.062   2.755  14.422 -0.3708  0.0445  0.3167
38541W        W47341  10.112   4.225   9.842 -0.0267 -0.2231 -0.0650
38542W        W47342  21.995   3.163   4.422 -0.2930 -0.0979  0.1899
38543W        W47343  10.249   4.635  11.250 -0.0347  0.0360  0.1257
38544W        W47344   4.037   3.727   7.790 -0.0151  0.1687 -0.0411
38545W        W47345  13.723   3.882   5.976  0.0366  0.1475  0.2369
38546W        W47346  22.752   0.269  27.859  0.5954 -0.0620  0.0994
38547W        W47347  18.388   3.827   9.216 -0.0221  0.1378 -0.1495
38548W        W47348  17.940   3.520   0.386 -0.3038 -0.0503 -0.1897
38549W        W47349  21.595   3.508  13.685  0.0520 -0.1035 -0.1199
38550W        W47350   3.623   1.932  21.168  0.3735  0.3596 -0.0685
38551W        W47351  19.971   0.055  32.754  0.1834  0.0880  0.0341
38552W        W47352  20.023   2.463  31.025  0.0522 -0.0460 -0.0985
38553W        W47353  10.708   4.115  28.521 -0.1877  0.0460 -0.0312
38554W        W47354  21.750   0.041   6.759  0.2449  0.0759  0.2792
38555W        W47355   9.007   0.828   1.254  0.0986  0.2510  0.1944
38556W        W47356  23.734   1.052  27.109 -0.1332  0.1564 -0.0844
38557W        W47357   3.046   4.784   7.501 -0.0852 -0.1190 -0.0839
38558W        W47358  14.950   1.843  25.572 -0.1300  0.0472  0.0730
38559W        W47359  24.281   2.404  20.881  0.0268  0.1170  0.0220
38560W        W47360  16.668   4.023  10.923  0.0160 -0.1181  0.0428
38561W        W47361  20.302   1.044  35.970 -0.1106 -0.0228 -0.0717
38562W        W47362  19.900   6.059  31.141 -0.0108  0.1616 -0.1237
38563W        W47363  22.378   3.550   5.524 -0.0327 -0.0461 -0.0014
38564W        W47364  17.586   1.947  33.778 -0.2488 -0.2148 -0.1546
38565W        W47365  13.978   5.866   8.688 -0.1439 -0.1617 -0.0750
38566W        W47366  15.505   6.103  22.076  0.2073  0.0563 -0.1460
38567W        W47367  15.258   1.614  24.471  0.0552  0.1277 -0.1962
38568W        W47368   6.980   3.107  10.992  0.0763 -0.1403 -0.2740
38569W        W47369   8.395   3.774   5.843  0.2140  0.1375  0.2057
38570W        W47370  12.588   3.045  28.735 -0.0321 -0.0499  0.1504
38571W        W47371   8.445   2.949  30.625  0.0442  0.1396  0.1121
38572W        W47372   0.857   2.606   3.891 -0.0971  0.0801  0.0615
38573W        W47373   8.029   4.879  32.760  0.4241 -0.1592 -0.3807
38574W        W47374   8.710   0.270  34.464 -0.1777 -0.0568 -0.0158
38575W        W47375  13.035   6.117  32.128  0.2711 -0.1647 -0.0316
38576W        W47376   4.295   3.188  32.616 -0.2888  0.2454  0.2573
38577W        W47377  20.716   2.416   7.762 -0.0851  0.2572  0.1987
38578W        W47378  13.610   2.340  33.078 -0.0234 -0.0108  0.0365
38579W        W47379  21.612   0.560  24.662 -0.0446 -0.0783  0.1950
38580W        W47380  22.786   0.611  15.176 -0.0049 -0.1488 -0.0130
38581W        W47381   3.975   5.626   3.668  0.1410 -0.1870  0.1524
38582W        W47382   1.492   0.832  31.338  0.0972  0.2140  0.0907
38583W        W47383   4.963   4.345  28.885 -0.2997  0.1311  0.0649
38584W        W47384  10.885   2.030  26.148  0.1246 -0.4799  0.0028
38585W        W47385  22.284   5.215  13.281  0.2819 -0.0543  0.1227
38586W        W47386   0.727   4.081  22.248 -0.1804 -0.0219  0.3021
38587W        W47387  24.950   0.896   7.043  0.1511  0.1721  0.0775
38588W        W47388  13.156   1.339  34.255  0.0356 -0.0905 -0.1688
38589W        W47389   4.028   1.623  23.982  0.2604 -0.3764  0.1780
38590W        W47390  24.893   3.413  33.476 -0.2395  0.0890  0.2627
38591W        W47391  14.237   0.595  32.482  0.1743 -0.1463 -0.3974
38592W        W47392  10.061   1.322  29.821  0.0046 -0.0084 -0.1723
38593W        W47393  19.006   5.718  32.363  0.0396 -0.0391  0.2154
38594W        W47394   8.656   2.129  23.574 -0.2781 -0.1605  0.5093
38595W        W47395  10.885   0.033  29.233 -0.0258  0.0235  0.1244
38596W        W47396   3.308   5.651  29.378  0.0155  0.0014  0.3130
38597W        W47397  16.472   1.890  22.684  0.1257 -0.2586 -0.2144
38598W        W47398  10.947   0.108   3.926 -0.0982  0.0996 -0.1617
38599W        W47399  18.049   4.603  14.727  0.2383  0.0293  0.1341
38600W        W47400   4.236   2.912  31.444  0.0444 -0.2050  0.1734
38601W        W47401  25.112   0.324  32.965 -0.0282 -0.0320  0.0207
38602W        W47402   4.812   5.531  24.737 -0.1555 -0.1694 -0.3771
38603W        W47403  21.034   0.951  27.071 -0.0817 -0.1677 -0.2298
38604W        W47404   0.655   5.515  12.788 -0.1676 -0.1401  0.1531
38605W        W47405  13.041   1.046  23.955  0.1033  0.0808 -0.0419
38606W        W47406  21.607   5.665   3.097 -0.1699  0.0479  0.0983
38607W        W47407  26.158   5.444  34.085  0.2385  0.0923 -0.1305
38608W        W47408   6.396   0.895  30.201  0.3997 -0.1261 -0.0427
38609W        W47409  20.136   4.619  14.373 -0.1544 -0.0877  0.0936
38610W        W47410  23.890   1.465  10.704 -0.1035 -0.1323 -0.3635
38611W        W47411  25.726   2.325  33.615  0.0572  0.1761 -0.0188
38612W        W47412  19.746   4.426  26.508 -0.0491 -0.4738 -0.0208
38613W        W47413   7.479   4.140  24.777 -0.1312  0.0968  0.0465
38614W        W47414  11.138   6.087  32.864 -0.1661  0.1046  0.0214
38615W        W47415   5.263   1.022  29.005  0.0170  0.0224 -0.1994
38616W        W47416  12.819   0.211   5.728 -0.0621  0.0596 -0.1302
38617W        W47417   3.306   4.607   5.732  0.4338  0.1543  0.1103
38618W        W47418   3.683   3.885  22.050 -0.0368 -0.1499  0.1104
38619W        W47419  22.783   2.462   4.460  0.2014  0.3297 -0.0849
38620W        W47420  23.020   1.716  31.653 -0.3839 -0.0067  0.2217
38621W        W47421  11.636   0.913  10.692 -0.2732  0.3326  0.1037
38622W        W47422  23.897   5.641  33.170  0.0016 -0.1842 -0.1859
38623W        W47423  18.988   1.528   2.378  0.0580  0.3157 -0.0993
38624W        W47424   4.881   5.496   3.407 -0.0944 -0.0121  0.0082
38625W        W47425  15.484   0.827   6.922 -0.2074  0.3231  0.1535
38626W        W47426   3.420   3.396  10.059 -0.4540 -0.1783 -0.1020
38627W        W47427  22.904   3.677   9.460 -0.0449 -0.2515 -0.0853
38628W        W47428  17.323   2.952   7.265 -0.3225 -0.2346  0.0068
38629W        W47429   5.200   6.496  31.749  0.2630 -0.1037 -0.2065
38630W        W47430   4.424   1.426  13.552  0.3496  0.0742 -0.0754
38631W        W47431   9.572   4.920  13.022 -0.1888 -0.2502  0.0428
38632W        W47432  23.661   2.738  23.162 -0.1823 -0.1053  0.0461
38633W        W47433   3.022   6.584  10.702  0.0810  0.0531  0.0701
38634W        W47434  11.143   0.397  33.123 -0.0237 -0.1227 -0.1751
38635W        W47435   3.992   1.555  26.886  0.1758 -0.1292  0.1339
38636W        W47436   2.356   0.310  21.371  0.2627 -0.0745  0.0061
38637W        W47437  20.677   0.065   2.010 -0.1753  0.0177 -0.2907
38638W        W47438  13.095   3.175  11.180  0.4780 -0.1014  0.1658
38639W        W47439   9.747   1.551   5.267 -0.3267 -0.1143  0.1286
38640W        W47440   6.319   2.921  28.755 -0.1826 -0.0618  0.0137
38641W        W47441  15.002   1.834  27.902  0.1787  0.1202 -0.2756
38642W        W47442   3.367   2.485  25.214 -0.0079 -0.0765 -0.4016
38643W        W47443  18.660   4.387  33.351  0.2395 -0.0630  0.3019
38644W        W47444   8.310   2.438  28.185 -0.1248  0.2496 -0.1401
38645W        W47445  11.995   0.310   7.247 -0.4208  0.1835  0.3644
38646W        W47446   8.925   2.094   9.517 -0.1150  0.0797 -0.2106
38647W        W47447  10.119   1.467   2.542  0.2146 -0.1227 -0.2334
38648W        W47448  16.121   0.323  21.066 -0.2029 -0.0346 -0.0080
38649W        W47449  14.991   0.042  35.680 -0.0761  0.2167  0.1481
38650W        W47450  24.293   0.509  11.042  0.0063  0.2179  0.0155
38651W        W47451  25.073   1.967   4.118 -0.1983 -0.2419  0.1757
38652W        W47452  21.288   1.332   9.876 -0.4195  0.0373  0.1521
38653W        W47453  17.287   4.557  35.430  0.1389 -0.0265 -0.5132
38654W        W47454  26.393   6.204  13.796 -0.1684  0.0668 -0.1618
38655W        W47455  24.419   5.893  12.737 -0.1649 -0.1757 -0.0337
38656W        W47456  23.561   4.422  22.579  0.1132  0.1383 -0.0055
38657W        W47457   1.448   2.130  23.467  0.1276 -0.0849  0.2311
38658W        W47458  13.270   5.846  28.452  0.1616 -0.2757 -0.2905
38659W        W47459   5.893   3.502  15.636  0.1366  0.0220 -0.1939
38660W        W47460  13.915   5.364  24.351  0.2704  0.0522 -0.2956
38661W        W47461  25.626   0.171  28.975 -0.2968 -0.0047 -0.1961
38662W        W47462   6.045   5.832  30.007 -0.0706  0.0211  0.1101
38663W        W47463   6.429   2.808   2.724 -0.0886  0.0112 -0.5522
38664W        W47464  12.421   0.711   9.099  0.1504 -0.2415 -0.1403
38665W        W47465  14.464   6.581  26.123  0.1728  0.0774  0.0631
38666W        W47466  21.057   2.565   5.042 -0.0736 -0.0604  0.0955
38667W        W47467  15.311   2.912   2.595  0.0299 -0.0644  0.0081
38668W        W47468  13.004   3.283   3.066  0.3874  0.1707 -0.0727
38669W        W47469   6.604   4.447   5.294  0.0692 -0.1575  0.0630
38670W        W47470  22.038   1.012   0.264  0.0229 -0.0058  0.1286
38671W        W47471  23.367   6.217   9.712  0.4081 -0.0893 -0.0552
38672W        W47472  16.985   5.482  12.196 -0.1201  0.1899 -0.0499
38673W        W47473  18.786   4.835  20.768  0.1869  0.1314 -0.0953
38674W        W47474  25.518   2.363  11.262  0.0301  0.0017  0.0994
38675W        W47475  14.257   3.432  12.910  0.0268 -0.0134  0.2226
38676W        W47476   5.130   5.229  35.625  0.0825 -0.0189 -0.2256
38677W        W47477  13.433   3.515  14.517  0.0239  0.0751 -0.0264
38678W        W47478  12.207   0.373   5.072  0.1705 -0.1609 -0.2458
38679W        W47479  12.083   1.455  25.025 -0.3109 -0.2325  0.2162
38680W        W47480   7.689   5.840  11.205 -0.1283  0.1580  0.1721
38681W        W47481   1.797   1.319   4.460  0.1149 -0.2317  0.0302
38682W        W47482   3.646   1.928  27.111  0.0540  0.0361  0.0995
38683W        W47483   3.871   3.794  30.758  0.0236 -0.1820 -0.2728
38684W        W47484  23.711   5.477  35.506 -0.2574 -0.2946 -0.0939
38685W        W47485  21.585   6.013  21.465 -0.2796  0.0412  0.0215
38686W        W47486   2.902   2.329  27.402  0.0279  0.0785 -0.0008
38687W        W47487  20.543   5.153   8.892  0.2813  0.1289 -0.0736
38688W        W47488   2.346   0.612   4.448  0.0600  0.0398  0.2110
38689W        W47489  25.677   4.199  34.972  0.1197 -0.1978 -0.0449
38690W        W47490   6.266   5.324  32.685  0.0601 -0.1280 -0.0514
38691W        W47491   2.709   0.313  35.944 -0.0343 -0.1167  0.0717
38692W        W47492   8.048   2.679  35.017  0.1700 -0.1792  0.1358
38693W        W47493  24.416   4.778   6.789  0.0731 -0.2813 -0.2394
38694W        W47494   4.501   3.331   2.824  0.0013 -0.1506  0.0467
38695W        W47495  20.058   6.474  26.969  0.0979 -0.2179 -0.1978
38696W        W47496  25.728   3.473  24.192 -0.0526 -0.4020 -0.0293
38697W        W47497   2.646   2.729   9.979  0.2481  0.5087 -0.2934
38698W        W47498   9.688   0.495  28.105 -0.1265  0.1294  0.0135
38699W        W47499   4.650   1.022  10.836  0.0854  0.2157 -0.3237
38700W        W47500  22.678   0.697   2.843 -0.3534  0.0667  0.0873
38701W        W47501  14.535   2.728  34.966 -0.0161  0.1385  0.0565
38702W        W47502   3.813   1.219  30.211 -0.1001  0.0587  0.1695
38703W        W47503  25.374   5.613  25.555  0.0813  0.1253 -0.0056
38704W        W47504   1.793   2.214   8.704  0.0975  0.1919  0.1600
38705W        W47505  23.533   5.598   8.337  0.1127  0.0285  0.1832
38706W        W47506  13.060   2.589   9.128 -0.2644  0.2742 -0.1334
38707W        W47507  24.227   5.361   3.544  0.0201 -0.0020 -0.0087
38708W        W47508   9.975   5.157  33.471 -0.0120 -0.1155 -0.1815
38709W        W47509  19.592   3.017  12.036 -0.1761 -0.1226 -0.0474
38710W        W47510   5.879   6.393   6.491  0.2175 -0.0542 -0.0210
38711W        W47511  21.483   0.542  33.835 -0.1528  0.1301  0.0577
38712W        W47512  18.625   4.182   6.437  0.0504  0.0557 -0.3363
38713W        W47513   8.300   1.052  31.301 -0.2537 -0.3748 -0.1492
38714W        W47514   7.820   2.745  30.237  0.1650  0.1834 -0.0401
38715W        W47515  24.037   1.896   6.247 -0.2465  0.2594  0.2781
38716W        W47516   1.818   6.372  26.013 -0.1480 -0.4761  0.0539
38717W        W47517  24.510   0.226  26.278  0.0149  0.0337  0.1772
38718W        W47518   6.020   4.806  27.128 -0.1726 -0.1937 -0.0685
38719W        W47519   7.509   6.505  11.958 -0.0672  0.0954  0.0596
38720W        W47520   8.097   3.223  11.119 -0.0944 -0.2318  0.1768
38721W        W47521  24.058   3.680  31.663 -0.0287  0.0298 -0.1432
38722W        W47522   7.688   2.376   4.974 -0.0925  0.0426 -0.0118
38723W        W47523  13.254   3.149  30.873  0.1611 -0.0512  0.1196
38724W        W47524  13.428   5.567  32.616  0.1218 -0.1210 -0.2840
38725W        W47525  16.812   2.155  35.373  0.0981 -0.0564  0.0980
38726W        W47526   1.290   0.109   1.074 -0.0988  0.1301 -0.0582
38727W        W47527   7.575   1.923   7.543  0.1017 -0.2115  0.1708
38728W        W47528  13.983   1.588   6.106  0.1588  0.2759  0.3421
38729W        W47529  22.245   2.817  36.057  0.1803 -0.3003 -0.1062
38730W        W47530   1.744   3.507   1.651  0.0794  0.0293 -0.0304
38731W        W47531  13.526   5.512   2.372  0.1561  0.0483  0.0300
38732W        W47532  17.783   3.734  35.165 -0.1856  0.2608 -0.2158
38733W        W47533  17.790   1.013  29.783  0.0756  0.0584  0.0539
38734W        W47534  23.395   0.143  30.825 -0.1898  0.2163 -0.0283
38735W        W47535  25.152   0.852  14.639  0.0632 -0.0260  0.3649
38736W        W47536   0.272   4.328   5.269  0.1714  0.0238 -0.0911
38737W        W47537   9.409   1.799   9.105 -0.0139 -0.0512 -0.0038
38738W        W47538  20.861   5.782  26.540  0.0687  0.2184 -0.1152
38739W        W47539  12.784   0.568  34.516 -0.1966  0.2721 -0.1903
38740W        W47540  19.933   1.158   6.392 -0.1936 -0.0787  0.1269
38741W        W47541  21.639   3.079   9.006 -0.1132  0.1179  0.1400
38742W        W47542  17.098   6.175  11.589  0.1660  0.0210  0.0722
38743W        W47543  19.377   0.910   6.890  0.0335  0.0058 -0.2011
38744W        W47544  14.809   1.880   7.565  0.2528 -0.1090  0.0504
38745W        W47545   9.260   4.036   8.201 -0.5879 -0.0323  0.1744
38746W        W47546   1.043   3.867   5.717  0.3078  0.0175 -0.3790
38747W        W47547  26.385   5.219  35.514  0.1854 -0.0442 -0.1993
38748W        W47548   0.681   0.321  12.352  0.1279  0.1969 -0.0128
38749W        W47549   5.625   5.067  31.920  0.2429 -0.3142 -0.0648
38750W        W47550  23.670   4.769   5.497 -0.3076 -0.0715 -0.0735
38751W        W47551   7.259   1.911  24.273 -0.0918 -0.1450  0.0824
38752W        W47552   3.198   0.096  15.470 -0.0350  0.1062  0.0417
38753W        W47553  19.137   0.521  27.313 -0.0261 -0.1199 -0.0346
38754W        W47554   1.811   0.360  15.630 -0.1700 -0.1292  0.1545
38755W        W47555  12.192   6.057  31.353  0.0625 -0.4913  0.1029
38756W        W47556  22.523   5.756   4.145 -0.1463 -0.1651  0.1853
38757W        W47557  23.969   1.144   3.470 -0.0287 -0.0426 -0.1373
38758W        W47558  23.923   3.166  28.573 -0.1204  0.0624  0.1618
38759W        W47559   1.228   6.515   9.484  0.1423  0.0367  0.1798
38760W        W47560  13.134   2.731   9.952 -0.0424 -0.2704 -0.1602
38761W        W47561  15.472   2.795  31.078  0.0087  0.0163 -0.0762
38762W        W47562  20.195   6.107   7.049 -0.2849  0.0936 -0.1227
38763W        W47563  19.624   2.722  14.740 -0.0828  0.0572 -0.0014
38764W        W47564  19.113   5.274   0.062  0.1741 -0.0877  0.1204
38765W        W47565  25.258   5.967   8.334 -0.2416  0.1807  0.0403
38766W        W47566   1.046   1.968   4.242  0.2321  0.0189  0.0288
38767W        W47567  17.833   0.399   9.497 -0.2387  0.3004 -0.0393
38768W        W47568  14.118   6.362  30.284  0.0159 -0.2912  0.3130
38769W        W47569   0.088   4.195  32.414 -0.0556 -0.1047 -0.2544
38770W        W47570  20.997   5.200   1.231  0.0602  0.2882  0.0839
38771W        W47571  19.028   0.984   0.623 -0.2335  0.1341 -0.0531
38772W        W47572   0.599   0.833  32.555  0.0954 -0.0880 -0.0710
38773W        W47573   0.882   2.006  11.901 -0.0220 -0.0055 -0.4688
38774W        W47574  10.150   2.256  16.049  0.3349 -0.0128 -0.0975
38775W        W47575  17.906   0.813   8.806 -0.1761 -0.2855 -0.1577
38776W        W47576   0.881   0.727   8.296 -0.1326  0.0354  0.2521
38777W        W47577   1.849   3.284  25.164 -0.3598 -0.1788 -0.2397
38778W        W47578  24.573   3.366   7.531  0.2471 -0.0006 -0.0399
38779W        W47579  21.486   4.770  12.257 -0.0312 -0.1535  0.1352
38780W        W47580  26.321   2.674   7.578  0.0273 -0.0949 -0.2235
38781W        W47581   4.426   3.993   8.478  0.2694 -0.1581 -0.2171
38782W        W47582  26.392   5.465   8.470 -0.1571  0.1707 -0.1050
38783W        W47583   3.001   3.064  11.836  0.0129 -0.5212 -0.1495
38784W        W47584  18.269   1.817  12.964  0.0243  0.4196  0.2274
38785W        W47585  18.085   0.460   1.080 -0.0862  0.0477 -0.1280
38786W        W47586   6.308   2.774  29.641  0.0058 -0.0986 -0.3535
38787W        W47587   8.310   4.973  28.981 -0.1955 -0.1042 -0.1498
38788W        W47588  16.417   0.038   7.083 -0.2725  0.0252 -0.3291
38789W        W47589   2.723   3.225  21.910 -0.1336 -0.1973  0.0774
38790W        W47590  23.261   6.502  26.436 -0.1978  0.0282 -0.1092
38791W        W47591   2.829   0.664  32.411 -0.0158 -0.0416 -0.0944
38792W        W47592  16.425   3.337  30.883  0.1637  0.2438  0.1057
38793W        W47593  19.390   3.361  33.721 -0.0715 -0.2954  0.0819
38794W        W47594  21.198   5.994  21.139 -0.2173 -0.0304  0.1816
38795W        W47595  20.249   4.508  10.117  0.1350  0.0912 -0.0692
38796W        W47596   9.294   3.512  25.142  0.0416 -0.0164 -0.2247
38797W        W47597  14.949   3.731  31.450 -0.0459 -0.1789 -0.1199
38798W        W47598  14.946   6.034   2.218  0.4113 -0.2410  0.0131
38799W        W47599  12.981   5.506   3.834  0.1746  0.3328  0.4478
38800W        W47600  18.263   2.013  15.702 -0.1119 -0.2223 -0.1245
38801W        W47601  15.534   1.122   9.262 -0.0995 -0.0772 -0.0079
38802W        W47602  14.636   0.260  21.282 -0.4465  0.0732  0.2215
38803W        W47603   1.149   0.323   0.658 -0.0374  0.0845  0.2322
38804W        W47604   1.602   5.493   6.503  0.1976  0.1127 -0.2935
38805W        W47605  18.189   2.734  28.530 -0.1948 -0.0330  0.0284
38806W        W47606  24.734   3.340  10.581  0.0532 -0.4092  0.2315
38807W        W47607  11.916   1.075  11.981  0.3349 -0.2175 -0.1439
38808W        W47608  21.679   0.333  35.093 -0.0302 -0.1573 -0.1415
38809W        W47609   3.068   5.705  34.440 -0.2030  0.0608  0.1841
38810W        W47610   5.177   0.580  29.175  0.0035  0.0659  0.1412
38811W        W47611   0.932   5.980   7.988 -0.2003 -0.1461  0.0184
38812W        W47612  14.500   4.919  23.576 -0.1285  0.0859 -0.0971
38813W        W47613  15.026   6.181  21.819  0.1856  0.3846 -0.4694
38814W        W47614   6.423   5.498  14.900 -0.3022  0.1248  0.0634
38815W        W47615  13.186   0.368  11.421  0.1890 -0.1617 -0.0877
38816W        W47616   5.222   0.153  28.143 -0.0710  0.0364 -0.0206
38817W        W47617   8.038   2.867  22.585 -0.0268  0.2016 -0.1330
38818W        W47618  17.451   2.078  28.042 -0.0995  0.2120  0.0096
38819W        W47619  12.372   6.056  13.621  0.1357 -0.0005  0.2881
38820W        W47620  25.263   5.008  14.429 -0.1045 -0.0794  0.2160
38821W        W47621   5.067   4.517   5.382  0.0169  0.1418 -0.3055
38822W        W47622  10.902   2.354  24.118 -0.0823  0.1761  0.1682
38823W        W47623   2.946   1.503  31.089 -0.0016 -0.1140  0.0030
38824W        W47624  25.968   2.894  12.876 -0.1639  0.4045  0.0390
38825W        W47625  25.015   4.034   2.544 -0.0670  0.0141  0.0367
38826W        W47626   4.620   3.087  12.854 -0.0662 -0.0485 -0.1870
38827W        W47627   5.732   2.891  34.347 -0.0056 -0.0847  0.2495
38828W        W47628  18.183   0.449  22.020 -0.0062  0.0317 -0.1328
38829W        W47629   1.815   6.082  31.700  0.2709  0.1001  0.0467
38830W        W47630   2.467   5.461  25.126  0.2388  0.0723 -0.0777
38831W        W47631  14.086   5.910  35.508 -0.1481 -0.1683 -0.1371
38832W        W47632  20.809   1.705  35.859 -0.1251  0.1610  0.0392
38833W        W47633  16.055   5.814  10.373  0.1302 -0.0428 -0.2343
38834W        W47634   5.082   2.967  27.938  0.0650 -0.0772 -0.1029
38835W        W47635  21.406   4.807   5.682 -0.0109 -0.0486 -0.0753
38836W        W47636  25.697   0.133  23.176 -0.0314 -0.0255  0.3420
38837W        W47637  21.666   3.921   3.005  0.1493 -0.2750 -0.3213
38838W        W47638  10.240   6.229   6.438  0.5203 -0.2150  0.1290
38839W        W47639   5.121   1.903  13.044 -0.2141 -0.2752  0.0466
38840W        W47640   9.502   2.252   3.097 -0.1309  0.3624 -0.2528
38841W        W47641   1.889   5.772  13.221 -0.1560 -0.2372 -0.0851
38842W        W47642  18.029   1.465  21.275  0.1196  0.0523  0.2934
38843W        W47643  24.165   0.247  28.530 -0.0376 -0.2662  0.0991
38844W        W47644  13.767   4.509  35.648  0.2294  0.2214 -0.0533
38845W        W47645   4.877   5.228  20.806 -0.2904  0.0311  0.4223
38846W        W47646  11.895   4.857  22.462  0.3148 -0.0822 -0.3640
38847W        W47647  12.331   4.385  24.496  0.0189 -0.1052  0.0328
38848W        W47648   3.820   4.469   7.893  0.2495  0.0172 -0.0915
38849W        W47649   4.620   0.863  22.744  0.1866 -0.0062  0.0014
38850W        W47650  10.770   5.890   8.127  0.0723  0.3540  0.2182
38851W        W47651   5.225   0.509   9.713 -0.0069  0.1791  0.0541
38852W        W47652   8.068   2.480   8.687 -0.1548 -0.1351 -0.1560
38853W        W47653  24.257   5.861  10.617 -0.0456  0.0892  0.1414
38854W        W47654  14.440   5.811  13.248  0.3394  0.0915  0.2488
38855W        W47655  20.668   1.460  14.405  0.1135 -0.0547 -0.1174
38856W        W47656   9.454   1.190  11.268  0.1378 -0.2055 -0.1066
38857W        W47657  20.846   4.254   4.343  0.3425 -0.0702  0.3057
38858W        W47658  22.829   4.401  27.472 -0.0646 -0.0535 -0.3453
38859W        W47659  12.665   1.825  21.115 -0.0882 -0.0837  0.6192
38860W        W47660  14.976   1.636  28.338 -0.1129 -0.2165  0.0302
38861W        W47661  19.786   0.398  24.633 -0.1157 -0.1943 -0.1455
38862W        W47662  23.456   5.990   4.998 -0.1782 -0.0733  0.0931
38863W        W47663  15.263   0.224  24.429 -0.1666 -0.3248 -0.1651
38864W        W47664  24.356   5.460  31.656 -0.2417 -0.1444  0.2153
38865W        W47665  15.473   4.610  28.306 -0.1093  0.0359  0.0809
38866W        W47666   2.968   1.239  26.236 -0.2623 -0.2764  0.0965
38867W        W47667  20.205   1.732  34.867  0.1352  0.1075 -0.1737
38868W        W47668  19.755   4.920  20.446 -0.1816  0.1977  0.1482
38869W        W47669  19.921   5.769  29.097  0.0742 -0.0619  0.0603
38870W        W47670  12.729   5.208  28.124  0.2004 -0.1528 -0.0511
38871W        W47671   2.904   0.516  10.928 -0.1060 -0.0472  0.0015
38872W        W47672  23.552   5.123  24.325 -0.0303  0.0915 -0.0748
38873W        W47673   1.047   0.362  13.191  0.0814  0.3431  0.2740
38874W        W47674  22.998   5.145   9.624  0.1709 -0.3047  0.1193
38875W        W47675  25.386   0.573  26.292 -0.0200 -0.0807  0.0814
38876W        W47676   1.551   0.417  14.380 -0.0832  0.1511  0.4433
38877W        W47677  13.469   6.124   5.708  0.1166 -0.2436  0.3301
38878W        W47678   7.946   1.806  25.312 -0.0786 -0.1214 -0.1718
38879W        W47679  18.035   6.150  10.397 -0.0377  0.2983  0.0645
38880W        W47680   3.485   2.827  31.302 -0.2270  0.1021 -0.0041
38881W        W47681  14.309   3.132  34.821 -0.0094 -0.1280  0.0067
38882W        W47682   6.914   1.825  30.131  0.1124  0.0409 -0.1435
38883W        W47683   2.283   2.596  12.954 -0.0904  0.1371 -0.1693
38884W        W47684   2.156   2.418  24.618 -0.1615 -0.1508 -0.0764
38885W        W47685   3.951   1.222   1.471 -0.3386  0.1540  0.1626
38886W        W47686  14.192   5.427  23.582 -0.2526 -0.0692 -0.0506
38887W        W47687  18.719   6.186  22.143 -0.0876 -0.0654  0.1309
38888W        W47688  22.246   3.772  14.398 -0.0858  0.1301 -0.0013
38889W        W47689  15.413   1.924  28.374 -0.1414 -0.1553  0.0525
38890W        W47690  20.445   2.242  14.917  0.2686  0.1208 -0.0595
38891W        W47691  15.309   5.570  32.329  0.0726  0.1531 -0.0585
38892W        W47692   0.448   3.524  28.697 -0.1307 -0.1505  0.2584
38893W        W47693  20.811   5.596  34.607  0.2208 -0.0728 -0.2929
38894W        W47694  13.252   3.984  13.956 -0.2256 -0.1525 -0.1659
38895W        W47695   4.788   4.122  34.176 -0.0762  0.2652  0.2561
38896W        W47696  24.201   5.820   3.955 -0.0288  0.1355 -0.0613
38897W        W47697  11.735   0.706  25.817 -0.3121 -0.0418  0.2692
38898W        W47698  18.247   5.127  32.554 -0.1681  0.2207  0.2152
38899W        W47699  15.766   4.652  27.830  0.0132 -0.0219  0.2631
38900W        W47700   5.315   5.681  22.402 -0.3429  0.0429 -0.0915
38901W        W47701  22.261   4.945  22.719  0.3043 -0.1876  0.2329
38902W        W47702   9.897   5.976  32.668  0.2228 -0.0605 -0.1937
38903W        W47703   4.642   6.005  24.802  0.0243  0.1955  0.0896
38904W        W47704   3.397   3.266  10.543  0.0621 -0.0989 -0.0846
38905W        W47705  18.319   2.553   6.289  0.0703  0.0339  0.0081
38906W        W47706   3.340   1.429   2.558  0.1311  0.0064  0.0066
38907W        W47707   9.611   0.777   6.515  0.1572 -0.2278 -0.0538
38908W        W47708   7.797   1.611  32.143  0.1288  0.1322 -0.0166
38909W        W47709  11.126   3.762  21.806  0.1162  0.1074  0.2731
38910W        W47710   6.443   4.628   1.118 -0.2595  0.2700 -0.0419
38911W        W47711   2.095   2.530  28.323  0.1051 -0.2047 -0.1499
38912W        W47712  19.015   0.471  14.665 -0.1309 -0.0156 -0.1581
38913W        W47713  24.247   4.531  34.619  0.2566  0.0366 -0.2817
38914W        W47714   4.462   2.611  10.047  0.1359  0.0109  0.3596
38915W        W47715  18.438   2.513  31.086  0.2134  0.1063 -0.0901
38916W        W47716   4.119   5.859   4.804 -0.3184 -0.1796 -0.1003
38917W        W47717  10.297   3.966  35.282 -0.0958 -0.0642 -0.0484
38918W        W47718   3.529   4.814   2.499 -0.2491 -0.1847 -0.0355
38919W        W47719   1.927   5.973  34.126 -0.1399 -0.4511 -0.1131
38920W        W47720  24.623   5.875   3.564  0.0594  0.0989 -0.2956
38921W        W47721  10.410   0.911  12.319  0.1445  0.2668  0.2474
38922W        W47722   5.732   2.994  12.496 -0.0533  0.1296 -0.0710
38923W        W47723  13.123   4.134   2.407  0.0145 -0.0443  0.0041
38924W        W47724   9.977   5.138   1.750  0.0689  0.1417  0.4158
38925W        W47725  23.548   4.381   0.786 -0.1437  0.0827  0.1611
38926W        W47726  17.454   1.659  13.704 -0.0056  0.6249 -0.0338
38927W        W47727   6.358   2.457   4.769  0.1589 -0.1541 -0.2373
38928W        W47728   4.731   0.077  30.606 -0.1194 -0.0859 -0.2533
38929W        W47729   3.763   0.313  24.800  0.0248  0.0782 -0.0064
38930W        W47730  19.796   4.336  21.658 -0.1089 -0.0085 -0.1999
38931W        W47731  19.778   0.720   2.862 -0.2134  0.1523  0.1979
38932W        W47732  14.331   3.533  13.738 -0.2923  0.1852  0.3043
38933W        W47733  11.521   3.082  28.239  0.0881 -0.0206 -0.0776
38934W        W47734   7.445   2.455   2.926 -0.0720  0.1495  0.0473
38935W        W47735   8.554   2.058   6.981 -0.1132 -0.1882  0.0472
38936W        W47736   8.360   0.978  26.583 -0.2618  0.0847  0.0062
38937W        W47737  14.761   1.587   4.493 -0.1868  0.1128  0.1355
38938W        W47738  16.555   4.717  22.124  0.0019  0.2556  0.1262
38939W        W47739   8.054   3.070   0.253 -0.3617  0.0187 -0.1092
38940W        W47740  13.340   5.854  29.865 -0.1172 -0.0864  0.3728
38941W        W47741   3.780   4.020   6.264  0.3292  0.1837  0.1078
38942W        W47742  26.155   3.465  27.454 -0.3909  0.2817  0.1517
38943W        W47743  22.169   0.398  27.246  0.0814 -0.1381  0.1528
38944W        W47744   9.605   4.287  27.377  0.2678  0.1437 -0.1693
38945W        W47745  12.583   4.567  11.255  0.0446 -0.2007  0.2393
38946W        W47746  21.612   2.798   7.968  0.0377  0.1721  0.1312
38947W        W47747  15.488   6.398  29.705 -0.1191  0.0680  0.1027
38948W        W47748  23.216   0.461  14.375  0.1715 -0.2778  0.0921
38949W        W47749  19.961   0.391   9.990  0.0794 -0.0575 -0.2810
38950W        W47750  20.352   5.710  20.631 -0.1770 -0.0393 -0.0632
38951W        W47751   2.352   0.408   1.544 -0.0682 -0.2659  0.0806
38952W        W47752   7.565   3.498  22.560 -0.1303 -0.2055 -0.1883
38953W        W47753  18.439   6.332  24.844  0.1934  0.2181  0.4062
38954W        W47754  23.648   2.348  27.359 -0.0640 -0.2080  0.2270
38955W        W47755  12.495   2.369   4.206  0.0704  0.0770 -0.1889
38956W        W47756  25.511   4.370  12.865  0.2616  0.1331 -0.1090
38957W        W47757  22.110   0.828  31.674 -0.3894  0.0476  0.0615
38958W        W47758  12.326   2.603   9.535 -0.0735 -0.5462  0.2117
38959W        W47759   7.163   3.952  31.679  0.1354 -0.1304 -0.2191
38960W        W47760  18.919   1.803  10.864  0.1579 -0.1650  0.0403
38961W        W47761   4.741   5.734   7.578 -0.3237  0.0416  0.3436
38962W        W47762  14.482   0.340  34.499 -0.2849  0.0878  0.1084
38963W        W47763   1.419   4.245  21.902 -0.1118  0.1063  0.1137
38964W        W47764  17.099   0.528   7.185 -0.0174 -0.1336 -0.0238
38965W        W47765   7.465   0.472  15.896 -0.0344 -0.0782  0.0201
38966W        W47766   4.209   0.265  34.271  0.1917 -0.1206  0.2982
38967W        W47767  21.747   3.846   5.212 -0.3387 -0.0653 -0.3557
38968W        W47768  10.323   5.458   8.695  0.0263 -0.0431  0.2243
38969W        W47769  21.830   1.266  33.679 -0.1589  0.0977  0.0635
38970W        W47770   2.439   0.104   5.382 -0.0859  0.2087  0.1034
38971W        W47771   3.236   2.744  33.162  0.2558  0.0032  0.1174
38972W        W47772  23.973   1.435  30.118 -0.0784  0.0488  0.0269
38973W        W47773  22.496   3.801   8.027 -0.3443 -0.1434  0.2122
38974W        W47774   7.076   2.800  28.208  0.2967 -0.1595  0.0882
38975W        W47775  23.443   1.715  31.923  0.1828  0.0536  0.1006
38976W        W47776  17.768   3.879  24.330  0.0192  0.0991 -0.0104
38977W        W47777  18.595   2.979   6.198 -0.1407 -0.0158 -0.2510
38978W        W47778  16.269   0.907  22.512  0.0276 -0.0464 -0.1076
38979W        W47779  17.345   2.664  33.903 -0.0866  0.0185  0.0877
38980W        W47780  21.169   3.413  24.824 -0.1728  0.2256  0.0925
38981W        W47781  21.315   4.181  12.253  0.5069  0.0318 -0.0571
38982W        W47782  18.719   5.586   7.991 -0.0621 -0.2549 -0.0054
38983W        W47783  18.297   4.305  31.309 -0.0680 -0.0042 -0.0713
38984W        W47784  10.720   1.482  33.981  0.0999 -0.1369  0.0749
38985W        W47785   3.294   4.478  31.320  0.0855 -0.0450  0.3284
38986W        W47786  22.153   5.639  12.055 -0.0728 -0.1603  0.0408
38987W        W47787   2.237   1.574  14.974  0.0093  0.2515  0.1923
38988W        W47788  26.048   6.524  23.475  0.1782  0.0973  0.2583
38989W        W47789   5.532   3.741  22.391 -0.0090 -0.2048 -0.0637
38990W        W47790   5.000   0.101  23.128 -0.1597  0.1219  0.0776
38991W        W47791   7.887   2.721   0.997  0.4279 -0.0185 -0.0351
38992W        W47792  15.580   0.059  11.848  0.2042 -0.1858  0.1218
38993W        W47793   4.046   0.389  22.213 -0.4539 -0.0944  0.0600
38994W        W47794  10.916   3.950   6.874  0.0814 -0.0874 -0.1262
38995W        W47795  18.265   6.410  32.064  0.0221  0.3738 -0.2904
38996W        W47796  24.090   3.572  34.919  0.1376 -0.1436  0.1428
38997W        W47797  18.904   2.087  24.776  0.1287 -0.1857  0.0979
38998W        W47798   5.377   6.065  27.562  0.1234 -0.0239  0.3581
38999W        W47799  21.844   3.477   4.750  0.1025  0.0591 -0.1907
39000W        W47800  13.394   6.006  11.883  0.1491 -0.4438  0.3179
39001W        W47801  17.941   4.706  13.032 -0.3496 -0.0078  0.1158
39002W        W47802   9.156   1.443  14.833 -0.0830  0.4071 -0.0594
39003W        W47803   1.479   4.143   3.861  0.2407  0.2501 -0.0534
39004W        W47804  12.598   1.645  26.352  0.2804  0.0326 -0.3154
39005W        W47805  13.103   1.337  30.660  0.0237  0.0942 -0.1456
39006W        W47806  11.985   0.136  24.952  0.0482  0.2501  0.1540
39007W        W47807  23.502   1.353  10.443 -0.0209  0.3893 -0.0725
39008W        W47808   6.324   4.451  28.480  0.1907  0.3609 -0.0792
39009W        W47809   7.507   3.963  25.258 -0.0597  0.1889 -0.0327
39010W        W47810  25.525   2.789   5.460  0.2100 -0.0492  0.0043
39011W        W47811  21.105   1.394  25.047  0.0073  0.1536 -0.2836
39012W        W47812  21.892   0.878  22.045  0.0160 -0.1840  0.0204
39013W        W47813  18.452   4.924  23.469  0.3572  0.0143 -0.1462
39014W        W47814  17.620   5.658   8.067 -0.2562 -0.2999  0.3968
39015W        W47815   9.644   3.693  13.255  0.0532 -0.2708  0.0685
39016W        W47816  20.603   4.193   8.695 -0.2244 -0.0418  0.1016
39017W        W47817  16.396   1.912  11.116  0.0771 -0.0553  0.2879
39018W        W47818   2.663   4.706  35.642 -0.1803 -0.0320  0.1442
39019W        W47819  22.350   0.975  13.850 -0.0053 -0.0146  0.0606
39020W        W47820  11.805   2.377   9.533  0.1902 -0.1752  0.1779
39021W        W47821  23.133   2.514   4.093 -0.2703  0.0406 -0.0669
39022W        W47822   5.447   2.430  32.895 -0.0712  0.1800  0.3589
39023W        W47823  11.776   6.165  10.491 -0.3617 -0.0898  0.0222
39024W        W47824  11.919   1.361  22.926  0.0092 -0.0191 -0.2922
39025W        W47825  11.820   0.755   1.686 -0.3482  0.2908  0.0023
39026W        W47826  13.919   5.380   8.446  0.0723  0.0834  0.3361
39027W        W47827   9.836   0.272   0.833 -0.0449  0.0757 -0.1116
39028W        W47828  26.200   0.765  35.294 -0.0065 -0.1079 -0.0079
39029W        W47829   7.953   3.278  22.344 -0.4245  0.0146  0.0237
39030W        W47830  12.853   4.373  31.415  0.2341 -0.0738 -0.1843
39031W        W47831   3.776   0.909  24.491 -0.0083 -0.0038 -0.1930
39032W        W47832  24.401   1.167   0.821 -0.2644 -0.1831  0.1089
39033W        W47833   5.532   5.783   1.233  0.0373  0.0878 -0.1695
39034W        W47834   3.088   4.373  34.370  0.0362  0.1198 -0.3400
39035W        W47835  13.221   1.287  32.273 -0.1122 -0.0143 -0.1698
39036W        W47836   5.228   0.360  13.768  0.0052 -0.1310 -0.0204
39037W        W47837  20.916   6.295   5.996 -0.4913  0.1392 -0.0829
39038W        W47838   1.813   1.504  32.569 -0.2458  0.1551  0.1775
39039W        W47839   4.647   3.083  30.720 -0.1556  0.2506  0.1112
39040W        W47840  15.913   6.272   2.547 -0.2172  0.2477 -0.1190
39041W        W47841   2.798   2.363   4.603  0.0667 -0.3900  0.0336
39042W        W47842  21.711   5.890  32.466  0.1873 -0.0162  0.0804
39043W        W47843   1.559   5.199   3.064  0.0455  0.2591 -0.0297
39044W        W47844  16.074   2.499  13.008  0.0346  0.0558  0.1632
39045W        W47845  11.141   5.251   4.683  0.2330 -0.0447  0.1383
39046W        W47846   0.222   1.602  32.340 -0.2851 -0.0583  0.0959
39047W        W47847   7.390   1.911  31.903  0.0107  0.0689  0.1416
39048W        W47848  16.390   2.523  33.787  0.1210  0.2325  0.0051
39049W        W47849   2.094   2.739   2.406  0.1592 -0.2063 -0.1697
39050W        W47850   4.584   5.355   1.160 -0.1636 -0.2591  0.2854
39051W        W47851  20.296   5.461  29.948  0.1023  0.3514 -0.2337
39052W        W47852   3.532   0.032   8.873  0.2511  0.1720 -0.2378
39053W        W47853  21.182   4.748  29.725  0.0181  0.0138  0.0574
39054W        W47854   6.991   5.412  13.700 -0.2270  0.6116 -0.1231
39055W        W47855  17.830   3.493  13.887  0.3103 -0.0106 -0.1670
39056W        W47856   3.249   5.375   0.754 -0.0065 -0.0570 -0.0413
39057W        W47857   0.914   3.434   8.026 -0.0787  0.1291 -0.2318
39058W        W47858  18.456   1.926  25.936 -0.2905  0.0358  0.2915
39059W        W47859  23.993   2.494  30.537  0.1741 -0.4223  0.1692
39060W        W47860   6.531   2.639  21.982 -0.2055  0.1982 -0.0860
39061W        W47861  13.079   6.100  15.626 -0.1821 -0.1545 -0.2422
39062W        W47862   7.380   3.621  29.455 -0.0304 -0.0530  0.0290
39063W        W47863   9.955   3.341  34.079 -0.0694  0.1097  0.1430
39064W        W47864   5.492   6.229   4.606  0.3123 -0.3033 -0.2503
39065W        W47865  26.101   0.979   8.195 -0.1548 -0.1311 -0.1133
39066W        W47866  18.530   2.370  33.364  0.1295 -0.0892 -0.0142
39067W        W47867   9.586   1.816  35.508 -0.2181 -0.0693  0.1641
39068W        W47868  18.780   3.162   5.708  0.1592 -0.1075 -0.1008
39069W        W47869  20.847   2.046   1.340  0.0757  0.0573  0.1997
39070W        W47870   6.584   5.111  11.149 -0.3225 -0.0797 -0.0090
39071W        W47871  18.755   6.066  33.965 -0.3524 -0.0565 -0.0137
39072W        W47872  26.229   4.746  35.148  0.1575 -0.0306  0.1611
39073W        W47873   8.191   5.974  31.757  0.1484  0.2093  0.0928
39074W        W47874  14.153   4.909  10.591 -0.0988 -0.0719 -0.1452
39075W        W47875  14.156   3.516  29.231 -0.0745 -0.0764 -0.0835
39076W        W47876   5.112   2.137   2.642 -0.0101  0.0008  0.1174
39077W        W47877   6.267   4.385   1.561 -0.0022 -0.1901 -0.2542
39078W        W47878   1.031   3.741  31.300  0.1744  0.0232  0.0164
39079W        W47879  19.621   4.504  22.181  0.0729  0.0130  0.2982
39080W        W47880   7.235   0.881   3.113 -0.0534  0.0190 -0.0328
39081W        W47881  18.442   5.253  24.140  0.3880  0.0086 -0.1468
39082W        W47882  17.424   5.541  12.338 -0.0934 -0.0307 -0.0146
39083W        W47883  17.344   4.128  21.618  0.1344 -0.1797 -0.2251
39084W        W47884  21.576   6.387  26.572  0.0657  0.0000 -0.2175
39085W        W47885  17.830   2.060  13.067 -0.0451 -0.3532 -0.1857
39086W        W47886  11.967   2.786  15.320  0.3095  0.1020  0.4960
39087W        W47887  16.383   4.093   9.925  0.1339 -0.1993 -0.0176
39088W        W47888  13.977   5.063   4.800  0.2033 -0.1444 -0.0335
39089W        W47889  18.119   6.106  21.349  0.0989  0.4913  0.1551
39090W        W47890  21.974   0.164  32.579 -0.2911  0.3847  0.2207
39091W        W47891  10.377   4.539  14.207 -0.0922  0.3718  0.0849
39092W        W47892  16.560   6.312   1.810  0.1201  0.4658  0.1212
39093W        W47893  26.004   5.345  26.242 -0.1039 -0.0751 -0.2396
39094W        W47894   1.831   1.155  25.456  0.1727 -0.1153 -0.0744
39095W        W47895  12.167   5.478  35.739 -0.2080 -0.1007  0.0730
39096W        W47896   3.025   3.204  12.582 -0.0366  0.1410  0.0445
39097W        W47897  15.620   1.810   1.284  0.0843 -0.0147 -0.1054
39098W        W47898   6.750   4.008  27.847 -0.0938  0.1268 -0.1815
39099W        W47899  16.383   1.581  27.412 -0.1994  0.1590 -0.2218
39100W        W47900  15.667   3.445   8.808  0.3908 -0.0661  0.3510
39101W        W47901   1.309   0.087  11.042  0.1518  0.0586  0.1451
39102W        W47902  15.214   3.707  26.660  0.1951  0.2054 -0.2441
39103W        W47903   8.987   4.524  14.815 -0.0111  0.1638  0.1164
39104W        W47904   4.183   5.991   2.362 -0.3653  0.0436  0.2910
39105W        W47905  20.564   4.218   7.013 -0.2319 -0.0753 -0.2097
39106W        W47906  20.408   4.344  25.427  0.2317  0.1187 -0.3068
39107W        W47907   6.898   3.576   2.462 -0.1180  0.0809  0.1507
39108W        W47908   1.474   1.821  23.022 -0.0932 -0.2218 -0.1280
39109W        W47909  24.659   4.611  28.279 -0.0924 -0.1481  0.0609
39110W        W47910  26.253   3.196   7.488 -0.3117  0.0394 -0.1265
39111W        W47911  24.472   3.399  21.264 -0.0485 -0.2097 -0.0986
39112W        W47912   4.020   3.609  10.869 -0.0398  0.1269 -0.2262
39113W        W47913  11.249   4.299  33.359  0.0806  0.0666  0.2983
39114W        W47914   6.039   3.175   5.417  0.1342  0.0246  0.0745
39115W        W47915  10.240   0.812  23.464  0.2348  0.2770  0.2172
39116W        W47916  10.564   2.349  34.305 -0.2305 -0.0493  0.0740
39117W        W47917   2.416   1.526  27.546 -0.4297 -0.3151 -0.0082
39118W        W47918  14.104   2.549  23.248  0.1060  0.0335  0.1988
39119W        W47919   9.659   3.150  27.271 -0.0410 -0.0550  0.0125
39120W        W47920  11.010   1.220  28.622 -0.0342  0.2649  0.0277
39121W        W47921  24.332   4.987  32.321  0.2839 -0.2313  0.0175
39122W        W47922   7.879   4.796  13.460 -0.1495  0.3386 -0.1886
39123W        W47923   6.495   0.953   7.201  0.1845 -0.1556 -0.0146
39124W        W47924  19.311   2.811   2.339  0.1894 -0.0924 -0.0467
39125W        W47925  23.504   2.682   5.502 -0.2856 -0.2649  0.0350
39126W        W47926  14.265   3.553  15.347 -0.0803  0.1558 -0.1959
39127W        W47927  15.836   1.207  33.101  0.3263 -0.2255 -0.1486
39128W        W47928  25.493   4.951  11.941  0.0620  0.0470  0.1026
39129W        W47929  24.430   0.648  26.644  0.0999  0.2369  0.3668
39130W        W47930   0.867   0.778  27.493 -0.1776  0.2899 -0.2492
39131W        W47931  20.051   0.786  35.620 -0.0010 -0.0111 -0.0761
39132W        W47932  21.447   1.782  11.045 -0.0766  0.0265 -0.3355
39133W        W47933  23.825   2.399   0.293 -0.0835 -0.2136 -0.1976
39134W        W47934  15.524   3.853  11.454 -0.2027  0.2795  0.0160
39135W        W47935   1.734   3.179  27.120 -0.1761 -0.1819 -0.0089
39136W        W47936  16.984   2.440   0.112 -0.0983  0.0338  0.1280
39137W        W47937   2.389   3.687   0.894  0.0751  0.1321 -0.0031
39138W        W47938  17.574   0.289  22.048  0.0879  0.0464  0.2255
39139W        W47939  16.401   6.159  34.641  0.2604  0.3020  0.0580
39140W        W47940  11.592   2.454  11.554  0.0968  0.2027 -0.2192
39141W        W47941   4.488   5.622  34.760 -0.0162  0.1602  0.0902
39142W        W47942   1.768   6.078  20.923  0.0171  0.1669  0.2129
39143W        W47943   0.130   2.282  32.697  0.4455 -0.1791  0.1067
39144W        W47944  10.339   0.271   9.576 -0.0255 -0.0909  0.3453
39145W        W47945  21.968   2.268  14.119  0.0178 -0.1848  0.0309
39146W        W47946  15.990   3.603  14.575  0.0731 -0.1217 -0.0973
39147W        W47947  17.970   5.912   9.050 -0.0625  0.1745 -0.1247
39148W        W47948  22.140   2.300  31.726 -0.3427 -0.0080  0.1038
39149W        W47949   8.034   0.115  22.155  0.1733 -0.3666 -0.2844
39150W        W47950  14.893   0.704   9.771  0.0426  0.0761 -0.1274
39151W        W47951   3.442   1.086   1.372  0.2397 -0.0087  0.1031
39152W        W47952   5.021   5.151   7.396  0.1505 -0.2448 -0.0896
39153W        W47953  24.512   0.607   6.178  0.0069  0.0878  0.1899
39154W        W47954   8.609   4.546  21.822  0.0144  0.2667 -0.2156
39155W        W47955  18.035   3.514  22.672 -0.1495 -0.4556  0.0191
39156W        W47956  10.092   5.963  32.132 -0.1677  0.0746 -0.2639
39157W        W47957   8.702   6.378  25.577  0.0334  0.1017  0.1402
39158W        W47958   3.821   4.648  31.929  0.3090  0.2986 -0.1617
39159W        W47959   0.270   5.916   7.773 -0.1634  0.0367 -0.1236
39160W        W47960  22.924   6.583   5.568  0.1744 -0.4892 -0.1918
39161W        W47961   1.516   4.055   8.193 -0.0606 -0.2280 -0.0734
39162W        W47962  18.308   5.461  27.591  0.1815 -0.0956 -0.0160
39163W        W47963   8.310   4.369   1.537 -0.1684 -0.0444  0.0978
39164W        W47964  20.958   2.284  13.252  0.1945 -0.0542 -0.2353
39165W        W47965   9.579   0.626  11.771  0.5074 -0.2698  0.0586
39166W        W47966  15.915   4.303   7.532 -0.0321  0.2153  0.2316
39167W        W47967  20.734   1.144  28.546  0.3507  0.0585 -0.1566
39168W        W47968   1.541   3.671   7.013 -0.0183  0.1564 -0.0870
39169W        W47969  13.897   3.700   8.557 -0.0356  0.0448 -0.1656
39170W        W47970  23.819   2.556  33.663 -0.1429 -0.1668  0.1086
39171W        W47971   8.804   1.701  35.263  0.2055 -0.1543 -0.1170
39172W        W47972  24.956   2.677   4.443  0.1976  0.0292  0.0249
39173W        W47973   7.703   3.399  14.125 -0.2498  0.4084  0.0132
39174W        W47974  10.605   0.259  28.811 -0.1137 -0.4198  0.2498
39175W        W47975  12.252   2.127  10.432 -0.0713 -0.1133  0.0019
39176W        W47976  22.960   4.239  22.590  0.0689 -0.0895 -0.0053
39177W        W47977  14.102   1.291  11.560 -0.0934 -0.2996  0.1916
39178W        W47978   8.608   1.813   4.020  0.0057 -0.0255  0.1569
39179W        W47979   2.471   4.072   0.544 -0.1738 -0.1109  0.2499
39180W        W47980  18.768   1.513  33.199  0.1167  0.0880 -0.0382
39181W        W47981  24.350   0.683   8.269  0.0515  0.2798  0.1824
39182W        W47982   7.862   0.950  30.156  0.0751 -0.3488  0.2053
39183W        W47983   8.809   3.944  27.320 -0.1442  0.0923  0.0776
39184W        W47984   6.884   1.656   0.047 -0.0518  0.1656 -0.0862
39185W        W47985  11.659   2.504  30.218  0.1050 -0.3173  0.0689
39186W        W47986   4.016   4.935  34.607 -0.0514  0.2359  0.3934
39187W        W47987  13.444   4.743  33.898  0.3134 -0.0778  0.3225
39188W        W47988  13.084   3.176  13.286 -0.1194  0.0488  0.1258
39189W        W47989  17.000   3.886  28.473  0.0953 -0.1554 -0.4097
39190W        W47990  24.842   6.384   1.191  0.1043  0.0060  0.3189
39191W        W47991  10.873   0.541  31.729 -0.2907  0.1980  0.0921
39192W        W47992   8.122   2.252  20.185 -0.0973  0.0884  0.2289
39193W        W47993   1.780   2.683  30.211 -0.0755 -0.0686 -0.4386
39194W        W47994  10.071   6.338  22.559 -0.2189  0.0960  0.1365
39195W        W47995   6.789   2.608   2.443  0.0362  0.2480 -0.0228
39196W        W47996   3.991   0.574  33.970  0.2098 -0.1565 -0.1361
39197W        W47997   2.258   4.275  23.532  0.4121  0.1054  0.0607
39198W        W47998  12.217   2.820  13.090  0.1945 -0.0573  0.3063
39199W        W47999  21.244   2.954  21.993 -0.1233  0.2223 -0.0148
39200W        W48000   3.470   0.421  35.127  0.0202  0.2957 -0.0344
39201W        W48001  12.017   6.323  31.763 -0.3988 -0.0769  0.0157
39202W        W48002  16.605   1.275   2.496 -0.1837 -0.1472  0.3178
39203W        W48003  14.448   6.422  23.940  0.1004  0.2402  0.0464
39204W        W48004  25.814   4.181  31.116  0.0213 -0.0473 -0.3203
39205W        W48005  11.491   2.283   3.628 -0.0948 -0.1058  0.0655
39206W        W48006  18.396   4.902   3.920 -0.3134  0.1476  0.0237
39207W        W48007  25.413   1.629  26.581  0.1004 -0.1633  0.0522
39208W        W48008  18.153   4.748  23.061  0.0785 -0.3309  0.1225
39209W        W48009   7.014   4.483   8.696 -0.1047 -0.1066 -0.2026
39210W        W48010   7.502   2.642  31.311  0.4120  0.1998 -0.1550
39211W        W48011  23.157   0.268   4.076  0.2740 -0.1042  0.2270
39212W        W48012   0.658   4.154  20.516  0.1411 -0.1762  0.1372
39213W        W48013  11.110   0.549   2.169 -0.2405  0.2229 -0.0136
39214W        W48014   7.782   3.280   9.886 -0.0418  0.1023  0.1901
39215W        W48015   1.362   3.666  32.931 -0.2202 -0.1635  0.0689
39216W        W48016  10.824   1.983  35.539  0.0203 -0.2824 -0.0836
39217W        W48017  12.626   5.955   2.493 -0.4942  0.4480  0.4423
39218W        W48018   7.014   4.698  32.290  0.0407 -0.0808  0.2702
39219W        W48019   0.278   4.546   1.421  0.1703  0.3426 -0.3823
39220W        W48020  26.314   2.735  29.206 -0.0668  0.0212 -0.3841
39221W        W48021  24.052   4.277  11.325  0.0476  0.2519 -0.1832
39222W        W48022  13.832   1.055  28.905 -0.0052 -0.1573 -0.1167
39223W        W48023   1.733   5.628  26.591 -0.0774 -0.0311 -0.0308
39224W        W48024   0.501   0.715   9.535  0.1668 -0.0656 -0.0653
39225W        W48025  25.842   0.758  23.909 -0.2333  0.3431 -0.1330
39226W        W48026  26.371   5.454   4.402  0.2806  0.1902  0.1565
39227W        W48027   0.888   1.969  25.058  0.3434  0.2603 -0.2520
39228W        W48028   8.395   2.313  11.401 -0.0042  0.2066  0.0546
39229W        W48029   1.316   0.123   5.276  0.3691  0.0501 -0.1548
39230W        W48030  11.619   2.366   3.139 -0.3115  0.3130  0.3057
39231W        W48031  13.042   3.891  15.841 -0.3855 -0.2244  0.2748
39232W        W48032   3.927   1.262  28.404 -0.4083  0.0614  0.0982
39233W        W48033   3.018   0.215  34.233 -0.1724 -0.0863  0.1873
39234W        W48034  18.821   3.397   9.010  0.3302  0.0893  0.1511
39235W        W48035  14.009   2.857  32.730  0.0665 -0.0930  0.1881
39236W        W48036  22.956   2.677   8.351  0.0587  0.1727 -0.2515
39237W        W48037  15.335   6.404   9.658  0.2507  0.1033 -0.1499
39238W        W48038   9.916   2.109  15.144 -0.1824 -0.0173  0.0903
39239W        W48039  19.120   1.264  28.347 -0.0244 -0.1052  0.1507
39240W        W48040   8.524   5.728   8.748 -0.1474  0.1184  0.0541
39241W        W48041   1.481   0.027   4.452  0.1924  0.0678 -0.1930
39242W        W48042  10.180   6.077   9.337  0.1593  0.2583 -0.1444
39243W        W48043  13.568   2.697   8.003 -0.0892 -0.0997  0.1773
39244W        W48044   7.183   5.601  22.405 -0.0158  0.2478 -0.0927
39245W        W48045   4.003   6.074   5.353 -0.1087 -0.0409  0.1608
39246W        W48046  23.600   3.982  22.917  0.0721 -0.1603 -0.2064
39247W        W48047  23.269   1.826  24.244 -0.3251 -0.1584 -0.0272
39248W        W48048   9.613   0.780   3.293  0.0381 -0.0972 -0.1986
39249W        W48049   0.939   2.119   6.999  0.1609  0.2951  0.3930
39250W        W48050  13.235   1.505  23.665  0.3193 -0.0854 -0.1344
39251W        W48051  22.001   5.196  25.974  0.1300 -0.2156 -0.2035
39252W        W48052  13.988   4.759   1.979  0.0540  0.1759  0.1098
39253W        W48053   6.451   0.780  35.117 -0.1581  0.0692 -0.1034
39254W        W48054  15.826   0.691   7.964  0.1069 -0.1595 -0.1524
39255W        W48055  11.074   6.533  33.994  0.2044  0.1478  0.1045
39256W        W48056   7.735   1.131  26.885 -0.1132  0.0146 -0.4247
39257W        W48057  18.851   2.724   4.922  0.0412  0.0604  0.2825
39258W        W48058  11.729   3.913   1.952 -0.1452 -0.0372  0.0647
39259W        W48059  16.347   2.935  28.714  0.2574 -0.1036 -0.1310
39260W        W48060  24.606   0.972   9.000 -0.1871 -0.2208  0.0149
39261W        W48061   1.308   1.433  23.912 -0.0116 -0.0095  0.0009
39262W        W48062   3.194   3.262   0.539 -0.1216 -0.0777  0.2569
39263W        W48063  13.573   6.467  32.778  0.0064 -0.0680  0.3336
39264W        W48064  25.111   1.368  29.423  0.1235  0.1438  0.0622
39265W        W48065  25.336   2.033  32.312 -0.1487  0.0833 -0.1486
39266W        W48066  20.131   3.089   3.424 -0.0412 -0.1623  0.0958
39267W        W48067   9.396   6.464  27.464  0.0228  0.1528 -0.1027
39268W        W48068  16.865   0.229  14.758  0.0079  0.0302 -0.2101
39269W        W48069  11.828   6.090  14.409  0.0387  0.2305 -0.2252
39270W        W48070  14.830   3.590  15.666  0.2133  0.1155 -0.2022
39271W        W48071   3.629   5.113  30.980 -0.0245  0.1437  0.1807
39272W        W48072  22.917   2.041  12.775 -0.0142 -0.0819  0.0328
39273W        W48073  11.792   1.699  16.138  0.0195 -0.1781 -0.2613
39274W        W48074  16.764   6.433   3.564 -0.0446 -0.1173 -0.0432
39275W        W48075  10.126   5.968  12.117  0.1261 -0.2043 -0.1180
39276W        W48076  25.853   0.139  31.764 -0.2169 -0.0573  0.2430
39277W        W48077  23.981   0.588  35.495 -0.2955 -0.2743 -0.0721
39278W        W48078   0.895   0.640  13.702 -0.0207 -0.4481  0.2102
39279W        W48079  10.665   5.033   0.897 -0.0268 -0.1971  0.1175
39280W        W48080   9.322   5.771  13.538  0.1248 -0.3287  0.1661
39281W        W48081  11.200   2.009  15.344  0.1883 -0.0623  0.1488
39282W        W48082  23.939   1.721  13.206  0.1874  0.0482 -0.1328
39283W        W48083   2.392   3.083  27.534  0.0314  0.1737 -0.2434
39284W        W48084  11.257   2.782   8.793 -0.0044 -0.0966  0.2427
39285W        W48085  16.796   0.056  34.081  0.0652  0.1933 -0.1442
39286W        W48086   5.977   6.116  30.500  0.0515  0.1185 -0.0960
39287W        W48087   6.332   5.999   4.800 -0.2358 -0.0481 -0.0342
39288W        W48088  16.930   0.136  33.058  0.0829 -0.1600 -0.0341
39289W        W48089  22.295   3.603   0.593 -0.1901 -0.1040 -0.0990
39290W        W48090  24.689   6.163  11.694 -0.0091  0.0611 -0.5444
39291W        W48091   7.748   4.375  34.501 -0.0512 -0.1593  0.3266
39292W        W48092  24.815   5.471   2.228  0.2651 -0.1362  0.1623
39293W        W48093  10.106   4.333  27.465  0.2147 -0.1077 -0.0138
39294W        W48094   0.835   3.611  21.982  0.0018 -0.3017 -0.0790
39295W        W48095   8.563   3.334  28.793  0.1506 -0.2182  0.1537
39296W        W48096  20.737   4.924  12.389  0.0975  0.1809 -0.1298
39297W        W48097  15.402   0.716  26.237 -0.0832  0.0790 -0.0998
39298W        W48098   9.075   2.258   0.780  0.3614 -0.1518 -0.0153
39299W        W48099  20.571   6.584  10.640  0.3172 -0.1898 -0.0338
39300W        W48100   9.401   2.837  22.674 -0.1599 -0.3601  0.1566
39301W        W48101   5.775   5.211  31.468  0.0299 -0.0670  0.1275
39302W        W48102  24.899   1.563   6.187  0.1107 -0.0433 -0.2565
39303W        W48103  12.469   3.751  13.452 -0.1534  0.0678  0.0009
39304W        W48104   8.503   0.863  12.891  0.0942  0.1102 -0.1825
39305W        W48105   2.214   0.319  11.446  0.1169 -0.0106 -0.1426
39306W        W48106  20.731   0.561   2.387 -0.1563  0.1087 -0.1707
39307W        W48107  17.883   5.228  31.110 -0.1410  0.1103  0.1998
39308W        W48108  18.300   2.859   9.630 -0.2365 -0.2026 -0.0301
39309W        W48109   5.809   3.672  22.829  0.1929 -0.1010  0.0069
39310W        W48110   8.335   4.763  34.377  0.2248 -0.1700  0.1790
39311W        W48111  10.573   2.331  21.828 -0.0360  0.0733  0.4850
39312W        W48112  17.562   0.956   8.076  0.0349  0.2029 -0.2493
39313W        W48113  17.664   1.766   0.551  0.2658  0.1750  0.1463
39314W        W48114   0.678   0.875  23.708 -0.0860 -0.3126 -0.3917
39315W        W48115   2.661   6.197  23.982 -0.2399 -0.1823 -0.1383
39316W        W48116   3.404   1.086   5.137 -0.1595 -0.0109  0.0750
39317W        W48117  18.854   4.839  22.601 -0.1845 -0.2198 -0.0677
39318W        W48118  13.675   0.570  20.814 -0.1551  0.1690 -0.2202
39319W        W48119  16.752   5.879  31.965  0.1218  0.2365 -0.0976
39320W        W48120   1.820   1.784  33.283 -0.0487 -0.2242 -0.1539
39321W        W48121  16.339   4.491  33.574  0.0765 -0.2390 -0.2290
39322W        W48122   0.882   5.605  22.231 -0.0509 -0.0519  0.0722
39323W        W48123  19.228   0.437   2.164 -0.1887  0.3787  0.1985
39324W        W48124  15.961   4.026  15.437 -0.1881 -0.2176  0.3325
39325W        W48125   1.846   2.150   6.895  0.2299  0.0714  0.3939
39326W        W48126   9.070   4.240   6.849 -0.1020  0.0834  0.2071
39327W        W48127   2.242   1.822  30.553  0.1584  0.3733 -0.2401
39328W        W48128  19.735   3.320  33.051 -0.0339  0.1284  0.1099
39329W        W48129  10.424   5.938  12.550  0.0382 -0.3390  0.0718
39330W        W48130  21.015   2.936  15.931 -0.0695 -0.3393  0.1592
39331W        W48131   9.165   6.171   9.793 -0.0231  0.0262 -0.3154
39332W        W48132  15.652   2.266  27.670 -0.1740 -0.1105  0.3102
39333W        W48133  25.118   0.100  28.268 -0.4372 -0.0041  0.2708
39334W        W48134   5.609   3.016   4.728 -0.0511 -0.1595 -0.0453
39335W        W48135   9.566   0.383  10.070  0.2897  0.2194 -0.2433
39336W        W48136  23.613   3.677  24.263 -0.0449 -0.1651 -0.4313
39337W        W48137  20.336   4.170  30.935 -0.2198 -0.0839 -0.2989
39338W        W48138  17.432   1.463  11.885 -0.2251  0.0559  0.1932
39339W        W48139   7.777   1.663  33.694 -0.1582  0.0613 -0.0044
39340W        W48140  21.227   5.708  31.834 -0.1178  0.1808  0.0992
39341W        W48141   2.099   2.696   4.531  0.2455  0.0084  0.1206
39342W        W48142  11.469   2.182   1.152  0.0745  0.0143  0.0711
39343W        W48143   0.419   0.883  34.659 -0.1230  0.1534  0.1177
39344W        W48144  22.643   3.136   1.846  0.0898  0.0490 -0.1646
39345W        W48145   6.874   0.746  25.805  0.0939 -0.0605  0.0481
39346W        W48146   0.614   1.262   1.856  0.0474 -0.3293  0.3917
39347W        W48147  18.946   3.154  21.748 -0.0301  0.1203 -0.2643
39348W        W48148  20.838   5.454   7.534  0.0783 -0.1043 -0.3666
39349W        W48149  18.208   0.892  33.228  0.2765 -0.1764  0.0166
39350W        W48150   2.389   5.277   0.779 -0.2280 -0.0698 -0.4304
39351W        W48151   0.530   2.984  33.263  0.1437  0.1525 -0.1615
39352W        W48152   4.233   3.315  30.662 -0.1808 -0.1629 -0.2882
39353W        W48153  16.963   1.931   0.075 -0.0709  0.2993  0.2559
39354W        W48154  16.022   3.797   3.616  0.1322  0.0032  0.1071
39355W        W48155   4.797   1.239  29.979  0.0784  0.0210  0.2576
39356W        W48156  22.964   3.894  11.107  0.2062  0.0096  0.1145
39357W        W48157   7.730   0.695  29.696 -0.0146 -0.1204  0.3933
39358W        W48158  16.064   3.138   3.119  0.2235 -0.0583 -0.1235
39359W        W48159   9.117   5.574  28.752 -0.2984  0.2202  0.1099
39360W        W48160   6.754   1.203   5.642 -0.0360 -0.0572 -0.0942
39361W        W48161  20.276   3.037   6.453  0.1831  0.1832  0.2768
39362W        W48162  16.378   1.497  11.964 -0.1537 -0.2056 -0.0431
39363W        W48163   8.661   4.425  12.785  0.0558 -0.0259 -0.1472
39364W        W48164   9.799   6.473  26.743  0.0055 -0.0807  0.1877
39365W        W48165  16.784   5.881  35.591  0.1740 -0.1005 -0.2839
39366W        W48166  25.698   3.017  23.882 -0.1536  0.1853 -0.0353
39367W        W48167   9.468   2.536   3.490 -0.4420  0.0761  0.1707
39368W        W48168   6.828   0.308   4.422 -0.1223 -0.1955  0.1849
39369W        W48169  25.870   6.189   4.206  0.1389  0.0295 -0.3694
39370W        W48170  16.461   5.054   0.540 -0.0457 -0.2800 -0.1407
39371W        W48171  23.759   2.181  25.646  0.0964 -0.1009 -0.1095
39372W        W48172   8.516   1.763  13.047  0.1279  0.2485  0.3902
39373W        W48173  24.323   6.284  21.204 -0.0437  0.0307 -0.0446
39374W        W48174  25.941   2.043  15.151  0.0021 -0.0209  0.4788
39375W        W48175  17.191   6.432   0.957 -0.0176  0.3834 -0.1887
39376W        W48176  22.069   4.502  34.205 -0.2385  0.0245 -0.0002
39377W        W48177   9.341   3.440  30.609  0.0399 -0.1020 -0.0028
39378W        W48178  20.238   1.099  30.249 -0.0331 -0.0678 -0.3668
39379W        W48179  18.966   3.158  20.953 -0.2231 -0.0309 -0.0806
39380W        W48180  12.377   2.671  24.857 -0.1605  0.1755 -0.1863
39381W        W48181  12.489   5.695  21.142 -0.1139 -0.4738  0.0038
39382W        W48182  16.661   5.301   4.797 -0.0569 -0.0322  0.0851
39383W        W48183  13.826   5.817   7.595  0.3209 -0.0493 -0.0350
39384W        W48184  22.057   4.214   9.256  0.0288  0.0545 -0.0049
39385W        W48185   2.201   1.264  34.992  0.0257 -0.0368 -0.0509
39386W        W48186  18.826   5.335  30.144 -0.4949  0.0964 -0.0094
39387W        W48187  16.649   5.770  25.242 -0.0757  0.1692  0.1483
39388W        W48188  14.371   0.947  28.915  0.0660 -0.0349  0.2505
39389W        W48189  23.543   1.520   7.643 -0.0432  0.0422 -0.0734
39390W        W48190  18.597   2.473  21.271  0.0043  0.0178  0.1706
39391W        W48191  11.159   5.398  32.089  0.1154 -0.0569  0.0841
39392W        W48192  17.816   3.079  34.651 -0.2081  0.1270  0.1878
39393W        W48193   1.590   0.481   1.274  0.0531 -0.1497 -0.1876
39394W        W48194  21.879   5.966  25.419 -0.1306 -0.0012 -0.0846
39395W        W48195  17.275   2.802  20.916  0.1027 -0.1131  0.1768
39396W        W48196   3.603   2.699  28.013  0.0311 -0.1358 -0.0443
39397W        W48197   0.341   4.147  10.236  0.0230 -0.2974 -0.0289
39398W        W48198  14.734   1.622   9.843  0.0225  0.0846 -0.3634
39399W        W48199   3.135   2.181  23.756  0.2610 -0.0648 -0.2589
39400W        W48200   7.865   1.277   8.222 -0.0059 -0.0636 -0.3489
39401W        W48201   5.320   4.632  34.424  0.0488 -0.1214  0.1778
39402W        W48202  20.912   1.318  33.865 -0.0630  0.2213 -0.0695
39403W        W48203  25.712   0.163  10.627  0.2872 -0.2797 -0.1626
39404W        W48204   8.305   5.710  10.228  0.1311 -0.1599 -0.2454
39405W        W48205   5.583   1.462  13.867 -0.0397  0.0587 -0.0610
39406W        W48206  23.350   2.640   8.726 -0.2081 -0.0969  0.0726
39407W        W48207  16.078   4.036  35.748 -0.0591 -0.1291  0.0623
39408W        W48208  22.733   5.640  21.801 -0.2642 -0.2147  0.1730
39409W        W48209   0.194   0.269   0.013 -0.0086  0.3774  0.2344
39410W        W48210   9.896   5.585  32.417  0.2536  0.1110  0.4680
39411W        W48211  25.450   2.385   2.038 -0.3000 -0.2837  0.2220
39412W        W48212  18.531   5.890   8.963  0.2110 -0.0075  0.3457
39413W        W48213   6.020   0.217   7.842  0.2442 -0.0045 -0.0266
39414W        W48214  17.284   3.241  15.042  0.0972 -0.0090 -0.1305
39415W        W48215  18.065   5.186  13.852  0.1709 -0.1710 -0.1101
39416W        W48216   6.498   5.641  33.590 -0.0137 -0.1579  0.4219
39417W        W48217   0.794   3.275  33.830  0.1570 -0.0948 -0.3335
39418W        W48218   0.058   3.236  21.323 -0.0579  0.2298 -0.0330
39419W        W48219  11.880   3.725   1.333 -0.0201  0.1165 -0.2211
39420W        W48220  19.457   0.407   4.943  0.2719  0.2311  0.2826
39421W        W48221   9.006   3.352   2.771 -0.1112 -0.3637  0.0004
39422W        W48222  15.979   2.445   5.735  0.2414 -0.3038  0.3706
39423W        W48223   8.495   3.088   7.280 -0.2703  0.1403  0.1370
39424W        W48224  10.266   3.631   7.345  0.2845  0.0345 -0.1555
39425W        W48225  11.230   2.748  10.194  0.1766 -0.1348  0.0198
39426W        W48226   6.843   4.837  29.901 -0.2245  0.0475  0.3030
39427W        W48227  20.603   6.007   8.405  0.2632 -0.0059 -0.1214
39428W        W48228   7.383   4.444   8.145 -0.0957  0.0004 -0.0657
39429W        W48229  20.305   1.671  14.244 -0.0710 -0.0614  0.1806
39430W        W48230   3.259   1.850  12.360 -0.2122 -0.2761 -0.2488
39431W        W48231  25.979   1.524  21.717  0.1574 -0.3591  0.0780
39432W        W48232   5.961   1.319  13.571 -0.1046 -0.2260 -0.1013
39433W        W48233  10.776   5.115  33.112 -0.1673 -0.3689 -0.2236
39434W        W48234   4.060   5.582  26.300  0.2933 -0.3325  0.1243
39435W        W48235  24.794   1.294  31.302 -0.0294  0.1094  0.0218
39436W        W48236   0.713   6.469  22.436  0.2638  0.1464  0.0889
39437W        W48237  22.798   3.839   7.267  0.0942  0.0737 -0.0410
39438W        W48238   5.161   3.826  31.217  0.1857 -0.0295 -0.1456
39439W        W48239  10.727   4.228  30.038  0.2610  0.1516 -0.0765
39440W        W48240  11.255   0.002   3.521 -0.3228 -0.0685 -0.0988
39441W        W48241   8.363   2.943  15.889 -0.1686  0.1680 -0.2403
39442W        W48242   7.181   0.509  21.180 -0.1010  0.1373  0.2007
39443W        W48243   2.585   2.038   7.968 -0.1177 -0.4482 -0.0872
39444W        W48244   1.853   3.797   3.181 -0.0593  0.1373  0.3769
39445W        W48245  10.412   4.648  14.870  0.0941 -0.4772 -0.2239
39446W        W48246  10.826   6.367  25.451 -0.4548  0.0017 -0.1903
39447W        W48247  11.609   6.057  21.730  0.0172 -0.1717 -0.0888
39448W        W48248  20.516   1.966  21.614  0.2972 -0.3056  0.1324
39449W        W48249  14.179   5.598   0.579 -0.0073 -0.0777 -0.1583
39450W        W48250  15.383   2.726  12.213  0.0832  0.3871 -0.0789
39451W        W48251  22.510   6.495   1.963  0.2481 -0.1250 -0.1707
39452W        W48252  21.525   5.494  30.837 -0.2082  0.1891 -0.0764
39453W        W48253   4.766   0.642  10.426  0.2246  0.1303 -0.2494
39454W        W48254  10.496   6.120  13.011 -0.0757 -0.2724  0.1128
39455W        W48255  20.792   2.800  10.496 -0.1642  0.2195  0.3182
39456W        W48256   9.457   5.643  22.789  0.0934 -0.2207  0.0661
39457W        W48257  14.692   2.649   3.076 -0.0373 -0.2131  0.0448
39458W        W48258  19.248   2.904  31.396  0.2295 -0.1716 -0.0679
39459W        W48259   2.392   0.724  27.409  0.2238 -0.0264 -0.1067
39460W        W48260  24.612   1.550  25.667 -0.0665 -0.2588  0.0860
39461W        W48261  18.373   6.200  29.617  0.3618 -0.0801  0.1302
39462W        W48262  20.162   2.434  27.343  0.2692 -0.2751  0.0174
39463W        W48263  23.287   5.638  35.579  0.0989 -0.1268 -0.0368
39464W        W48264  13.594   3.193   7.341 -0.0006  0.1672  0.4915
39465W        W48265  10.356   2.474  24.088 -0.3587 -0.2009  0.3011
39466W        W48266   6.808   3.110  32.185 -0.1380 -0.2271  0.0916
39467W        W48267  19.444   4.759   5.019  0.4526  0.0452 -0.0871
39468W        W48268  17.766   4.875  12.507  0.1028  0.0867  0.0772
39469W        W48269  15.950   2.265   9.502  0.0480 -0.0150  0.1972
39470W        W48270  23.546   2.259  29.896 -0.1296 -0.1692  0.0708
39471W        W48271   8.650   0.025  22.213  0.0134 -0.0759  0.2814
39472W        W48272  17.705   0.020  28.446  0.1764  0.0456  0.3836
39473W        W48273  12.640   2.253  25.026 -0.2725  0.1847 -0.2328
39474W        W48274  22.874   1.956  29.216 -0.2521  0.3231 -0.1769
39475W        W48275  22.773   3.806   6.143 -0.2148  0.4038 -0.1377
39476W        W48276  22.925   6.249   8.315  0.1247 -0.0240  0.0599
39477W        W48277   5.729   4.971  27.718  0.0152  0.0299  0.1848
39478W        W48278  18.989   5.790  31.808  0.0026  0.3335  0.2132
39479W        W48279   4.669   0.095  23.864 -0.2585  0.3364  0.1125
39480W        W48280  23.266   5.133  34.331 -0.1789  0.0593 -0.2233
39481W        W48281  12.169   6.071   7.674  0.1749  0.2449  0.0292
39482W        W48282  14.386   2.024   9.941 -0.0243 -0.0427 -0.3998
39483W        W48283   1.085   3.330  29.626 -0.0621 -0.1836 -0.0838
39484W        W48284   7.639   3.370   4.290  0.1655  0.4866 -0.3260
39485W        W48285  25.591   2.618   9.658  0.3413 -0.0930 -0.0599
39486W        W48286  23.778   4.508  34.154  0.1330  0.0639  0.1955
39487W        W48287  24.729   2.008  12.099  0.0290  0.1464 -0.0055
39488W        W48288  15.300   0.260  14.105  0.2304 -0.0126  0.1190
39489W        W48289   1.236   6.227   6.276 -0.0976 -0.0316  0.2356
39490W        W48290  23.724   2.447  12.178 -0.0564 -0.4400  0.0018
39491W        W48291   3.141   0.682   8.549 -0.0647 -0.2997 -0.0389
39492W        W48292   1.691   5.265  36.049  0.2699 -0.2672 -0.0736
39493W        W48293  17.513   6.321  11.872 -0.1387  0.0890  0.2661
39494W        W48294  25.502   0.967  14.280 -0.1352  0.2579  0.3320
39495W        W48295  23.031   3.369  10.275 -0.2329  0.3100 -0.1465
39496W        W48296  11.891   2.552   4.890 -0.3507  0.0338 -0.3393
39497W        W48297  21.386   1.426  28.013 -0.0027  0.1510  0.1885
39498W        W48298  24.429   1.747  13.072 -0.3553 -0.2199 -0.0888
39499W        W48299  10.537   1.979  11.634 -0.2457  0.1585 -0.0033
39500W        W48300  16.666   2.445  21.314  0.5237 -0.0011  0.0995
39501W        W48301   5.524   0.259   5.513  0.1884  0.0098 -0.1429
39502W        W48302   0.225   3.850   7.023 -0.2680 -0.0709 -0.3048
39503W        W48303   2.423   2.633  22.413 -0.0359  0.0374 -0.1167
39504W        W48304  13.118   2.876  24.409  0.2223 -0.1969  0.3656
39505W        W48305   3.165   0.361  32.660  0.1860  0.1911 -0.1887
39506W        W48306   9.112   3.937  10.039 -0.0853  0.2119  0.0670
39507W        W48307   8.257   2.084   4.283 -0.2627  0.0788  0.1958
39508W        W48308  11.891   5.461  12.816  0.0444  0.2836  0.0289
39509W        W48309   9.282   6.418   1.963  0.0430 -0.3299  0.1390
39510W        W48310  19.569   1.289  21.614  0.1037 -0.0449  0.2674
39511W        W48311   1.452   1.192  32.247 -0.0666 -0.2194  0.1736
39512W        W48312   7.018   0.164   7.156 -0.0198 -0.1844 -0.1482
39513W        W48313  22.551   4.631  13.128 -0.0703  0.1287 -0.0378
39514W        W48314   1.527   2.556   3.274 -0.1862 -0.1061 -0.0062
39515W        W48315  13.232   1.040  22.594  0.0357  0.2163  0.0352
39516W        W48316  20.757   0.529  11.550  0.1175  0.2129  0.0652
39517W        W48317   5.949   4.394   4.649 -0.1022 -0.1339  0.3507
39518W        W48318   5.950   2.427  31.224  0.4028  0.2645  0.1061
39519W        W48319   4.543   3.170   4.944 -0.0434 -0.0482  0.2271
39520W        W48320  24.096   2.877  22.462  0.3450 -0.3804  0.1719
39521W        W48321  12.977   0.448  32.830 -0.0400 -0.3665 -0.1281
39522W        W48322  12.245   4.541  34.179  0.2646  0.1428  0.0899
39523W        W48323  18.258   5.952   3.115 -0.0557 -0.0471 -0.1529
39524W        W48324   6.724   2.709  31.835  0.0530  0.1335  0.3528
39525W        W48325   3.844   1.624   3.170  0.0504  0.0265  0.0056
39526W        W48326   5.274   3.144   2.591 -0.1084  0.1865  0.5016
39527W        W48327  16.307   4.431  34.162  0.3088 -0.2518 -0.1505
39528W        W48328   2.421   0.786   9.653 -0.0363 -0.0957  0.1589
39529W        W48329  15.805   3.307  29.811  0.5579  0.3961  0.0718
39530W        W48330  22.329   5.782   9.205  0.0516 -0.1483  0.1373
39531W        W48331  21.560   4.472  11.862  0.0210 -0.0765  0.0171
39532W        W48332   9.819   5.341  29.044 -0.0471  0.2447 -0.1745
39533W        W48333  13.233   3.645   6.131  0.0265  0.2760 -0.2003
39534W        W48334  20.504   0.100  34.571 -0.0827 -0.0250  0.3119
39535W        W48335  11.150   2.088  35.169  0.0332 -0.2285  0.1386
39536W        W48336   4.057   2.931   2.568  0.0203 -0.2643 -0.0864
39537W        W48337  10.545   0.734  28.365  0.2048  0.0228  0.0989
39538W        W48338   6.004   6.047   9.736  0.0012  0.1481  0.0923
39539W        W48339   5.320   1.683  11.294 -0.0177  0.1481 -0.3614
39540W        W48340  15.336   1.944   0.916 -0.0862 -0.0236  0.0842
39541W        W48341  23.873   6.491  29.975  0.1115 -0.0658  0.1895
39542W        W48342  22.934   5.664  21.083 -0.1799  0.3868 -0.1118
39543W        W48343  13.872   0.136   9.939  0.0049 -0.1606 -0.0359
39544W        W48344  13.189   2.429  26.308 -0.1873 -0.1414 -0.0278
39545W        W48345   3.667   0.472  21.729 -0.0044 -0.1891  0.1126
39546W        W48346   0.374   5.819   2.701  0.3630  0.0537  0.2081
39547W        W48347   7.255   0.667  14.912  0.1169  0.0603  0.0268
39548W        W48348   3.321   0.795  13.056 -0.0770  0.1360  0.0389
39549W        W48349   3.612   4.160  32.047  0.0592 -0.2430 -0.1508
39550W        W48350   9.610   4.271  21.948  0.1890 -0.0852  0.1630
39551W        W48351  15.268   2.917  34.518 -0.0656  0.0918 -0.0299
39552W        W48352  24.219   3.041  30.569  0.0718  0.3898  0.1545
39553W        W48353   3.045   6.240   8.536 -0.3345 -0.0191  0.0978
39554W        W48354  19.789   4.173  25.561  0.0313 -0.0837 -0.0742
39555W        W48355   2.667   0.082  22.255  0.0136  0.0314  0.5854
39556W        W48356  25.121   6.073  33.178 -0.1332 -0.2226 -0.2734
39557W        W48357  21.798   3.373   8.655 -0.1543  0.0759  0.2477
39558W        W48358   9.334   5.501  15.057 -0.0642  0.0496  0.0283
39559W        W48359   5.307   0.158   3.713 -0.0994 -0.0455  0.1963
39560W        W48360  16.882   5.890  11.227 -0.1498 -0.2454 -0.1923
39561W        W48361   6.866   1.897   1.827  0.0048  0.2348 -0.1944
39562W        W48362   0.176   1.728  31.402 -0.1895  0.1200  0.2345
39563W        W48363  15.206   0.617   1.819 -0.2447  0.0768 -0.1378
39564W        W48364  25.098   3.093   4.618 -0.0176  0.1411 -0.0254
39565W        W48365  14.146   2.037  27.333 -0.1157  0.0251  0.0999
39566W        W48366   8.152   0.557  33.010  0.3273  0.2774  0.3041
39567W        W48367   0.284   1.449   6.485 -0.1893 -0.1925 -0.1325
39568W        W48368  17.837   0.548  28.831 -0.2692  0.3363 -0.0631
39569W        W48369  22.749   1.409   2.127 -0.0330 -0.0124  0.1454
39570W        W48370  23.596   5.429  28.054 -0.1726  0.3328  0.3661
39571W        W48371   0.578   4.212   6.951  0.0186 -0.0566  0.0364
39572W        W48372  17.911   4.841   6.433 -0.1029  0.0167  0.1063
39573W        W48373  17.429   1.121  26.877 -0.0995  0.0605  0.0844
39574W        W48374   5.011   6.424   9.769  0.1220  0.1162  0.1277
39575W        W48375  20.690   6.260  11.067  0.1872  0.2507 -0.0400
39576W        W48376  24.532   4.678   1.994 -0.1086  0.1374  0.1001
39577W        W48377   7.140   5.054  27.682  0.3119  0.1906  0.0847
39578W        W48378  24.557   2.722  10.493  0.1214 -0.1843 -0.1388
39579W        W48379  20.219   4.458  29.527 -0.5582 -0.0372  0.0706
39580W        W48380   8.465   3.441   2.537 -0.1956  0.2334  0.2810
39581W        W48381   3.992   0.053   3.879  0.1921 -0.1864 -0.0232
39582W        W48382  21.179   5.922  26.080 -0.0784  0.0621 -0.0625
39583W        W48383  24.560   3.978  27.688 -0.1882  0.0669  0.1981
39584W        W48384   6.572   2.931   6.458  0.1830 -0.2240  0.0896
39585W        W48385  16.146   4.614  22.386  0.2649 -0.1222 -0.0843
39586W        W48386   1.536   5.640   9.057  0.2228 -0.0282  0.0266
39587W        W48387  10.494   5.740   7.789 -0.0489 -0.1002 -0.1274
39588W        W48388  21.815   3.600   9.935  0.3331  0.0291  0.3580
39589W        W48389  13.877   2.320  22.736 -0.2800  0.0896  0.0617
39590W        W48390  19.809   6.307   2.115 -0.0731 -0.0100  0.1265
39591W        W48391   3.109   1.959  29.301  0.2015 -0.0175 -0.0937
39592W        W48392   3.795   4.790   3.730  0.3618 -0.1117  0.1441
39593W        W48393  16.245   5.423  27.721 -0.0551  0.2087 -0.0176
39594W        W48394  16.210   5.195  11.208  0.2415  0.0330 -0.0826
39595W        W48395  25.973   3.185  33.007 -0.0545  0.0669 -0.2428
39596W        W48396  10.237   4.612   7.160  0.0741  0.0662 -0.2360
39597W        W48397  22.117   6.027   3.746  0.0262 -0.1037  0.0114
39598W        W48398  10.256   2.802   2.640  0.1347 -0.1685 -0.2614
39599W        W48399  14.102   3.521  21.900  0.1783  0.1372 -0.1131
39600W        W48400  10.591   2.205  32.241  0.0150  0.0989  0.0612
39601W        W48401   2.969   4.758  34.006  0.1935 -0.0696  0.1586
39602W        W48402  14.244   3.301  23.625  0.0550 -0.0150  0.1290
39603W        W48403   1.942   2.708  21.968 -0.1732 -0.0246 -0.1218
39604W        W48404  24.461   5.921  21.878  0.0222  0.0495 -0.3228
39605W        W48405   9.329   4.469  12.862 -0.2610  0.1865  0.4827
39606W        W48406   6.599   6.307  28.381  0.0636 -0.2521  0.2144
39607W        W48407  10.790   3.585   2.600 -0.1370  0.1256 -0.0889
39608W        W48408  23.400   4.699  10.178  0.2245  0.0878 -0.0492
39609W        W48409  12.692   0.728   3.723 -0.1936 -0.1056  0.0430
39610W        W48410  10.167   4.224  13.311  0.0411 -0.1425  0.1214
39611W        W48411  17.838   1.361  30.868 -0.0676 -0.2369  0.1749
39612W        W48412  10.404   1.432   0.117  0.0653  0.1280  0.1017
39613W        W48413   1.813   3.115  32.126 -0.2565 -0.0985  0.2604
39614W        W48414   7.185   4.368  29.045 -0.1118  0.1713  0.1941
39615W        W48415  15.977   6.348  30.346  0.0474  0.2089  0.1198
39616W        W48416  15.643   3.836   5.688 -0.0166 -0.1310  0.2290
39617W        W48417  21.507   1.580  27.520 -0.0973  0.0155  0.0265
39618W        W48418  10.089   3.858   0.878  0.1334  0.1049 -0.3001
39619W        W48419  13.224   0.451  27.200  0.4403 -0.1097 -0.1668
39620W        W48420   8.927   0.017  35.195  0.0123 -0.2423  0.4788
39621W        W48421   6.090   2.292   1.165  0.1786 -0.1306  0.0171
39622W        W48422   4.399   3.615  33.305  0.1220  0.0757  0.2893
39623W        W48423  13.050   3.738  24.779  0.1617  0.0608 -0.0004
39624W        W48424   5.636   4.589  14.787 -0.0469 -0.2365 -0.0704
39625W        W48425  23.322   4.168  26.218  0.1008  0.0213 -0.1317
39626W        W48426  15.269   2.415   4.583  0.0679  0.3421 -0.0730
39627W        W48427   1.026   1.732  27.772 -0.1754  0.0311  0.0863
39628W        W48428  13.401   3.221  25.970  0.0758 -0.2759 -0.0124
39629W        W48429  21.324   3.225  11.640  0.0575  0.2613 -0.1682
39630W        W48430  11.720   4.298  11.056 -0.1404 -0.0383 -0.0107
39631W        W48431  17.429   3.802   3.868  0.0623  0.1328  0.0243
39632W        W48432  23.200   5.681  25.524  0.2029 -0.0676 -0.0814
39633W        W48433   1.369   5.669  13.986  0.0394 -0.1618  0.1183
39634W        W48434  21.304   3.428  12.396 -0.1172  0.1599 -0.0418
39635W        W48435   0.467   0.094   4.788  0.2390 -0.0619 -0.0883
39636W        W48436  25.172   0.675   7.724  0.1385  0.0533  0.0487
39637W        W48437  24.037   0.239  34.523  0.1492 -0.1658 -0.1966
39638W        W48438   2.196   2.095  33.197 -0.1836  0.0147 -0.0438
39639W        W48439  17.502   5.768  20.810  0.0350  0.0196 -0.1221
39640W        W48440   7.338   2.823  33.938  0.2294 -0.2486 -0.0447
39641W        W48441  21.477   6.061  12.094  0.0540  0.1285  0.0168
39642W        W48442  25.855   0.136   7.237  0.0404  0.0534  0.1096
39643W        W48443   4.240   5.690  12.193  0.0958  0.1577 -0.1162
39644W        W48444  25.287   0.454  29.280 -0.2698  0.0844 -0.0002
39645W        W48445   8.979   4.308   2.563 -0.0606  0.0668  0.0067
39646W        W48446  11.276   5.566   7.295  0.0175 -0.0670  0.3923
39647W        W48447   6.810   0.055   3.353  0.0684  0.2486  0.1186
39648W        W48448  14.777   4.745  13.856  0.0309 -0.1618  0.2440
39649W        W48449   1.393   6.294   2.317  0.2783 -0.0032  0.1007
39650W        W48450  23.364   2.942  26.839  0.4785 -0.2648  0.0330
39651W        W48451  15.739   1.269  15.804 -0.0019 -0.0446 -0.1410
39652W        W48452   2.379   4.728  11.337  0.0442 -0.0753  0.2632
39653W        W48453   9.139   3.843  34.379 -0.1467  0.0480 -0.2690
39654W        W48454  20.815   5.624  32.738 -0.1599  0.3949  0.2108
39655W        W48455   2.197   6.416  29.735 -0.1415  0.1035  0.2045
39656W        W48456  15.888   5.141  23.543  0.2757  0.1698  0.2399
39657W        W48457  16.336   2.159   2.325  0.3255  0.0419 -0.4614
39658W        W48458   8.980   2.141  23.975 -0.0657 -0.2597 -0.1710
39659W        W48459  25.584   1.241  13.630 -0.3509 -0.0286  0.1869
39660W        W48460  15.193   2.796  21.404 -0.1374  0.0134  0.1437
39661W        W48461  23.115   6.319  20.355 -0.0590 -0.2743 -0.2109
39662W        W48462  19.117   2.653   7.238 -0.0254  0.2892  0.0629
39663W        W48463  16.762   0.955  31.425  0.0148  0.1889 -0.0176
39664W        W48464  23.761   5.652  12.156  0.0707 -0.0805  0.0233
39665W        W48465   1.399   2.667  29.300  0.0669  0.0767 -0.1310
39666W        W48466  23.007   2.735  12.155  0.3142  0.1182 -0.1122
39667W        W48467  18.749   3.351  35.103  0.1262 -0.0686  0.2565
39668W        W48468  12.491   5.600  26.204  0.0183 -0.1969  0.3224
39669W        W48469   5.066   5.455  34.010 -0.2401 -0.0015 -0.2116
39670W        W48470   5.670   4.001  27.243  0.0016 -0.5451 -0.0340
39671W        W48471   7.545   2.711   5.517  0.0040 -0.1252 -0.1093
39672W        W48472  24.962   2.245  34.069 -0.3023  0.3611  0.0848
39673W        W48473  24.572   1.408   4.458 -0.0211  0.3609  0.4056
39674W        W48474   0.954   3.170  23.801 -0.0851 -0.0489 -0.1125
39675W        W48475  13.202   2.578  26.829 -0.2094  0.0425  0.0372
39676W        W48476   8.423   3.246  22.580  0.1046  0.0836  0.0940
39677W        W48477  25.141   1.240  15.332  0.2350 -0.1557  0.2725
39678W        W48478   4.839   6.147  31.888 -0.2020 -0.1333  0.3071
39679W        W48479  22.899   2.753  33.976  0.1671 -0.0221 -0.2606
39680W        W48480  16.619   2.721  15.289  0.0196 -0.1779  0.0720
39681W        W48481   4.672   5.349   8.559 -0.0990  0.1082 -0.1423
39682W        W48482  23.125   5.445  11.644 -0.0262  0.3074 -0.0788
39683W        W48483   3.571   0.873   8.314 -0.0904 -0.0001  0.1410
39684W        W48484  14.189   5.101   0.834  0.3240  0.2572 -0.0851
39685W        W48485  18.513   2.620   2.836 -0.0243  0.0311  0.0744
39686W        W48486  15.042   5.160  13.717  0.0016 -0.0722 -0.2379
39687W        W48487  10.636   0.392   0.824  0.0873  0.2479 -0.3205
39688W        W48488   5.891   3.722  34.500 -0.0464  0.3211  0.0733
39689W        W48489  13.429   1.320   3.522  0.0333  0.0656  0.0045
39690W        W48490  26.091   0.155  22.642  0.0325  0.0187 -0.0820
39691W        W48491  14.993   4.541  25.250 -0.0713  0.0794 -0.1720
39692W        W48492   5.071   3.461  15.114 -0.0154  0.1069  0.0127
39693W        W48493  22.525   5.175  21.872  0.2130 -0.0782 -0.0502
39694W        W48494  22.657   2.022  13.645  0.1439 -0.0044  0.2162
39695W        W48495  16.757   5.131  32.068  0.1147 -0.0856  0.2220
39696W        W48496  21.413   4.445  30.470 -0.0186  0.0353  0.3681
39697W        W48497  16.106   2.156  22.391 -0.1426 -0.0774 -0.0717
39698W        W48498  17.978   2.171   6.469  0.1642  0.2137 -0.3843
39699W        W48499  15.849   4.323   5.576 -0.0496 -0.1510  0.0685
39700W        W48500   8.966   1.656  31.299  0.1429 -0.0889  0.0024
39701W        W48501  25.019   6.382  26.968 -0.2396 -0.1654 -0.0975
39702W        W48502  10.629   3.954  32.735 -0.0596  0.2737 -0.2290
39703W        W48503  22.054   4.912  21.233  0.0290 -0.1601 -0.0306
39704W        W48504   7.371   5.121  14.620  0.1429 -0.0988  0.0504
39705W        W48505  14.194   2.878  13.035 -0.1079  0.2151 -0.1393
39706W        W48506  24.590   6.429  21.617 -0.0242  0.0042  0.1938
39707W        W48507  15.537   5.588   6.479  0.4085  0.0480  0.2107
39708W        W48508  17.114   0.894  24.590  0.0543 -0.0500 -0.3028
39709W        W48509   9.400   2.791  13.611  0.2560  0.0500  0.1022
39710W        W48510  21.089   4.033  21.954 -0.0033 -0.0865 -0.3044
39711W        W48511  10.472   4.595   0.876  0.0663 -0.0551 -0.0408
39712W        W48512  14.702   6.412   9.462  0.2967  0.0721 -0.0371
39713W        W48513   7.572   5.056  26.897 -0.1166  0.1655 -0.1218
39714W        W48514   8.050   5.454  24.924 -0.2215  0.2935  0.0944
39715W        W48515  25.362   6.242  14.013  0.0680  0.0307 -0.0394
39716W        W48516  26.152   5.495   3.264 -0.1357  0.0184 -0.1395
39717W        W48517  23.745   4.370  28.254 -0.0410  0.1689  0.1858
39718W        W48518  16.591   1.084   1.807 -0.1831 -0.0146 -0.1928
39719W        W48519  12.236   3.385  26.604  0.4408  0.3155  0.1859
39720W        W48520  12.909   5.630   1.664 -0.2088 -0.1358 -0.0756
39721W        W48521  13.602   0.132   6.356  0.2149  0.0724  0.1679
39722W        W48522  22.416   0.269  30.574  0.0451  0.1210  0.1258
39723W        W48523   2.483   4.044  35.298 -0.2011  0.1716  0.1756
39724W        W48524   1.349   6.586  27.431  0.0211 -0.1741 -0.1292
39725W        W48525   9.787   2.467  34.894 -0.1947  0.2718  0.2169
39726W        W48526  18.097   2.560  20.279  0.1140  0.0409  0.2065
39727W        W48527   2.046   1.460  12.965 -0.2184  0.0569 -0.3529
39728W        W48528  19.154   1.500  23.327  0.0365 -0.0601 -0.1986
39729W        W48529  24.133   1.351   6.039  0.1452  0.0979 -0.1836
39730W        W48530   8.699   2.031  35.824 -0.1417 -0.1008  0.0975
39731W        W48531   8.942   0.504  31.983  0.1777 -0.2279 -0.0601
39732W        W48532  10.712   4.153  33.176 -0.1887  0.0832  0.0704
39733W        W48533   5.297   4.051  21.731 -0.0982 -0.1900 -0.2691
39734W        W48534  20.070   1.026  32.395  0.1575  0.1673 -0.1147
39735W        W48535  14.569   3.377   9.575 -0.3899 -0.1791 -0.2356
39736W        W48536  25.802   1.232  31.911 -0.0727  0.0494 -0.1647
39737W        W48537  20.329   5.403  13.091  0.3094  0.0385 -0.1065
39738W        W48538   6.179   0.802  31.041 -0.2841 -0.1591  0.2808
39739W        W48539   5.142   5.892   0.611 -0.2299  0.0199  0.1635
39740W        W48540   7.094   4.294  24.548  0.2321  0.1010 -0.1291
39741W        W48541   6.161   2.977  32.917 -0.2101  0.1827 -0.0172
39742W        W48542  21.138   3.489  21.347  0.2200  0.1935  0.1079
39743W        W48543  20.644   6.525  13.296 -0.3879  0.1884  0.0649
39744W        W48544  13.506   2.084  28.706  0.0604  0.2880 -0.0274
39745W        W48545   9.770   4.148  35.797 -0.2505 -0.1186  0.0029
39746W        W48546   4.399   0.327  10.544  0.2635 -0.3139 -0.1288
39747W        W48547  12.815   4.504  13.158 -0.0030  0.2620 -0.1142
39748W        W48548  12.725   4.811  14.158  0.1692  0.1903 -0.0121
39749W        W48549  24.503   5.282  25.163 -0.2082  0.3324 -0.0593
39750W        W48550  18.370   4.003  12.605  0.0111 -0.0366  0.1257
39751W        W48551   4.982   6.269  22.846  0.3958  0.0147  0.1179
39752W        W48552  12.480   1.742  21.717 -0.1773 -0.2749 -0.2982
39753W        W48553  14.722   6.281   4.914 -0.2964 -0.1603 -0.0255
39754W        W48554  20.247   2.395   8.196 -0.1887 -0.1568  0.1116
39755W        W48555  19.319   5.391  11.327  0.0568 -0.1898  0.0661
39756W        W48556  13.150   6.400  28.549 -0.0828 -0.1845  0.1184
39757W        W48557  18.468   0.173  13.151 -0.1152  0.0639  0.0368
39758W        W48558   9.128   3.288  21.939 -0.0360  0.3114 -0.1781
39759W        W48559  15.931   5.850   9.886 -0.1450 -0.1992  0.0733
39760W        W48560  11.044   1.262  29.184  0.0247 -0.1009  0.1833
39761W        W48561   6.595   1.496  25.682  0.0480  0.0275 -0.0374
39762W        W48562  18.610   5.899   3.538 -0.0445 -0.3041  0.1174
39763W        W48563   6.573   0.406   0.308  0.1375  0.0198 -0.0166
39764W        W48564  26.258   5.312  20.192 -0.2975 -0.1995 -0.1748
39765W        W48565   4.464   4.862   8.582  0.0713  0.0367  0.0484
39766W        W48566  20.099   3.092   2.084  0.2198  0.1326 -0.0795
39767W        W48567  24.904   0.909  20.134  0.1072 -0.1157 -0.3935
39768W        W48568  14.930   4.853  11.686  0.1489 -0.0705  0.1831
39769W        W48569   4.772   5.320   0.229 -0.0300  0.1569 -0.0268
39770W        W48570   7.709   5.482   5.026  0.0027 -0.0953  0.3485
39771W        W48571   3.301   2.656  27.512 -0.0541 -0.1286  0.3313
39772W        W48572   2.932   3.334  29.258  0.0602 -0.1610 -0.3599
39773W        W48573  15.053   0.539  21.044 -0.3946  0.2328  0.3539
39774W        W48574   7.769   1.853  24.428  0.2495 -0.0773  0.1605
39775W        W48575   3.254   3.155  27.343  0.2804 -0.0688 -0.0247
39776W        W48576  15.316   2.239  30.009  0.1696 -0.0324 -0.2986
39777W        W48577   7.083   3.221   8.652 -0.1835  0.1126  0.1636
39778W        W48578  22.243   3.299  11.408  0.1647  0.3179  0.0632
39779W        W48579  17.183   4.442  28.040 -0.2449  0.0515  0.1113
39780W        W48580   0.499   3.074  28.503  0.0104  0.0554 -0.3096
39781W        W48581  21.186   4.798  12.643 -0.2841  0.2443  0.1949
39782W        W48582   7.746   2.684  25.768 -0.1242  0.0956 -0.1795
39783W        W48583   9.558   2.715   6.973 -0.2622  0.2736  0.1489
39784W        W48584  12.647   3.084   7.308 -0.1625  0.0966  0.1035
39785W        W48585   6.466   1.304  35.167  0.0829  0.1757  0.1408
39786W        W48586  12.499   2.822   8.189 -0.1160 -0.2077 -0.0469
39787W        W48587  24.407   2.610  22.041  0.3071  0.1074  0.0317
39788W        W48588  16.366   6.443   6.206  0.2139  0.0200  0.0437
39789W        W48589  15.766   0.556  31.540  0.2407 -0.0483  0.1991
39790W        W48590  25.178   1.871   2.847 -0.1743 -0.0872 -0.0232
39791W        W48591   8.065   2.748  29.695 -0.0780  0.2604  0.4115
39792W        W48592  15.685   5.200  33.498 -0.2360 -0.2100 -0.2630
39793W        W48593   2.121   0.967  32.718  0.0771  0.1117 -0.2632
39794W        W48594   6.474   0.260  34.995 -0.0422 -0.0804 -0.1009
39795W        W48595   9.522   2.188  21.474  0.0883  0.0943 -0.1639
39796W        W48596  17.048   6.523  27.723 -0.0227 -0.0184 -0.2623
39797W        W48597   9.261   4.736  13.896 -0.1421  0.3915 -0.0213
39798W        W48598   3.494   5.666  26.764 -0.2264  0.3474 -0.0841
39799W        W48599  23.239   6.505   0.096 -0.1916  0.1359  0.1696
39800W        W48600  18.924   5.335  26.656  0.3386  0.2060 -0.1090
39801W        W48601  19.714   3.544  35.688 -0.3454  0.0388  0.0715
39802W        W48602   3.164   6.487  22.241 -0.0985 -0.1188 -0.0932
39803W        W48603  22.047   1.306   1.627 -0.0568  0.0113 -0.0386
39804W        W48604  21.718   5.677   6.161 -0.0069 -0.1695  0.0084
39805W        W48605  23.499   2.980   3.035 -0.1014  0.2799  0.0426
39806W        W48606  14.571   4.367  14.134  0.0303 -0.1248  0.1938
39807W        W48607   9.891   4.585  33.442 -0.0828 -0.0579 -0.0669
39808W        W48608  24.914   2.988   0.090  0.0521  0.0245  0.2334
39809W        W48609   3.654   5.289  29.287  0.2771 -0.0866  0.1905
39810W        W48610  25.010   4.565   8.338  0.2208 -0.0632 -0.1148
39811W        W48611  22.300   0.270   2.885 -0.0747  0.1550 -0.0570
39812W        W48612  17.867   2.649   4.674 -0.2195 -0.1286 -0.0867
39813W        W48613   2.780   3.453  32.791  0.1171  0.0946  0.1193
39814W        W48614  10.155   5.603  32.991  0.0937  0.3262  0.1896
39815W        W48615  12.288   2.772  21.857 -0.1361 -0.5820  0.0346
39816W        W48616   5.344   2.433  10.767 -0.2170 -0.0441  0.1418
39817W        W48617   2.202   4.449  28.807 -0.0797  0.1368 -0.1100
39818W        W48618  22.783   1.116  30.959  0.0877  0.0768 -0.2119
39819W        W48619   0.088   5.060  31.019  0.0774 -0.0298 -0.1629
39820W        W48620   3.323   4.787  25.979  0.1168 -0.1815  0.2934
39821W        W48621  25.741   4.402   1.147  0.4234 -0.0377  0.0733
39822W        W48622   0.394   1.041   6.881  0.3033 -0.1941 -0.1398
39823W        W48623   1.408   5.453   7.476 -0.0326  0.0561  0.2266
39824W        W48624  13.284   5.839  34.915  0.3715  0.1173 -0.0350
39825W        W48625  26.281   4.611  11.595 -0.0093  0.1098  0.1571
39826W        W48626   0.271   6.149  24.028  0.2549 -0.1657 -0.2294
39827W        W48627   9.432   0.451  23.251 -0.0293  0.0473  0.4542
39828W        W48628  12.774   5.010  34.988  0.3145  0.3105  0.1186
39829W        W48629   3.056   6.517  23.622  0.0954  0.0773  0.1591
39830W        W48630  16.414   1.148  24.674 -0.0937 -0.1037 -0.1746
39831W        W48631  21.174   4.686  22.698  0.3086  0.2181  0.2767
39832W        W48632   0.621   3.829  23.759 -0.1137 -0.0343  0.2444
39833W        W48633   8.891   4.415  32.874  0.0326 -0.1859  0.1429
39834W        W48634  19.675   4.903  12.307  0.0287 -0.1407  0.0691
39835W        W48635   9.993   5.331  13.345  0.0079  0.0272 -0.1594
39836W        W48636  19.636   2.867  13.459  0.0713 -0.4224  0.1851
39837W        W48637  15.669   3.181  35.396  0.3343 -0.2700  0.0821
39838W        W48638  22.789   0.960   5.759 -0.2518 -0.0509  0.2352
39839W        W48639   5.175   3.997  14.060 -0.0117  0.2545 -0.1072
39840W        W48640  25.769   5.441   9.440  0.1579 -0.0863 -0.0638
39841W        W48641   0.987   3.723   2.225  0.0407  0.4795  0.1468
39842W        W48642  26.053   3.612  33.428 -0.3130 -0.2479  0.3496
39843W        W48643  22.554   6.378  30.468 -0.0990  0.0637  0.2156
39844W        W48644   1.359   2.014  14.719 -0.0031  0.1749 -0.0401
39845W        W48645   1.135   4.875  27.125 -0.2464 -0.2179  0.1825
39846W        W48646   9.128   2.714  22.288 -0.4612  0.0131  0.1300
39847W        W48647   3.781   4.416  21.320  0.0570  0.0567 -0.1324
39848W        W48648  10.781   4.903  30.385  0.1416  0.2111 -0.3022
39849W        W48649   3.633   1.428  28.011  0.1154  0.0912  0.1644
39850W        W48650  13.076   6.536   7.749  0.2841 -0.0990 -0.2920
39851W        W48651   4.774   2.340  21.756  0.1268 -0.2364 -0.2912
39852W        W48652  21.807   1.750  27.929  0.1652  0.0596 -0.0635
39853W        W48653   1.701   1.245   0.752 -0.0872 -0.1480  0.2727
39854W        W48654  17.708   6.093   4.410 -0.1400 -0.2818  0.1977
39855W        W48655  19.591   4.440   1.483 -0.0360  0.3435 -0.1393
39856W        W48656   3.380   2.717  25.720  0.0914 -0.0291  0.0262
39857W        W48657   2.176   3.635  12.786 -0.1357 -0.1273  0.2519
39858W        W48658   1.710   4.406  24.793 -0.1470 -0.3852  0.0687
39859W        W48659  17.586   2.821  27.056 -0.1266 -0.1276  0.0981
39860W        W48660  11.052   6.399   2.861 -0.0399 -0.1259 -0.2624
39861W        W48661  22.679   1.587  13.904  0.1283  0.1478  0.2152
39862W        W48662  22.029   6.150   4.767 -0.2168 -0.1181 -0.0229
39863W        W48663  23.553   1.224   3.144  0.0611  0.0068 -0.5362
39864W        W48664  14.031   0.933  26.725 -0.0455  0.1325 -0.1016
39865W        W48665  21.571   2.200  33.460 -0.0354 -0.1245 -0.0047
39866W        W48666   0.865   5.500   5.334  0.2081 -0.0709  0.0459
39867W        W48667  20.538   3.622  13.100  0.1869 -0.0337  0.3031
39868W        W48668   7.213   1.750  32.826  0.0846 -0.0821  0.0080
39869W        W48669  10.579   3.072   2.329 -0.0616  0.3980  0.1078
39870W        W48670  17.213   3.940  22.831  0.0128 -0.2118  0.0851
39871W        W48671   8.576   5.248  27.850  0.0771  0.0732  0.1260
39872W        W48672  12.423   4.839  25.256 -0.3971 -0.1292 -0.1825
39873W        W48673   9.542   3.728  21.834  0.0175  0.2071  0.0581
39874W        W48674   2.675   1.430  31.595 -0.2360  0.4575 -0.1679
39875W        W48675  26.340   2.451  31.010  0.3804  0.0123 -0.0705
39876W        W48676  26.329   1.464   4.876  0.2374 -0.1683  0.1424
39877W        W48677   3.757   1.130  32.435 -0.0879  0.0771 -0.0286
39878W        W48678  19.892   2.273  23.034 -0.0219 -0.3886  0.0921
39879W        W48679  15.114   5.918  25.644 -0.4869 -0.0257  0.0404
39880W        W48680   2.024   0.584  29.903 -0.2307  0.0098 -0.2593
39881W        W48681  18.341   2.699   4.965  0.3202 -0.0265 -0.1196
39882W        W48682   6.424   2.085  10.132 -0.0932 -0.1185  0.1624
39883W        W48683  12.371   2.450   4.751  0.2129 -0.2229  0.0236
39884W        W48684  19.388   4.973  29.560 -0.2306  0.1313 -0.1415
39885W        W48685  24.623   1.169   6.310 -0.0831  0.2445  0.0889
39886W        W48686  17.497   0.566   1.599  0.2022  0.1608 -0.0140
39887W        W48687   0.440   1.866  25.351  0.0369  0.1364 -0.0141
39888W        W48688   5.769   0.045  32.707 -0.0890 -0.0243  0.2343
39889W        W48689   9.795   3.726  33.731  0.0135  0.1959  0.3154
39890W        W48690  26.037   4.662  10.678  0.0247  0.1661 -0.0013
39891W        W48691   3.407   2.174  27.499 -0.0631  0.3550  0.2298
39892W        W48692  18.366   6.485  29.218  0.1722 -0.0310 -0.0838
39893W        W48693  19.754   6.535   1.627 -0.1956 -0.3220  0.0345
39894W        W48694  25.503   1.676   8.186  0.1817  0.0522 -0.1343
39895W        W48695  19.065   4.800  14.916 -0.0694 -0.4420 -0.1107
39896W        W48696  13.122   2.021  15.083  0.2035  0.0888 -0.0773
39897W        W48697  21.054   6.441   4.249  0.2254  0.0079 -0.1241
39898W        W48698  25.617   2.819  13.242  0.1459 -0.0695  0.2920
39899W        W48699   2.693   2.374  11.360  0.0008 -0.1788 -0.4197
39900W        W48700  15.503   1.071   1.252 -0.1399  0.1142  0.0596
39901W        W48701   2.580   2.342  31.401  0.0411 -0.1209 -0.3772
39902W        W48702   7.766   4.306  21.242  0.0622  0.0503 -0.1630
39903W        W48703   8.043   0.417   6.119 -0.2001 -0.0644 -0.0802
39904W        W48704  16.038   4.620  28.911  0.2057  0.0352 -0.1196
39905W        W48705   6.127   1.712  24.309 -0.1516  0.0564  0.1812
39906W        W48706   7.465   4.849   9.393 -0.0837 -0.3490  0.2199
39907W        W48707   4.218   4.914  24.929  0.0580  0.3867 -0.0341
39908W        W48708  24.430   1.895  30.082 -0.0782 -0.0188 -0.1313
39909W        W48709  26.229   2.245   0.499 -0.0822  0.1128 -0.2847
39910W        W48710  25.647   1.042  30.975 -0.3197  0.0752 -0.1123
39911W        W48711  13.073   6.010   9.679  0.0090  0.0426 -0.1785
39912W        W48712  25.212   1.801  31.822 -0.0568 -0.3131  0.0268
39913W        W48713   6.443   4.210   4.492  0.0712  0.2519  0.1735
39914W        W48714   7.586   3.892   7.473  0.0403  0.1827  0.0927
39915W        W48715  14.455   2.173  14.768  0.2454  0.2766 -0.2692
39916W        W48716   3.131   2.039  28.710  0.1569 -0.1029 -0.1407
39917W        W48717   7.133   2.377   0.533 -0.0633  0.2566  0.0967
39918W        W48718  17.672   2.488   6.664  0.1019  0.2476  0.1761
39919W        W48719  12.987   0.031  34.365  0.0292 -0.3138 -0.0363
39920W        W48720  23.520   2.917  15.216  0.2222  0.1807 -0.0412
39921W        W48721  23.890   4.648   9.437  0.1420 -0.0428 -0.0544
39922W        W48722  20.466   4.162  32.900  0.0412  0.0285  0.1821
39923W        W48723  13.638   4.679  29.010  0.0743  0.2429 -0.0804
39924W        W48724  19.188   6.125   3.145 -0.0580  0.0273 -0.1203
39925W        W48725   7.517   3.193   5.405  0.0677  0.0386  0.0631
39926W        W48726  14.995   1.366  12.656  0.0614  0.1406  0.1246
39927W        W48727   1.337   5.273  33.719 -0.0948  0.2085 -0.3139
39928W        W48728  17.551   2.358  20.986 -0.2337 -0.1453 -0.2213
39929W        W48729  10.036   5.250  25.179 -0.1310  0.0887  0.1536
39930W        W48730  11.628   0.793  27.537  0.1983 -0.0774 -0.2089
39931W        W48731   9.933   0.096   6.326  0.0284 -0.0172 -0.3221
39932W        W48732  15.599   4.896  30.846 -0.2073  0.0999  0.0394
39933W        W48733   1.437   1.144  28.540  0.0135  0.2369 -0.0031
39934W        W48734   0.260   5.566  28.432 -0.0292 -0.1775 -0.1411
39935W        W48735   3.560   3.552  21.640 -0.1011 -0.2621  0.0715
39936W        W48736  15.996   5.674  21.316 -0.0835 -0.1435 -0.2726
39937W        W48737  18.463   4.801  26.251 -0.3448 -0.1442  0.2683
39938W        W48738   3.507   5.017  35.472  0.2457  0.0915 -0.0149
39939W        W48739  19.998   6.354  22.024 -0.3265  0.0700  0.0896
39940W        W48740  23.788   2.534  13.425 -0.1350  0.1398  0.1169
39941W        W48741  20.429   4.713  27.825  0.2233  0.0504  0.1124
39942W        W48742  24.404   0.713  10.230  0.1202 -0.0883 -0.3063
39943W        W48743  22.974   1.667  34.443  0.1985 -0.0565  0.1171
39944W        W48744  20.261   1.246   1.973 -0.0678  0.3004 -0.1339
39945W        W48745   4.009   0.366  25.268  0.1892  0.0485 -0.1614
39946W        W48746  21.536   1.466  14.751 -0.1233  0.0760  0.0242
39947W        W48747  22.043   3.206  12.439 -0.0184 -0.1949 -0.3430
39948W        W48748  19.864   2.813  29.921 -0.1503  0.0082 -0.0136
39949W        W48749   2.684   4.244  23.047 -0.0777 -0.1116 -0.1767
39950W        W48750  26.054   0.088  29.383  0.0044 -0.0635  0.0534
39951W        W48751   5.117   4.279   9.297  0.3090  0.1202  0.2174
39952W        W48752  21.762   0.111   1.192  0.0835  0.1024  0.0398
39953W        W48753   6.880   5.157  25.757  0.2279 -0.0108  0.1539
39954W        W48754  19.583   2.021  14.743  0.2888 -0.1285  0.1326
39955W        W48755   7.962   6.152   7.969  0.0633 -0.3868  0.2498
39956W        W48756   0.137   4.545  24.015  0.1414  0.1280  0.0936
39957W        W48757  19.154   4.330   1.278  0.0620 -0.0313  0.2057
39958W        W48758  20.833   0.783   5.144 -0.2052  0.2100 -0.3892
39959W        W48759  11.438   2.278  31.677 -0.1046 -0.2763  0.3695
39960W        W48760   7.276   2.496  36.072 -0.3565  0.0270  0.0369
39961W        W48761   3.722   5.498  33.761 -0.3720 -0.1496  0.3737
39962W        W48762   0.629   2.955  34.714  0.3785 -0.0490  0.2123
39963W        W48763  18.473   2.908   8.980 -0.2545  0.0639 -0.1022
39964W        W48764   4.206   6.238   5.884  0.0300 -0.0061 -0.2008
39965W        W48765  25.415   0.043   6.180  0.0477 -0.0217 -0.0664
39966W        W48766  19.846   0.099  28.258  0.0225 -0.2379  0.0337
39967W        W48767  22.415   5.185  25.027 -0.2443  0.3495  0.3271
39968W        W48768   2.080   5.393   5.729 -0.2202 -0.0380  0.0431
39969W        W48769  24.818   6.243  22.051  0.2415  0.1317  0.0254
39970W        W48770  23.957   4.889  11.383  0.1079  0.0198  0.1974
39971W        W48771  15.386   2.475  24.972 -0.0107 -0.0540  0.0587
39972W        W48772  10.900   5.915  10.079 -0.0930 -0.1473  0.0824
39973W        W48773  11.958   3.093  26.999  0.0311 -0.0502 -0.0342
39974W        W48774  22.005   4.217   7.386 -0.3718  0.3391 -0.3763
39975W        W48775   1.052   1.130  32.640  0.3828  0.1264 -0.0176
39976W        W48776   5.985   0.887  22.471 -0.1803  0.2656  0.0867
39977W        W48777  22.880   2.825   8.872  0.3893  0.1573 -0.0021
39978W        W48778  20.878   0.345  30.761  0.3012  0.2062  0.2060
39979W        W48779  25.105   4.315  23.241  0.2187  0.0043  0.4187
39980W        W48780  19.051   3.470   4.850 -0.3211  0.1900 -0.0418
39981W        W48781  23.265   2.553  22.984 -0.0477 -0.2602  0.0504
39982W        W48782  19.693   5.680  23.550  0.1824 -0.1012  0.0408
39983W        W48783  20.502   6.368   6.520  0.1241 -0.6589 -0.0614
39984W        W48784   7.330   0.161  29.772 -0.2002 -0.0203 -0.3536
39985W        W48785  19.349   2.615  14.332  0.1644  0.1800  0.1031
39986W        W48786   0.237   1.385  10.279 -0.0577  0.0010  0.0182
39987W        W48787  19.155   5.463   5.218 -0.0617  0.1753  0.0012
39988W        W48788  25.806   4.995  14.396  0.1293  0.1958 -0.0546
39989W        W48789   6.488   3.734  23.896  0.1477 -0.0866  0.2942
39990W        W48790   5.805   1.758  35.585 -0.1532  0.2376  0.0531
39991W        W48791   5.897   6.174  21.989 -0.1970 -0.3008 -0.0015
39992W        W48792   0.205   5.150  11.498  0.1244  0.0213 -0.0243
39993W        W48793  21.587   4.802  34.203  0.1472  0.0776  0.0785
39994W        W48794  24.910   1.440   9.118 -0.1169  0.3096  0.1303
39995W        W48795   5.948   1.459  10.997 -0.3537 -0.0599  0.0169
39996W        W48796  22.737   5.794  34.283  0.1548 -0.2219  0.0870
39997W        W48797  23.809   4.466  32.373  0.0704 -0.1658 -0.2729
39998W        W48798  10.253   2.968   8.814  0.3043 -0.3079 -0.1754
39999W        W48799   9.499   1.163   7.844 -0.1594 -0.2238 -0.0036
40000W        W48800   6.137   2.140   9.662  0.2675 -0.3447 -0.0474
40001W        W48801   9.596   5.041  11.547 -0.1047 -0.3237  0.2866
40002W        W48802  10.400   0.431  14.047  0.1581  0.1412 -0.2781
40003W        W48803  20.753   4.042   6.580 -0.0115  0.1719 -0.2999
40004W        W48804  23.125   6.340  15.211 -0.0964 -0.1042  0.1979
40005W        W48805   6.155   0.426   8.566 -0.1476  0.0310 -0.2193
40006W        W48806  20.046   3.299  31.066 -0.1287  0.0761  0.1678
40007W        W48807   8.411   2.110  13.820  0.2312 -0.1210  0.1366
40008W        W48808   4.596   4.385   6.417  0.1594  0.0565 -0.1726
40009W        W48809   6.804   5.699  14.690  0.0169  0.2485 -0.0612
40010W        W48810  12.546   5.132  30.994  0.2744 -0.3851  0.1613
40011W        W48811  15.123   1.913  22.858  0.1064 -0.0565 -0.0540
40012W        W48812  15.375   3.375  22.721  0.0954  0.0781  0.0877
40013W        W48813   0.528   4.168  25.811 -0.0327  0.1447 -0.1118
40014W        W48814   2.589   3.492  34.445  0.0474 -0.0350 -0.1989
40015W        W48815   0.667   5.285   9.044  0.1044 -0.1461 -0.0609
40016W        W48816   9.142   6.366  30.623 -0.3829  0.0569 -0.0240
40017W        W48817   8.300   1.792  25.732 -0.1127 -0.0350 -0.0288
40018W        W48818  14.931   4.356   7.392 -0.0957 -0.2262  0.0341
40019W        W48819   6.729   1.043  26.217 -0.0793 -0.0097  0.2825
40020W        W48820  21.583   3.949  32.185 -0.3991  0.0412 -0.1775
40021W        W48821   0.321   1.445  31.836  0.0392 -0.3939 -0.1129
40022W        W48822  16.728   0.970  14.121 -0.1190 -0.0332 -0.1186
40023W        W48823   8.785   1.573   1.631 -0.0161  0.0590  0.1314
40024W        W48824   5.439   5.508  27.118 -0.0563 -0.0283  0.0384
40025W        W48825  18.031   1.178  35.449  0.1207  0.0086  0.2440
40026W        W48826   6.264   0.765   3.029 -0.0063 -0.2602 -0.0164
40027W        W48827  22.668   0.070  15.171  0.1907 -0.1061  0.0491
40028W        W48828  11.766   3.922   0.840 -0.1512  0.1051  0.0656
40029W        W48829  24.819   0.616  13.592  0.0974 -0.1661  0.0363
40030W        W48830  22.663   4.981  10.952 -0.1709 -0.0754  0.2158
40031W        W48831  16.690   0.554  32.735  0.1236 -0.0794  0.3137
40032W        W48832  23.198   1.559  29.716  0.1239 -0.2811 -0.0413
40033W        W48833   2.717   4.532  12.930 -0.0204 -0.1713 -0.1886
40034W        W48834  24.324   0.684   3.829 -0.0676  0.0269 -0.0967
40035W        W48835  24.893   0.667  10.186  0.1368  0.2373  0.0273
40036W        W48836   4.433   3.061  34.404  0.2853 -0.1458 -0.0421
40037W        W48837  22.821   2.278  11.996  0.2847  0.0141 -0.1592
40038W        W48838   8.610   6.289   9.565  0.1144  0.1598 -0.1757
40039W        W48839   4.743   1.165  22.279  0.3366 -0.2435  0.5094
40040W        W48840  19.684   0.235  25.968  0.2665 -0.1171  0.1046
40041W        W48841  14.415   5.110  12.548 -0.0672 -0.0150 -0.1533
40042W        W48842  22.729   6.165   6.718 -0.0202  0.1698  0.1729
40043W        W48843  19.491   3.942   1.265 -0.1651  0.0088 -0.0667
40044W        W48844  22.477   3.208   5.138  0.2697 -0.3330 -0.1891
40045W        W48845   9.389   4.625   9.581 -0.2857  0.2097 -0.3106
40046W        W48846  23.288   3.568   1.394  0.0812 -0.2694  0.0972
40047W        W48847  16.558   5.310   1.365  0.0596 -0.1171 -0.0855
40048W        W48848  23.920   4.355  23.084  0.2788  0.0292 -0.0848
40049W        W48849  24.376   5.099  23.906  0.1146  0.0636  0.2196
40050W        W48850  21.670   0.912   6.441  0.1781 -0.1006 -0.2992
40051W        W48851   9.573   1.505  28.146  0.0436  0.0630 -0.1721
40052W        W48852   4.124   5.683  34.076 -0.1286  0.0693 -0.4249
40053W        W48853  20.886   2.724  34.950  0.0186 -0.2907  0.2065
40054W        W48854  14.756   0.688  27.023 -0.2504 -0.1724  0.0967
40055W        W48855   6.355   2.396  28.623 -0.1640 -0.1208  0.0284
40056W        W48856   2.514   1.603  10.099  0.1390 -0.1044  0.1896
40057W        W48857  20.388   5.395  32.172  0.0444 -0.2345 -0.1626
40058W        W48858  10.717   3.829  11.007 -0.1984 -0.4219 -0.0367
40059W        W48859   8.030   1.208  12.471 -0.2853 -0.0203  0.0724
40060W        W48860  21.260   3.096  25.906 -0.0645 -0.3152 -0.0302
40061W        W48861  10.965   3.018  26.520  0.0303 -0.2595  0.0929
40062W        W48862   3.260   4.869  23.389 -0.1082  0.3150 -0.2732
40063W        W48863   7.453   3.995   6.396 -0.0617  0.0863 -0.1038
40064W        W48864  10.914   1.460   0.253  0.4928 -0.0260 -0.0714
40065W        W48865  25.103   2.095   1.725  0.0348  0.0429 -0.3379
40066W        W48866  21.082   2.921   3.870  0.3155 -0.1249  0.0383
40067W        W48867   9.757   1.017  14.260 -0.2742 -0.4400  0.1280
40068W        W48868   4.510   3.595   4.346 -0.1814  0.0964  0.0017
40069W        W48869   6.688   1.204  29.234 -0.2902 -0.0557 -0.0319
40070W        W48870  21.025   1.942   6.832 -0.3428  0.0696  0.0090
40071W        W48871   7.550   1.043  11.307 -0.0311 -0.3029  0.1930
40072W        W48872  19.522   5.213  14.793 -0.0703  0.0073  0.1145
40073W        W48873   0.637   2.863  26.299 -0.1491 -0.1428  0.2010
40074W        W48874   7.142   1.123  23.771 -0.0507  0.2497  0.1086
40075W        W48875  10.339   0.109  12.268  0.0020 -0.0253 -0.0106
40076W        W48876  23.036   0.874  10.330  0.0100  0.0953  0.1324
40077W        W48877  22.391   2.159   4.078  0.1166  0.2569 -0.3449
40078W        W48878  15.725   4.809  32.440  0.2181 -0.0459  0.0156
40079W        W48879  25.365   5.778  24.379  0.1817  0.1855  0.0436
40080W        W48880   7.724   0.065   6.033 -0.1393  0.0798 -0.0443
40081W        W48881   3.182   3.524   8.469  0.1107  0.1221  0.1575
40082W        W48882  24.355   2.352   1.330  0.1561  0.0965 -0.0569
40083W        W48883  26.304   6.474  31.855 -0.2076 -0.4002  0.0637
40084W        W48884   9.260   2.480   8.135 -0.1469  0.1062 -0.0133
40085W        W48885   6.022   0.989   7.417  0.0095 -0.3661  0.1078
40086W        W48886  26.289   5.584  11.447 -0.1407  0.2478 -0.0540
40087W        W48887  13.921   3.443  28.732 -0.0550  0.2246  0.0994
40088W        W48888  11.290   1.074  13.608 -0.0327  0.0668  0.0108
40089W        W48889   6.406   1.102  22.726 -0.2620 -0.1907 -0.4135
40090W        W48890  15.637   2.980  23.657 -0.0949 -0.1720 -0.2073
40091W        W48891  12.542   4.764   3.496  0.1057 -0.1499 -0.2376
40092W        W48892   6.967   4.992  12.438 -0.1188  0.2145  0.0059
40093W        W48893   3.414   6.585   8.393  0.1748 -0.5207 -0.2185
40094W        W48894  19.063   3.702   5.915  0.0362 -0.1559 -0.2089
40095W        W48895  23.383   5.080   3.757  0.1047  0.0491  0.0678
40096W        W48896  23.865   2.077  31.838 -0.0029  0.0779 -0.1642
40097W        W48897  15.813   4.182  13.954  0.0017  0.3108 -0.0187
40098W        W48898  14.407   5.771  33.526 -0.1847  0.1042  0.0002
40099W        W48899  19.578   0.800   6.430  0.2269 -0.1171 -0.0871
40100W        W48900   0.126   1.941  11.648 -0.0080 -0.0022  0.0393
40101W        W48901  23.864   5.302  22.277 -0.1211  0.0135 -0.1488
40102W        W48902  19.022   5.672  34.803 -0.0074  0.0998  0.0894
40103W        W48903  14.617   4.080   7.006  0.0192  0.1094  0.1581
40104W        W48904   3.237   6.485   7.163  0.1560  0.0224  0.2495
40105W        W48905  23.016   1.051  33.576 -0.0708 -0.3139 -0.0676
40106W        W48906  18.105   0.249   8.181 -0.0052 -0.0098  0.3091
40107W        W48907   1.912   3.339  14.429 -0.1769  0.1199 -0.1071
40108W        W48908  15.260   4.107  12.929 -0.1612 -0.0238 -0.1078
40109W        W48909   3.863   3.185   7.864  0.3596  0.3382  0.0302
40110W        W48910  18.394   1.793  29.825 -0.2930  0.0238  0.0409
40111W        W48911   9.440   5.041  23.495 -0.1296 -0.3102 -0.2717
40112W        W48912   1.241   2.292  27.088  0.2954 -0.2850  0.2270
40113W        W48913  20.778   1.350   9.836  0.2779 -0.1082  0.1075
40114W        W48914  10.716   3.616  15.557 -0.0691  0.2021 -0.1228
40115W        W48915  25.593   6.194  33.166 -0.1898  0.0811 -0.0365
40116W        W48916  11.211   4.901   1.449 -0.0790 -0.1395  0.0329
40117W        W48917  13.660   1.696  13.134 -0.1570 -0.1930  0.0508
40118W        W48918   6.478   1.999   4.718  0.0500  0.2144  0.0849
40119W        W48919  10.061   0.492  35.244 -0.0719  0.1020  0.5042
40120W        W48920   0.101   6.346  30.505  0.0309  0.0160  0.1604
40121W        W48921   2.518   3.095  22.424  0.0747  0.0281  0.0888
40122W        W48922  22.879   3.085  13.154  0.2034  0.1373  0.0979
40123W        W48923  24.739   1.945  12.651 -0.1836  0.1362 -0.0672
40124W        W48924  20.429   6.072  26.985  0.0712  0.2786  0.0601
40125W        W48925  17.782   1.636   3.993 -0.1915 -0.1071  0.2227
40126W        W48926  13.935   5.227   2.032  0.3462 -0.0494 -0.0137
40127W        W48927   8.769   0.763  25.211 -0.1251  0.0078 -0.2402
40128W        W48928  23.143   3.022   6.548  0.1190  0.3420 -0.1536
40129W        W48929  14.872   0.227  31.254 -0.1938  0.3219 -0.2261
40130W        W48930  25.247   4.431   3.280 -0.0538  0.1687 -0.1615
40131W        W48931  11.373   3.346  12.934  0.0308  0.0872 -0.0819
40132W        W48932   8.550   3.463  26.434  0.0147 -0.0159 -0.0992
40133W        W48933   9.871   2.410  11.121  0.0358  0.2710  0.0490
40134W        W48934  14.601   2.866   3.517 -0.0869  0.0800 -0.2344
40135W        W48935  25.281   1.448  33.745  0.2766 -0.0489  0.3659
40136W        W48936  10.120   6.223  26.449 -0.0255 -0.1626 -0.5511
40137W        W48937  15.359   5.733  28.075  0.2289 -0.0290 -0.0050
40138W        W48938  12.867   0.866   5.376  0.0642 -0.1562  0.0583
40139W        W48939  15.044   1.564  31.277 -0.0326  0.1100 -0.1049
40140W        W48940   4.536   6.534  22.890 -0.1152 -0.2244 -0.1615
40141W        W48941   9.137   3.089  12.619  0.2294  0.0588  0.0554
40142W        W48942   6.692   3.477  28.797  0.0650 -0.1742  0.0192
40143W        W48943  21.650   0.896  25.692 -0.3833  0.2416 -0.1402
40144W        W48944   0.635   5.842  35.433 -0.2153 -0.2831 -0.2843
40145W        W48945  16.039   0.341  34.922  0.1227 -0.0621 -0.4803
40146W        W48946  25.478   4.374   4.723  0.1774 -0.0007  0.1259
40147W        W48947   7.013   2.441  22.194 -0.2395  0.1350  0.0344
40148W        W48948  11.858   3.761  26.502 -0.1097  0.1452  0.1386
40149W        W48949   5.542   4.275   5.660  0.0652  0.3720  0.1789
40150W        W48950  17.160   4.819  35.017 -0.0204  0.0039  0.2696
40151W        W48951   8.154   1.512  13.289 -0.1636  0.1143 -0.2547
40152W        W48952   5.415   2.816   7.176  0.2751  0.1479  0.3096
40153W        W48953   2.553   1.176  14.901 -0.0495 -0.3126 -0.0958
40154W        W48954  22.024   2.682  25.826 -0.2406  0.1027  0.1179
40155W        W48955  13.549   2.908  21.363  0.0520 -0.4373  0.1783
40156W        W48956   6.919   4.093  11.076  0.2748  0.0189 -0.0422
40157W        W48957  25.895   2.287  35.525 -0.0666 -0.0476 -0.0541
40158W        W48958  13.059   0.888   6.364 -0.0969 -0.0110 -0.0721
40159W        W48959  16.342   4.437  25.568 -0.0338  0.0653 -0.1213
40160W        W48960  24.479   0.113   2.730 -0.1354  0.1372  0.0970
40161W        W48961  17.393   2.998  22.222  0.0143 -0.1732 -0.0844
40162W        W48962  24.619   0.923  14.627  0.0110  0.4395  0.4294
40163W        W48963   3.557   6.019   4.723  0.0825  0.2170 -0.0163
40164W        W48964   5.449   4.537  28.950 -0.1696 -0.0627 -0.2293
40165W        W48965  22.984   3.741   2.069  0.2429 -0.1412 -0.1978
40166W        W48966   2.301   3.946   7.460 -0.0144 -0.2110  0.1434
40167W        W48967  20.854   6.414   8.427 -0.1915 -0.1128  0.2972
40168W        W48968   6.271   3.346  13.428  0.2253  0.1038  0.3923
40169W        W48969   3.537   1.731  22.186  0.0016  0.1320  0.0636
40170W        W48970  13.127   3.846  26.440 -0.0119 -0.2765 -0.2270
40171W        W48971  24.068   5.564  14.134 -0.3611 -0.0990 -0.2642
40172W        W48972  11.756   1.065  25.067 -0.2445 -0.2058  0.1183
40173W        W48973  11.289   2.145  12.745 -0.2461  0.4713  0.2153
40174W        W48974   8.190   4.505  29.065 -0.2024  0.0082  0.2237
40175W        W48975  13.750   4.448  15.464  0.1674  0.3376  0.0156
40176W        W48976  11.189   3.816  22.876 -0.4571  0.0372 -0.3046
40177W        W48977  13.650   3.979  25.650  0.0614  0.3133 -0.2447
40178W        W48978  19.718   2.406   9.947  0.1209 -0.3871  0.0042
40179W        W48979   4.091   0.681  11.545  0.3442 -0.1468  0.2963
40180W        W48980  22.223   2.770  12.688  0.0809  0.2180 -0.1004
40181W        W48981  18.313   0.005  21.309  0.0937 -0.2126 -0.0932
40182W        W48982   0.933   5.991   3.525 -0.0960  0.2030  0.0470
40183W        W48983  21.328   0.266  26.572  0.2770  0.0165 -0.1080
40184W        W48984  24.667   1.676   4.043  0.0746 -0.2208  0.1230
40185W        W48985  24.103   5.612   9.946  0.0284  0.0808  0.1078
40186W        W48986   6.349   1.665  30.644  0.3144 -0.2005 -0.3769
40187W        W48987   1.313   3.486   1.341  0.1162  0.0873  0.0502
40188W        W48988   0.156   4.896  24.844 -0.1214  0.0865 -0.0568
40189W        W48989  14.902   2.142  15.271  0.0203  0.2413 -0.0226
40190W        W48990   7.182   4.509  32.719  0.1228  0.1949 -0.2883
40191W        W48991   9.945   5.194  31.867 -0.0889  0.0541 -0.0585
40192W        W48992   4.655   0.456  25.636 -0.1581  0.0684  0.1016
40193W        W48993  15.303   2.376  15.516 -0.0475 -0.1519  0.2533
40194W        W48994  19.751   1.615  27.680 -0.1557 -0.1919  0.1050
40195W        W48995  21.068   3.045  32.733  0.0523 -0.2541  0.2080
40196W        W48996  13.284   2.509  33.629  0.2023 -0.1087  0.1814
40197W        W48997  12.049   2.303   8.235 -0.0053  0.2134  0.0530
40198W        W48998   8.385   0.672   8.267 -0.2811  0.0319  0.0723
40199W        W48999  18.996   2.513  10.245  0.1555 -0.2675  0.3049
40200W        W49000   9.408   1.910  34.132 -0.1363 -0.1601 -0.3715
40201W        W49001   3.571   2.376   0.278  0.2631  0.1960  0.1781
40202W        W49002  15.700   3.236  11.497 -0.0769 -0.2967 -0.1360
40203W        W49003  25.336   1.487  13.991 -0.3533 -0.1936  0.0870
40204W        W49004  18.530   4.153   1.664  0.0348 -0.0878  0.0392
40205W        W49005   2.301   6.231  10.935 -0.0834 -0.1689  0.0446
40206W        W49006   4.858   1.491  24.134  0.2669 -0.1784  0.1175
40207W        W49007   4.947   4.987   1.210 -0.0808 -0.0329  0.1445
40208W        W49008  22.434   1.693   0.223  0.0711 -0.4456 -0.1457
40209W        W49009  24.371   3.998  23.776 -0.0777  0.2775  0.0103
40210W        W49010  14.622   1.096   6.242 -0.0851  0.1562 -0.3281
40211W        W49011  16.805   5.917  25.806 -0.1617  0.2016 -0.0491
40212W        W49012  21.557   3.693  33.149 -0.1277 -0.3676 -0.1086
40213W        W49013   2.840   6.055   2.688  0.1984  0.1786  0.0561
40214W        W49014  20.754   0.462   3.624  0.1844 -0.1028  0.2766
40215W        W49015   5.558   2.017   5.965 -0.0427 -0.0446 -0.0180
40216W        W49016   8.241   0.686  20.931  0.2490  0.3192 -0.0624
40217W        W49017  10.239   4.349  33.126  0.0121 -0.1836 -0.0546
40218W        W49018  24.710   1.191  26.275 -0.1741  0.0194  0.2841
40219W        W49019  26.087   3.319  32.466 -0.1447  0.2263  0.0122
40220W        W49020  16.469   0.630  30.077  0.0262 -0.0672 -0.1311
40221W        W49021  21.602   5.943  28.852  0.3525  0.1789  0.0519
40222W        W49022  12.127   1.455   1.187 -0.4889 -0.4467  0.1492
40223W        W49023  21.428   3.462  13.218  0.0197 -0.2246  0.2889
40224W        W49024   4.889   0.907  36.058 -0.0363  0.1723 -0.6076
40225W        W49025  24.452   3.441   2.043 -0.1939  0.2350 -0.0433
40226W        W49026  25.444   0.814   1.529  0.0744 -0.0590 -0.0303
40227W        W49027  18.374   6.529   7.360 -0.0655  0.1194 -0.2397
40228W        W49028  13.386   2.204  30.969  0.2022  0.0459 -0.2526
40229W        W49029   0.981   4.051  23.436  0.1611  0.1862 -0.0533
40230W        W49030  20.524   5.292  34.189 -0.0806 -0.1306  0.0166
40231W        W49031   2.633   0.820   0.547 -0.2296 -0.1746  0.0331
40232W        W49032  20.477   6.436  21.398  0.0626 -0.0348  0.2913
40233W        W49033  21.813   4.684   7.004 -0.0411  0.1479 -0.1640
40234W        W49034   5.908   4.410  26.911 -0.0240 -0.0671  0.0815
40235W        W49035   4.462   4.090  10.360  0.1023 -0.1368 -0.1071
40236W        W49036  11.649   4.491   9.494  0.1695 -0.0039 -0.1920
40237W        W49037  16.968   0.080   8.785 -0.2391 -0.0818  0.0109
40238W        W49038  25.195   1.525   2.223 -0.2896 -0.0170 -0.0056
40239W        W49039  17.396   0.293  23.839 -0.1522 -0.1915  0.0389
40240W        W49040   1.903   3.192  28.823  0.2227 -0.2151  0.3745
40241W        W49041   9.459   0.196  29.865  0.0492 -0.2465  0.2429
40242W        W49042   1.936   5.517  12.165  0.0381  0.2106 -0.0587
40243W        W49043  26.348   4.724  25.703 -0.2368 -0.1928  0.1975
40244W        W49044   4.220   4.140   6.452  0.0624  0.0780 -0.2614
40245W        W49045   2.455   0.977  29.972 -0.4146 -0.3643 -0.0553
40246W        W49046   9.129   2.421  25.041  0.1359 -0.0981 -0.2770
40247W        W49047   1.674   0.305  10.763 -0.1790  0.0281 -0.2992
40248W        W49048  17.695   6.585   4.580 -0.0416  0.0700  0.2164
40249W        W49049  23.682   0.979   0.352  0.0210  0.0543  0.1323
40250W        W49050   4.674   4.512   8.942  0.1774 -0.3388  0.2158
40251W        W49051   1.403   1.154  34.449  0.1608  0.1529  0.0329
40252W        W49052   5.143   1.007  12.968  0.0123 -0.2562 -0.1910
40253W        W49053   5.074   2.790   5.814  0.0228  0.0366 -0.2981
40254W        W49054   8.444   2.754   3.170  0.1975  0.4181 -0.1659
40255W        W49055  19.041   3.508  13.482  0.0031  0.1697 -0.3948
40256W        W49056  15.867   1.503  32.651  0.2322 -0.0767 -0.0218
40257W        W49057   3.819   0.189  34.657  0.1526 -0.0109 -0.1064
40258W        W49058   8.626   6.301  27.795 -0.2446 -0.1503  0.0243
40259W        W49059  14.483   5.084  34.841 -0.1798 -0.2422  0.1902
40260W        W49060   4.062   6.204  24.503  0.0066  0.0526 -0.0202
40261W        W49061  15.533   5.972  13.823 -0.0009 -0.2038 -0.3527
40262W        W49062   1.539   6.358  32.038  0.4007 -0.1373 -0.1422
40263W        W49063   7.222   0.441   4.111  0.4549  0.0641 -0.1843
40264W        W49064  17.382   5.395  31.004  0.0758  0.1295 -0.1464
40265W        W49065  10.505   4.152  32.266 -0.1761 -0.3251 -0.1891
40266W        W49066   0.414   5.183   6.053  0.0562 -0.0152  0.0112
40267W        W49067  20.872   1.989   4.214 -0.1899 -0.1189 -0.1623
40268W        W49068  25.266   2.427  28.405 -0.2759 -0.0424  0.0131
40269W        W49069  23.359   4.201  10.882 -0.2099 -0.1115 -0.0604
40270W        W49070  22.320   4.467   7.760  0.0238  0.0715  0.3956
40271W        W49071   5.665   1.036  30.881 -0.1964 -0.0761  0.1202
40272W        W49072   1.682   6.546  34.668 -0.1862  0.2670 -0.0694
40273W        W49073   6.080   0.804   3.744  0.0184 -0.2562  0.1300
40274W        W49074   0.020   0.160   2.907 -0.0340 -0.0817 -0.1554
40275W        W49075   0.934   0.744   9.301  0.1047 -0.1032 -0.1471
40276W        W49076  10.684   4.119  16.093 -0.1063 -0.0508 -0.3259
40277W        W49077   4.434   1.310  31.709  0.0651 -0.0817 -0.3744
40278W        W49078   2.058   3.770  12.296  0.0520  0.0222  0.0451
40279W        W49079  12.899   6.538   9.817 -0.0250 -0.2535 -0.0408
40280W        W49080  17.142   1.949  12.005 -0.3102 -0.1566  0.0473
40281W        W49081  21.224   5.127  33.997 -0.1077  0.1146 -0.2536
40282W        W49082  24.899   4.230  11.038  0.0339  0.1354  0.3128
40283W        W49083  19.135   3.993  13.339 -0.1742 -0.0271 -0.0427
40284W        W49084  22.860   2.073   6.771 -0.1280 -0.2763  0.1807
40285W        W49085  24.431   6.599   2.192 -0.0027  0.0851  0.1239
40286W        W49086  24.422   4.004  27.171 -0.0649 -0.2565  0.3457
40287W        W49087  16.500   5.013  31.263 -0.0505  0.2507 -0.0322
40288W        W49088   2.723   5.863  24.906 -0.0196  0.2011  0.1224
40289W        W49089  10.113   1.289   5.024 -0.1455 -0.1338 -0.2687
40290W        W49090  12.712   3.408  33.134  0.3516 -0.0615  0.0756
40291W        W49091  22.698   5.184  14.955 -0.1413  0.0788 -0.0750
40292W        W49092   8.801   5.893  35.811 -0.4551  0.1051 -0.4386
40293W        W49093  10.137   2.953  25.640  0.1513 -0.0291  0.0853
40294W        W49094  15.585   3.820   9.150 -0.1603  0.0953 -0.0318
40295W        W49095  18.254   5.559   7.536 -0.1846 -0.1828  0.1021
40296W        W49096   1.162   2.628   6.893 -0.3934  0.0396 -0.0167
40297W        W49097  22.563   1.748  25.516 -0.0151  0.3332  0.1680
40298W        W49098  11.959   3.019   0.566  0.1198 -0.0361 -0.0096
40299W        W49099  16.165   6.497  27.366  0.1607  0.0243 -0.0134
40300W        W49100  15.465   4.714   6.817  0.2359  0.1524  0.2072
40301W        W49101  22.838   5.648   6.933 -0.2381  0.0174  0.0216
40302W        W49102  11.815   3.462   9.470 -0.0839  0.2076 -0.3232
40303W        W49103  15.659   6.048  10.506  0.0670  0.0213  0.0529
40304W        W49104  18.808   5.449  27.815 -0.1168  0.0559  0.1078
40305W        W49105  11.336   0.627  24.627 -0.1383 -0.0378 -0.0495
40306W        W49106  25.503   1.396  23.236  0.1951  0.0005 -0.2551
40307W        W49107  24.364   2.385  14.522 -0.0835 -0.1824  0.0304
40308W        W49108   6.702   5.835  34.569  0.0772  0.0995  0.0364
40309W        W49109  12.808   5.911  22.726  0.2881  0.0562  0.2653
40310W        W49110   5.130   4.515  31.586 -0.0570  0.1465  0.3805
40311W        W49111   2.036   3.840  33.181 -0.0162  0.1620 -0.3447
40312W        W49112  11.940   4.883  21.370  0.0695 -0.1557  0.1260
40313W        W49113  13.452   5.701   8.795 -0.2215  0.1891 -0.0745
40314W        W49114  16.379   4.660  11.133 -0.0716 -0.4177 -0.1888
40315W        W49115  24.669   3.309  27.828 -0.3040  0.2764  0.1018
40316W        W49116  11.857   1.782  24.400  0.1662 -0.0456  0.0513
40317W        W49117  18.602   2.123   4.263  0.1453  0.1853 -0.2274
40318W        W49118   1.533   4.275  11.821  0.0796  0.5040 -0.2583
40319W        W49119  23.841   2.830  11.814 -0.0709 -0.4241  0.2317
40320W        W49120  13.355   1.508   6.697  0.0537 -0.0196  0.0623
40321W        W49121  20.642   0.162   4.047  0.2122  0.1312  0.1864
40322W        W49122   2.642   5.230  33.896  0.1886 -0.1738 -0.0378
40323W        W49123   3.211   1.610   6.783 -0.2018  0.1472 -0.3379
40324W        W49124  14.315   6.068  35.945 -0.3394 -0.0167  0.1099
40325W        W49125  20.098   4.794  20.774 -0.1852 -0.1033 -0.1184
40326W        W49126  10.592   1.656  22.884 -0.1912 -0.2899 -0.2484
40327W        W49127   0.768   4.047   3.133 -0.1342 -0.1086 -0.0212
40328W        W49128   8.583   2.185  25.963 -0.4539 -0.1523 -0.0950
40329W        W49129  10.817   0.926   3.457 -0.0432 -0.1858 -0.1294
40330W        W49130   3.806   4.857  28.472 -0.0908 -0.0133 -0.0018
40331W        W49131  14.675   6.433  11.428 -0.0038  0.0614 -0.2918
40332W        W49132  23.185   3.929  33.813 -0.0023 -0.2026 -0.2299
40333W        W49133  24.111   2.910  29.735  0.0846  0.0479  0.1078
40334W        W49134   0.404   3.189   8.240 -0.2618  0.0564 -0.1613
40335W        W49135  23.229   2.164  35.905  0.1032  0.0710 -0.0744
40336W        W49136  11.392   6.033  23.606  0.1802  0.4996  0.2480
40337W        W49137  23.732   0.866  22.042 -0.0256  0.1981  0.1449
40338W        W49138  25.865   6.415   6.852 -0.0984  0.1986 -0.0434
40339W        W49139  15.117   1.766  30.185  0.2627 -0.0927 -0.0381
40340W        W49140  18.338   6.339  32.590 -0.2488 -0.2795 -0.0542
40341W        W49141  12.990   1.199   7.731 -0.0695 -0.1525 -0.0452
40342W        W49142   3.260   4.354   1.434  0.0579  0.0083  0.1451
40343W        W49143   5.090   1.630  25.944 -0.1425 -0.3557 -0.0743
40344W        W49144   2.146   2.829  24.985 -0.1421 -0.0384  0.2022
40345W        W49145  12.195   0.523  22.056  0.0248  0.2456  0.2235
40346W        W49146  10.458   2.109  23.535 -0.1619 -0.4049  0.1486
40347W        W49147  14.366   3.724   8.279  0.0229 -0.1168  0.2866
40348W        W49148  15.053   0.479  32.152 -0.2057 -0.2284 -0.0227
40349W        W49149  13.968   0.819   3.956 -0.0854  0.2485 -0.5026
40350W        W49150  24.002   1.866   5.261 -0.0116 -0.0365 -0.1447
40351W        W49151   6.945   6.491   5.222  0.3342  0.0088  0.2889
40352W        W49152  13.907   3.729  26.997 -0.1743 -0.2437  0.0586
40353W        W49153   2.461   6.104  34.183 -0.1907  0.2459 -0.0940
40354W        W49154  19.529   2.054  35.389  0.0059 -0.1472  0.3026
40355W        W49155   1.043   4.567  31.947 -0.1272 -0.1742  0.1196
40356W        W49156   0.810   0.922   6.706 -0.2562  0.5299 -0.0587
40357W        W49157  14.567   5.962  12.710  0.1388  0.2007 -0.1127
40358W        W49158  24.772   1.612  15.262  0.1366 -0.2271  0.0863
40359W        W49159   4.637   1.719  27.684 -0.5323  0.1036 -0.2300
40360W        W49160  12.940   5.449   1.186  0.1942  0.2086  0.0106
40361W        W49161   7.111   5.761  12.935  0.0608  0.0241  0.2971
40362W        W49162  17.713   0.920   1.254  0.2184  0.2321  0.1313
40363W        W49163  23.532   1.822   9.097  0.0759 -0.0029  0.2568
40364W        W49164  19.825   5.824   9.324 -0.2612  0.3209 -0.0786
40365W        W49165  14.896   1.134   2.508 -0.0149 -0.2208  0.2171
40366W        W49166   9.470   1.690  13.058 -0.1623 -0.1204 -0.1683
40367W        W49167  22.031   6.445   7.161  0.0131  0.0374  0.2194
40368W        W49168  24.228   5.202  30.441  0.1015 -0.0597 -0.0719
40369W        W49169   2.800   5.377  30.878  0.3253  0.0023 -0.5460
40370W        W49170   9.360   1.854  30.502  0.1324 -0.3133  0.1181
40371W        W49171  19.080   5.805  30.752  0.2369 -0.0766 -0.2325
40372W        W49172   3.706   5.407  30.346 -0.1064  0.2439  0.0892
40373W        W49173   9.554   4.244  23.810  0.2876 -0.1182  0.0489
40374W        W49174  21.478   6.183  31.681  0.2135 -0.2097 -0.2120
40375W        W49175   5.669   4.876  12.646 -0.1451  0.0740  0.1975
40376W        W49176  19.871   0.936   6.887  0.0665 -0.0413 -0.3905
40377W        W49177  11.781   3.185   3.286  0.1363  0.1914 -0.2807
40378W        W49178  13.777   1.099   5.890  0.0621  0.1158  0.2547
40379W        W49179  21.849   3.022  14.515  0.1804 -0.1766  0.0562
40380W        W49180   4.202   0.551   1.002 -0.0092 -0.1688 -0.0977
40381W        W49181  16.897   5.072   7.888  0.3538 -0.1440  0.0534
40382W        W49182  20.604   5.864  33.410 -0.3038  0.1598  0.0282
40383W        W49183  25.631   0.014  10.163  0.0421  0.1486  0.0010
40384W        W49184   7.325   0.091  11.546  0.0133 -0.0048 -0.2671
40385W        W49185   4.929   3.513   3.037  0.4378 -0.1444 -0.0570
40386W        W49186   6.645   2.450   6.751 -0.0831  0.1388 -0.2221
40387W        W49187   5.568   1.879  22.313 -0.1324 -0.0756  0.1886
40388W        W49188  13.794   2.432  25.213 -0.2030  0.4123 -0.3595
40389W        W49189  12.835   4.739  35.866  0.0256  0.0473  0.2596
40390W        W49190   7.629   1.277  27.845  0.0440  0.0155  0.0573
40391W        W49191  13.000   0.819   8.406 -0.1051 -0.1634 -0.1183
40392W        W49192   2.880   2.584  11.790 -0.1231  0.3321 -0.2423
40393W        W49193   6.484   4.586  11.789 -0.1523  0.0860  0.1663
40394W        W49194   5.186   5.015  10.384 -0.0436 -0.1362 -0.1542
40395W        W49195  18.029   3.895  34.106  0.0719 -0.0183 -0.2072
40396W        W49196  13.501   0.904  31.467 -0.0367  0.2243 -0.0982
40397W        W49197  18.494   4.108  35.152 -0.1334  0.1840 -0.0687
40398W        W49198  17.605   0.551  32.021  0.0793  0.0264  0.1223
40399W        W49199  16.690   4.482  31.122 -0.1754 -0.0521 -0.0293
40400W        W49200   5.686   3.295  10.740 -0.0666  0.1364 -0.4431
40401W        W49201  19.620   2.433   1.504 -0.3563 -0.2326  0.1323
40402W        W49202  11.178   3.374  23.156  0.3814  0.1631 -0.1123
40403W        W49203  22.917   2.406  23.342 -0.0585 -0.2979  0.4390
40404W        W49204  23.454   3.447   5.079  0.0083  0.2186  0.1565
40405W        W49205  14.678   5.557  28.473 -0.0738  0.2625  0.0817
40406W        W49206  22.633   6.218  13.174  0.1489 -0.1330  0.0932
40407W        W49207   5.158   3.678   5.587  0.2425 -0.0081 -0.0826
40408W        W49208  25.195   2.519  32.084  0.0526 -0.0408 -0.1072
40409W        W49209  11.366   2.176  24.309  0.0512 -0.1743  0.0839
40410W        W49210   0.629   2.825  10.191 -0.0971  0.2986  0.0962
40411W        W49211   2.672   2.079  12.045 -0.0038  0.2708  0.0709
40412W        W49212  22.708   4.048  27.080 -0.2019 -0.1241  0.2070
40413W        W49213  11.796   4.380  31.379  0.0031 -0.0276  0.1189
40414W        W49214  13.939   5.670  30.693 -0.0498  0.0909  0.0496
40415W        W49215  24.067   3.816  33.279  0.0114  0.2451  0.0721
40416W        W49216  11.868   6.521  28.378  0.0545  0.1884 -0.3203
40417W        W49217   3.447   4.639   6.932 -0.4039 -0.2052 -0.2351
40418W        W49218  19.005   6.098  11.725  0.3338  0.2033  0.0365
40419W        W49219   4.466   1.744  28.756 -0.3225  0.1141 -0.2717
40420W        W49220  25.496   1.614  29.533 -0.1025 -0.0386  0.1837
40421W        W49221  18.891   5.779  12.829  0.0036  0.2807  0.3238
40422W        W49222   2.030   4.461  26.925 -0.0921  0.2165  0.3040
40423W        W49223  24.747   5.076  10.258  0.2457  0.0273  0.6175
40424W        W49224  24.543   5.047   5.646 -0.1219 -0.0575  0.0452
40425W        W49225  21.486   5.723   5.225 -0.0225  0.0769 -0.0104
40426W        W49226  25.153   6.375  11.528  0.2158 -0.0827 -0.3543
40427W        W49227  11.687   5.501   9.754  0.0126 -0.1593 -0.1192
40428W        W49228  23.484   1.908  28.118 -0.0126  0.1669 -0.0835
40429W        W49229   8.315   0.791   7.015  0.0172  0.3700  0.0748
40430W        W49230  10.764   6.294  33.612  0.1002 -0.2722 -0.0260
40431W        W49231  11.380   0.380   3.910  0.1170 -0.2060  0.0398
40432W        W49232  12.125   0.400  11.609 -0.0636 -0.1165 -0.0874
40433W        W49233   5.608   4.022  25.754  0.2183 -0.3112  0.0615
40434W        W49234   5.338   5.960   9.119  0.2686  0.0969  0.3107
40435W        W49235  23.380   5.411   5.080  0.0297  0.0312 -0.0060
40436W        W49236   8.859   1.941  24.894  0.1078  0.1074 -0.0037
40437W        W49237  10.095   5.291  21.251 -0.1802  0.2867 -0.2964
40438W        W49238   0.009   0.360  21.806 -0.1626 -0.0564 -0.2164
40439W        W49239   5.758   5.657  22.175  0.2079 -0.0178  0.2652
40440W        W49240   6.446   2.576   3.199  0.2194  0.0977  0.0502
40441W        W49241  19.861   3.573   1.971 -0.0510  0.2591  0.0444
40442W        W49242   7.553   2.466  21.292  0.0272 -0.2077  0.1414
40443W        W49243  16.243   4.497  29.411 -0.0541  0.1472  0.2757
40444W        W49244   9.090   3.651  13.180  0.0088  0.1003 -0.3182
40445W        W49245   7.157   5.783   1.480 -0.0193  0.0919  0.0269
40446W        W49246   4.153   1.280  25.256 -0.0485 -0.0738  0.1326
40447W        W49247  16.942   6.432  29.671  0.1416  0.3334 -0.1258
40448W        W49248  10.693   1.689  25.724 -0.0459 -0.1579  0.2024
40449W        W49249  23.220   5.245  33.376  0.2516  0.1112 -0.3506
40450W        W49250  16.182   5.902  23.251 -0.2594 -0.0689 -0.1109
40451W        W49251   2.708   3.781  30.540 -0.0851 -0.0478 -0.1112
40452W        W49252  13.844   2.831  22.433  0.3201  0.0762  0.0555
40453W        W49253  21.689   2.879  29.089  0.0392  0.3977  0.1411
40454W        W49254   3.272   2.251  34.935  0.1950  0.0881  0.1322
40455W        W49255  10.015   1.028   0.445 -0.2637 -0.0412 -0.2141
40456W        W49256  13.975   1.169  28.195  0.0377 -0.0689  0.0241
40457W        W49257   5.878   4.815  31.176 -0.3592 -0.0278 -0.0494
40458W        W49258   0.270   5.409  21.300  0.1659 -0.1107 -0.0413
40459W        W49259  23.078   5.982  30.482  0.0702  0.1000 -0.2444
40460W        W49260   0.336   2.993   6.745 -0.2861 -0.1957 -0.1208
40461W        W49261   4.770   0.820   1.899 -0.1405 -0.1417  0.0770
40462W        W49262  20.952   0.205  21.468 -0.1065  0.1413  0.0517
40463W        W49263  20.068   2.384  26.728 -0.1128  0.0273  0.1466
40464W        W49264   3.842   0.978  33.069 -0.3104 -0.0383 -0.0448
40465W        W49265   3.179   5.795  31.640 -0.0554 -0.0006  0.0310
40466W        W49266  14.645   4.769  24.929  0.0503 -0.0281  0.1212
40467W        W49267  22.141   1.291   6.897 -0.1318 -0.4509  0.0115
40468W        W49268   7.775   2.794  24.686 -0.1857 -0.2512 -0.1087
40469W        W49269   7.325   4.756  30.096 -0.1485  0.0096 -0.0254
40470W        W49270  24.431   5.464  13.813  0.0573 -0.3234  0.1702
40471W        W49271  10.121   1.128   8.975 -0.0760 -0.0662  0.0754
40472W        W49272   9.446   6.586   7.385  0.1701 -0.1392 -0.0999
40473W        W49273  20.787   5.092  13.181  0.2018  0.2435 -0.1456
40474W        W49274  14.659   2.436   3.782  0.1666  0.0296 -0.3007
40475W        W49275   0.599   2.313  23.514  0.2409  0.0377 -0.3425
40476W        W49276  11.700   0.786  30.161 -0.1023 -0.3608 -0.1987
40477W        W49277  22.474   6.035   7.395 -0.0073 -0.1767  0.1265
40478W        W49278  19.821   6.278  26.073  0.2269  0.2726 -0.0575
40479W        W49279  21.818   6.188  31.307 -0.0693 -0.2422  0.0039
40480W        W49280  12.657   5.389  12.098  0.2279 -0.2736 -0.1298
40481W        W49281  13.474   0.349   5.852  0.0934 -0.4363 -0.0363
40482W        W49282   6.460   1.114   6.302  0.1183  0.0922 -0.4810
40483W        W49283  19.517   6.322  22.537 -0.0048 -0.0618 -0.0927
40484W        W49284  12.046   1.081   9.196  0.5271 -0.0608 -0.0890
40485W        W49285   2.480   5.788  10.755  0.2404 -0.2730  0.0952
40486W        W49286   7.803   2.059  22.842  0.1080 -0.0917  0.3059
40487W        W49287   5.023   2.355   0.319  0.2935  0.0443 -0.0066
40488W        W49288  26.332   2.977  15.328  0.0286 -0.1199 -0.2935
40489W        W49289  14.207   0.672  28.013  0.1243 -0.0948 -0.2745
40490W        W49290  17.079   1.914  24.842 -0.1345  0.3958 -0.0148
40491W        W49291   6.434   0.251  12.912 -0.0123 -0.0444  0.2150
40492W        W49292  18.803   2.040  14.914  0.0750 -0.2845 -0.0375
40493W        W49293   1.080   5.734   3.078  0.1597  0.1232  0.1273
40494W        W49294  16.811   0.940  28.244 -0.4373 -0.1313 -0.1613
40495W        W49295  21.292   1.901  31.625 -0.2309  0.1651  0.0686
40496W        W49296  20.416   5.476  33.178 -0.0712  0.2542  0.0889
40497W        W49297  23.089   0.602  33.452  0.1910 -0.0493 -0.0317
40498W        W49298  18.777   0.048   8.040  0.0139  0.0236 -0.2674
40499W        W49299  22.048   4.976  12.437  0.1679 -0.0069 -0.0320
40500W        W49300  11.950   4.860   4.757  0.1920 -0.1984 -0.0016
40501W        W49301  23.479   5.022   7.762 -0.0988 -0.0965 -0.3935
40502W        W49302   9.692   0.623  28.638 -0.0325  0.0043 -0.0763
40503W        W49303   3.277   2.828  21.218 -0.0207 -0.2471  0.0979
40504W        W49304  20.422   4.959  14.686  0.0821  0.1562  0.1230
40505W        W49305   7.423   0.082  26.658 -0.2476  0.1812 -0.0263
40506W        W49306   5.377   2.463  33.725  0.0044 -0.0692 -0.2276
40507W        W49307   8.341   4.374  25.461  0.4034 -0.2859  0.3404
40508W        W49308  11.241   5.829   0.508  0.1816  0.0513  0.1372
40509W        W49309   2.291   5.201  34.305  0.2973  0.1101  0.2380
40510W        W49310   0.182   3.544   0.293  0.2729 -0.1833  0.0336
40511W        W49311   4.820   4.216  14.359 -0.0316  0.3569  0.1284
40512W        W49312  15.858   5.470  34.419 -0.0075 -0.0774  0.1882
40513W        W49313  20.946   2.570  11.833  0.0193  0.0948  0.0014
40514W        W49314  23.823   4.778  23.414  0.1413 -0.2175  0.1105
40515W        W49315  15.148   0.716  11.192  0.1781 -0.3119 -0.0060
40516W        W49316   4.283   3.631  21.179  0.1128  0.3093  0.3385
40517W        W49317  23.306   3.267   4.509 -0.0051 -0.2643 -0.1618
40518W        W49318   1.911   0.678  31.122  0.0633  0.1473  0.0695
40519W        W49319  23.097   3.096   8.487 -0.2280 -0.1003  0.0309
40520W        W49320  25.149   4.448  24.137  0.1014  0.0756  0.1376
40521W        W49321  22.914   4.593  12.224  0.0022 -0.1056  0.1800
40522W        W49322  20.250   0.337   9.209 -0.1181  0.0420  0.0280
40523W        W49323   9.902   4.630   1.775  0.1468 -0.1043 -0.1754
40524W        W49324  11.772   3.427  21.259 -0.0029  0.0041  0.2201
40525W        W49325   3.723   4.873   5.616 -0.0692  0.0254 -0.0272
40526W        W49326   6.978   1.897   1.337  0.0464  0.2387 -0.0347
40527W        W49327   7.272   3.364  11.427 -0.2175  0.2257 -0.2206
40528W        W49328  21.558   0.212   9.153  0.2634 -0.1775 -0.1242
40529W        W49329  17.372   2.922  25.836 -0.0104  0.0207  0.3626
40530W        W49330  21.334   4.635   7.550 -0.1254 -0.2396  0.2305
40531W        W49331   3.954   1.594  12.864  0.1754 -0.1540 -0.1449
40532W        W49332   8.287   0.856  20.328 -0.1865  0.1341  0.3922
40533W        W49333   9.945   1.873  29.763  0.1191  0.1723 -0.0782
40534W        W49334   6.474   3.761  12.913  0.1502 -0.2379 -0.3738
40535W        W49335  25.335   3.333  35.260  0.0196 -0.1410 -0.1484
40536W        W49336  10.643   2.284  35.135 -0.2292  0.0289 -0.2457
40537W        W49337  24.744   1.868   9.323  0.1516 -0.0248 -0.0697
40538W        W49338  15.142   5.329  14.181  0.0503  0.3704 -0.0607
40539W        W49339   1.078   5.076  20.550 -0.3153  0.2332 -0.2397
40540W        W49340   1.986   4.466   0.469  0.0204 -0.0371 -0.0694
40541W        W49341   6.167   0.187  31.322 -0.2295 -0.0381  0.0378
40542W        W49342  16.081   0.444  29.742 -0.1476  0.0510  0.0249
40543W        W49343   6.082   1.422   5.557 -0.0313 -0.2589 -0.0146
40544W        W49344  15.637   1.827  11.861 -0.0541 -0.2449  0.0483
40545W        W49345  22.409   3.272   0.961 -0.1347  0.0267 -0.0715
40546W        W49346   9.279   5.596  14.064  0.1067  0.2197 -0.0873
40547W        W49347  11.377   1.408  35.017 -0.1978 -0.3707  0.1511
40548W        W49348  11.706   5.966  33.724  0.5734  0.4089  0.3108
40549W        W49349   6.116   5.547   0.426 -0.0805 -0.0615 -0.2071
40550W        W49350  19.391   5.227  21.349 -0.3203  0.2964  0.0637
40551W        W49351   2.589   0.067  20.591  0.1063 -0.1889 -0.4524
40552W        W49352  13.582   5.005  23.138  0.0100  0.0713 -0.0228
40553W        W49353   1.526   0.646  24.620  0.0036  0.1786  0.0192
40554W        W49354  17.339   6.054  10.180 -0.1806  0.1130 -0.1590
40555W        W49355  25.858   6.188   7.276 -0.0035 -0.0621 -0.1823
40556W        W49356   5.541   3.665   6.912 -0.2227  0.3234 -0.0184
40557W        W49357   1.804   2.070  24.424  0.2349 -0.1374  0.3427
40558W        W49358   4.832   2.265  10.629 -0.2671  0.0906  0.0261
40559W        W49359   3.172   2.719  13.383 -0.5165 -0.0955  0.0612
40560W        W49360  20.196   2.972  14.131  0.2012 -0.2668  0.1095
40561W        W49361   6.320   5.600  27.232 -0.1805  0.0116  0.1212
40562W        W49362   5.242   5.688  12.856 -0.1430 -0.0573  0.3083
40563W        W49363   7.299   2.537  24.102 -0.1717 -0.1164 -0.2207
40564W        W49364   4.467   3.615  21.897  0.2530 -0.1369 -0.2564
40565W        W49365   2.128   4.013   2.693 -0.1288 -0.1359  0.1114
40566W        W49366   5.223   3.856   8.041 -0.1908  0.0172  0.2981
40567W        W49367  19.211   0.058  32.277 -0.2589  0.3915  0.1804
40568W        W49368  20.154   1.567  12.490 -0.1083 -0.1871 -0.3936
40569W        W49369  17.858   4.947   5.917  0.0768  0.0802 -0.1176
40570W        W49370   7.277   4.562   5.722 -0.0800 -0.1162 -0.0071
40571W        W49371  15.755   4.097   0.148  0.0327  0.1688 -0.0279
40572W        W49372  24.819   1.920  14.863  0.0154  0.2161 -0.0951
40573W        W49373  18.907   1.941  34.872 -0.0296  0.0160  0.0182
40574W        W49374  13.605   1.348   1.193 -0.1159 -0.0775  0.1714
40575W        W49375  24.841   4.069   3.732  0.0162  0.2273  0.2114
40576W        W49376   0.691   4.461   6.509  0.1526  0.0530  0.1311
40577W        W49377  25.114   1.139  20.811  0.0511 -0.1537  0.1322
40578W        W49378  10.670   1.820   5.902 -0.0790  0.0211  0.0237
40579W        W49379   3.479   0.018  29.520  0.1012  0.0350  0.0217
40580W        W49380  20.282   2.617  15.323 -0.0418  0.0406 -0.1452
40581W        W49381  18.274   1.873  14.733  0.1833 -0.1704 -0.3078
40582W        W49382   5.230   4.293   0.546  0.1337  0.0863 -0.0523
40583W        W49383  17.466   5.729  20.346  0.0254  0.1754  0.0055
40584W        W49384   5.463   3.493  33.477  0.0353 -0.0519  0.1026
40585W        W49385  16.706   0.374   7.404  0.1113  0.0224 -0.0180
40586W        W49386  12.253   1.631   5.230  0.1046  0.0889  0.1090
40587W        W49387  22.658   4.832  23.193  0.1826 -0.4554  0.0729
40588W        W49388  23.494   5.924   3.954 -0.0387  0.1721  0.0788
40589W        W49389  19.210   4.931  10.511  0.0929  0.1531 -0.0488
40590W        W49390  14.924   5.542   4.502 -0.1625 -0.1863 -0.1880
40591W        W49391   8.440   6.183   1.165 -0.2202  0.1175  0.1847
40592W        W49392  25.122   1.333   7.268 -0.0875  0.0663 -0.0104
40593W        W49393   8.195   5.774   0.409  0.0910  0.1285  0.0104
40594W        W49394  16.354   1.956   0.909  0.1027 -0.0994  0.1921
40595W        W49395   6.581   0.767  29.461 -0.2676 -0.0883 -0.1815
40596W        W49396   0.276   3.657  21.380  0.3483 -0.0358 -0.0448
40597W        W49397  23.549   1.412   2.646  0.0835 -0.0039  0.4238
40598W        W49398   1.974   1.298  30.547  0.0976  0.0689 -0.0205
40599W        W49399   1.804   4.160  34.669 -0.3364 -0.1754  0.1712
40600W        W49400  14.158   4.807  14.894 -0.0400 -0.0426 -0.0078
40601W        W49401  10.047   0.507  24.286  0.2778 -0.2190 -0.1094
40602W        W49402   3.352   4.323  21.992  0.1146 -0.0256  0.5304
40603W        W49403   1.429   1.287   3.473 -0.1867  0.0502 -0.1006
40604W        W49404   1.056   1.512   7.929 -0.1602 -0.1182 -0.1851
40605W        W49405   6.499   1.628  15.715 -0.0093  0.2746 -0.2260
40606W        W49406   5.365   6.015   7.763 -0.0337 -0.0225 -0.2522
40607W        W49407   9.467   5.037  10.740  0.0355 -0.0405 -0.0939
40608W        W49408   8.815   5.198  14.036  0.0432 -0.0096  0.1655
40609W        W49409  19.823   6.534  10.888  0.1693 -0.0067  0.0119
40610W        W49410   6.098   3.945   3.703  0.0310  0.1105 -0.1165
40611W        W49411  12.823   4.359   6.358 -0.1305  0.0194  0.2728
40612W        W49412  14.285   5.536  32.063  0.1812  0.0446 -0.0359
40613W        W49413  17.179   1.113  14.113 -0.1999 -0.2029 -0.0265
40614W        W49414  20.215   2.014  35.266  0.0594 -0.3323  0.1337
40615W        W49415   0.691   2.858  13.642 -0.0676 -0.1620 -0.1723
40616W        W49416  17.747   6.414  21.458  0.2410  0.1212 -0.1663
40617W        W49417  16.706   3.141  12.000 -0.2088 -0.0613 -0.0038
40618W        W49418   2.312   2.165  25.031 -0.1486  0.2078  0.1367
40619W        W49419   4.275   4.219  11.044  0.2486 -0.0143  0.4029
40620W        W49420  21.974   6.308  22.165 -0.1197 -0.0619 -0.1017
40621W        W49421  25.432   3.003  24.334  0.4620 -0.2672  0.1890
40622W        W49422   0.688   1.047  11.279  0.0644  0.0952 -0.2835
40623W        W49423   4.099   3.191   5.908 -0.1993 -0.2032 -0.1552
40624W        W49424  12.037   3.488   2.821  0.2352  0.1605  0.2477
40625W        W49425  17.291   3.712  30.029 -0.0282  0.1910  0.0956
40626W        W49426  21.906   0.287   7.759  0.1356  0.0541 -0.0200
40627W        W49427   5.344   0.629  14.189 -0.0131 -0.0690  0.3876
40628W        W49428  15.951   4.738   6.271 -0.0094  0.0253 -0.1808
40629W        W49429   6.518   2.279  23.636 -0.0568 -0.0365 -0.1431
40630W        W49430  10.705   2.665  12.265 -0.1702 -0.4529 -0.3517
40631W        W49431   2.812   3.619   6.462 -0.2933 -0.2172  0.2014
40632W        W49432   6.939   2.882  21.784  0.1247  0.1873  0.0600
40633W        W49433   8.470   3.086   6.681 -0.1894  0.1162  0.3107
40634W        W49434   4.062   6.041   3.352  0.2603  0.1644 -0.2389
40635W        W49435   3.442   3.475  27.740 -0.1649  0.2067  0.2880
40636W        W49436   6.027   0.207  14.383 -0.1434 -0.1493 -0.0413
40637W        W49437   3.834   2.261  28.028  0.1800 -0.0791  0.2589
40638W        W49438   3.407   5.152   6.944 -0.0968  0.0679 -0.0290
40639W        W49439  14.067   5.279   7.545  0.1091  0.0374 -0.1925
40640W        W49440  22.331   0.882  34.917  0.1864 -0.1151  0.3461
40641W        W49441   6.836   3.668  30.784  0.0706  0.1311  0.0766
40642W        W49442   2.907   1.571  25.355  0.0926 -0.1116 -0.1714
40643W        W49443  12.614   5.708  35.787 -0.1456  0.0572 -0.2022
40644W        W49444   6.032   2.496   3.482  0.1948 -0.0173 -0.2332
40645W        W49445  25.851   0.586   8.420 -0.1629 -0.2161 -0.0087
40646W        W49446  21.250   4.357  24.796 -0.1821 -0.0650 -0.1485
40647W        W49447  13.105   0.447  29.684  0.3810  0.1037  0.2930
40648W        W49448  15.888   1.587  21.811  0.0937 -0.0537 -0.0224
40649W        W49449   2.384   5.438  34.862  0.0639  0.4119 -0.5744
40650W        W49450  22.526   0.255  12.592 -0.0320 -0.0288 -0.0358
40651W        W49451   5.896   2.838   7.332 -0.0444 -0.2844 -0.1166
40652W        W49452  15.257   4.783  33.767 -0.0825  0.1744  0.0472
40653W        W49453  20.043   0.761   1.860 -0.1718 -0.1991 -0.0846
40654W        W49454  23.799   2.724  25.311 -0.3851  0.0295  0.2834
40655W        W49455  18.081   3.983  23.282 -0.1538 -0.3221  0.1258
40656W        W49456   9.823   3.335  12.972 -0.0483  0.0356  0.0733
40657W        W49457  20.170   6.198   3.110 -0.0904  0.1077 -0.2328
40658W        W49458  25.986   4.773  30.895  0.2074  0.2395 -0.1687
40659W        W49459  12.003   6.347  24.127  0.0515  0.0132 -0.0936
40660W        W49460  17.028   3.288  32.328  0.1766  0.0635  0.0885
40661W        W49461  10.344   3.722   1.736 -0.1821  0.0186 -0.0680
40662W        W49462  10.255   0.217  10.818 -0.1641 -0.0778 -0.1712
40663W        W49463  15.873   0.284  12.633  0.0366  0.0316 -0.1226
40664W        W49464  20.907   4.209  34.468 -0.0090  0.1590  0.1528
40665W        W49465  15.806   3.398   7.977  0.1689 -0.4130 -0.2728
40666W        W49466  14.440   0.734   0.995  0.2329 -0.0100  0.0547
40667W        W49467  10.772   1.783  13.544  0.1099 -0.1441  0.1435
40668W        W49468   9.664   3.249  21.757  0.0379  0.0548 -0.0977
40669W        W49469  21.060   5.072  33.008  0.3064  0.3466  0.1864
40670W        W49470   4.645   0.152   7.094  0.1144 -0.1956  0.1504
40671W        W49471  15.315   2.161  10.539  0.1474 -0.0283  0.2429
40672W        W49472  13.419   2.133  13.764 -0.0816  0.0475 -0.0593
40673W        W49473   6.460   6.066  32.438  0.1248  0.1614 -0.1144
40674W        W49474  18.554   1.435  35.355 -0.2082  0.1212 -0.3502
40675W        W49475  21.850   0.969  26.124  0.1835  0.0662  0.1174
40676W        W49476  10.403   5.747  30.386  0.1923 -0.2486 -0.0235
40677W        W49477  22.483   5.831   1.421  0.1478 -0.0649 -0.1015
40678W        W49478  26.287   0.437  25.756  0.2103 -0.1976  0.2338
40679W        W49479  23.557   2.061  33.658  0.2288  0.1269  0.2166
40680W        W49480   7.000   3.742  12.920 -0.1599 -0.1013 -0.1117
40681W        W49481   0.466   3.596  14.940 -0.0881 -0.1542  0.1485
40682W        W49482   5.964   2.893  31.369 -0.0583 -0.2147 -0.0923
40683W        W49483  22.376   2.812  11.417 -0.0639 -0.0770  0.2110
40684W        W49484  11.247   3.707   2.118  0.1989 -0.3571  0.1967
40685W        W49485  17.225   0.066   0.465  0.1372 -0.2902 -0.1047
40686W        W49486   2.623   4.306  34.196 -0.0552 -0.1149 -0.2056
40687W        W49487  24.323   4.189   4.986 -0.1766 -0.1690 -0.4615
40688W        W49488  25.486   2.224   7.529  0.1837  0.0593  0.1842
40689W        W49489  18.022   1.460  27.915  0.2634  0.2210 -0.2066
40690W        W49490  14.004   1.465  33.854 -0.2999 -0.1268  0.3135
40691W        W49491   6.654   4.533  33.641  0.1265 -0.0644 -0.0176
40692W        W49492   5.470   6.012   9.747 -0.1001  0.0163  0.2491
40693W        W49493   1.727   4.395  23.161 -0.1646  0.2175  0.0148
40694W        W49494  20.884   0.864  22.971 -0.2065 -0.0183  0.2854
40695W        W49495   4.235   0.968  32.194 -0.1124 -0.1725  0.1732
40696W        W49496  19.380   2.067  28.997 -0.0201  0.1186 -0.0548
40697W        W49497  19.106   4.723  10.959  0.1514  0.1034  0.1854
40698W        W49498  14.850   5.882  26.056 -0.0233  0.0739 -0.3292
40699W        W49499  17.419   6.266  28.614  0.0392 -0.0537 -0.2814
40700W        W49500   6.024   1.482   1.742 -0.0378  0.2872 -0.0900
40701W        W49501  20.243   0.386  10.840 -0.2120 -0.2587 -0.2298
40702W        W49502  18.579   2.743   4.040  0.1051 -0.1076 -0.1980
40703W        W49503  20.843   5.500  31.333  0.0561 -0.0136 -0.0684
40704W        W49504  20.982   1.227  10.978  0.1365 -0.0223 -0.0290
40705W        W49505  25.859   6.319  33.845  0.0370  0.1203 -0.1663
40706W        W49506  25.014   0.582  24.300  0.1294 -0.0238 -0.0585
40707W        W49507  19.459   1.454   1.415  0.2456 -0.1481  0.0050
40708W        W49508   9.804   4.919  30.404 -0.0073  0.1930 -0.0582
40709W        W49509  21.120   6.482  29.743  0.1740  0.1709  0.0726
40710W        W49510   2.204   3.637  14.188 -0.1042 -0.0793  0.0663
40711W        W49511  26.058   3.355   2.156  0.3310  0.1011  0.1341
40712W        W49512   2.314   3.047  33.817  0.1855  0.0785 -0.1576
40713W        W49513   5.801   3.774  29.436 -0.1589  0.0188  0.2817
40714W        W49514  11.690   5.842  22.797  0.0189  0.1332 -0.0208
40715W        W49515  18.458   1.186  15.233 -0.1618 -0.0591 -0.3317
40716W        W49516  22.513   4.276  26.674 -0.2845 -0.0861  0.2632
40717W        W49517  17.815   1.747  20.631  0.1899  0.2214 -0.2225
40718W        W49518   9.926   1.772   3.315  0.1683  0.0716  0.3041
40719W        W49519  20.958   3.621  28.252 -0.1896  0.1964 -0.2150
40720W        W49520  14.317   2.868   5.112 -0.3256  0.0115 -0.1161
40721W        W49521  19.262   3.803  33.920  0.1352  0.2475 -0.2211
40722W        W49522   7.308   3.522  25.341 -0.1505 -0.1815 -0.1590
40723W        W49523  23.506   1.732  12.986 -0.0588 -0.2515 -0.3209
40724W        W49524  21.432   1.527  34.671 -0.2058  0.1683 -0.1429
40725W        W49525  21.854   6.557  31.732 -0.0594 -0.0756 -0.1087
40726W        W49526   3.725   5.040  24.902 -0.1458  0.0913  0.1696
40727W        W49527   0.749   0.363  25.733 -0.0226 -0.1353 -0.1677
40728W        W49528  15.009   5.975  27.076 -0.0319 -0.1567  0.3588
40729W        W49529   4.946   3.814  35.809  0.0721 -0.3115  0.0324
40730W        W49530   1.186   2.192   3.149  0.1719  0.2298 -0.1577
40731W        W49531  22.882   4.864  34.152 -0.1607 -0.1373 -0.0693
40732W        W49532   3.827   5.376  20.846 -0.1707 -0.1840 -0.1886
40733W        W49533   1.349   5.966   0.632  0.0501  0.0346 -0.1831
40734W        W49534   7.529   0.187  27.372  0.2733 -0.0423  0.1909
40735W        W49535  17.474   4.214  26.592  0.1339 -0.2532  0.0924
40736W        W49536   0.103   0.254  25.226 -0.1542 -0.2487 -0.0378
40737W        W49537  10.925   2.175  14.332 -0.1046  0.0968  0.0619
40738W        W49538  23.368   6.393  30.451 -0.0306 -0.0684  0.0729
40739W        W49539   9.951   5.875  22.765  0.2776  0.1212 -0.1542
40740W        W49540   8.438   5.619  24.581 -0.1609  0.2597  0.3473
40741W        W49541   6.067   1.672  15.373  0.2594 -0.3275 -0.4425
40742W        W49542   3.958   3.026  25.097 -0.0136 -0.0647  0.0459
40743W        W49543  13.051   4.603  11.458  0.0031 -0.1623  0.0710
40744W        W49544  14.493   2.364   0.519  0.0724 -0.0049  0.0006
40745W        W49545  20.491   4.125  24.769  0.2910 -0.1014  0.2352
40746W        W49546  17.154   5.984  27.365 -0.2610  0.0377 -0.0654
40747W        W49547   5.225   4.167   1.554 -0.3376  0.2727  0.2582
40748W        W49548  19.374   4.169  22.912 -0.2896 -0.0927 -0.4500
40749W        W49549  21.171   0.521  14.421  0.1120 -0.0873 -0.0275
40750W        W49550  24.744   2.870  34.608 -0.2541 -0.0850  0.1120
40751W        W49551   1.563   1.278  21.878  0.2053 -0.2085 -0.1508
40752W        W49552  23.513   4.543   8.563 -0.2462 -0.1907 -0.2710
40753W        W49553  15.408   5.436  25.346  0.1274 -0.1298  0.2159
40754W        W49554  25.974   0.159  14.453 -0.1678 -0.0688  0.1572
40755W        W49555   0.763   5.445  35.799  0.0572  0.2664 -0.0436
40756W        W49556  24.485   0.989   5.851 -0.2816  0.2181  0.0185
40757W        W49557  16.505   5.020   3.745  0.2748 -0.2111 -0.0727
40758W        W49558   1.997   3.286  10.488  0.0435  0.1859  0.3132
40759W        W49559  23.475   0.463  22.884 -0.1386 -0.1007 -0.2196
40760W        W49560  26.377   3.215  28.404  0.1053  0.1690  0.1002
40761W        W49561  21.655   5.216  14.129 -0.2129 -0.0381  0.2099
40762W        W49562   3.366   5.765   1.707  0.3430 -0.0948  0.2108
40763W        W49563  20.834   2.245  32.884 -0.1002 -0.3080  0.0482
40764W        W49564  13.975   4.504   9.160  0.0166  0.0963  0.0275
40765W        W49565  26.192   4.895  24.192  0.2052 -0.1876  0.2549
40766W        W49566  17.354   0.037  10.058  0.3364  0.0836 -0.0914
40767W        W49567  10.254   5.880  29.956  0.3519 -0.1321  0.1404
40768W        W49568   8.079   4.834   9.934 -0.2351  0.0751 -0.2310
40769W        W49569   8.540   0.365   3.956 -0.2280 -0.0832  0.0575
40770W        W49570   8.804   5.394  24.948  0.1043 -0.1856  0.2669
40771W        W49571  10.927   3.341  21.577 -0.3024 -0.2730  0.0257
40772W        W49572   3.977   0.858  15.217 -0.0603  0.1245  0.5851
40773W        W49573   5.164   1.942  28.684 -0.1963  0.2245  0.1699
40774W        W49574  16.641   6.009  27.266  0.2415  0.0830  0.0869
40775W        W49575  21.613   0.970  30.853 -0.2647  0.2980  0.0819
40776W        W49576   3.105   0.933   3.888 -0.2107  0.1433 -0.1251
40777W        W49577  20.707   5.276   8.014  0.0756 -0.1071  0.0500
40778W        W49578   4.039   6.402  35.744 -0.2531  0.0797 -0.1018
40779W        W49579  24.437   4.066  33.685 -0.3506 -0.0150  0.0493
40780W        W49580   1.226   5.244   9.198  0.0621 -0.1341  0.2445
40781W        W49581  11.008   4.164  32.399 -0.0412  0.0396  0.0728
40782W        W49582  18.297   3.002  10.074  0.0084 -0.2449  0.1490
40783W        W49583  18.982   0.371  23.886 -0.2381  0.0306 -0.1180
40784W        W49584   1.852   0.148  26.505  0.0726  0.0858  0.1592
40785W        W49585   4.692   2.420  11.435 -0.1274 -0.0329  0.0812
40786W        W49586  13.195   4.299  27.045  0.0541  0.2063 -0.1367
40787W        W49587   0.156   2.446  10.944  0.4208  0.3141  0.1844
40788W        W49588  19.930   2.742  34.407  0.3834  0.0924  0.0666
40789W        W49589  18.054   3.633   9.643 -0.0473  0.1271 -0.4126
40790W        W49590  11.510   2.453  29.765 -0.1249 -0.0607  0.1089
40791W        W49591  15.412   3.885  28.975  0.1545  0.0900  0.1298
40792W        W49592   7.617   1.569  12.616 -0.3075  0.1244  0.4165
40793W        W49593   0.333   5.698  10.063 -0.1905 -0.0559  0.0301
40794W        W49594  25.878   5.067  14.909 -0.1271 -0.1099 -0.3336
40795W        W49595  23.356   2.598  22.152  0.1181 -0.0408 -0.1473
40796W        W49596   2.808   3.361  27.641 -0.0239  0.1934  0.0171
40797W        W49597  22.585   4.682   3.343  0.0270 -0.0554 -0.0670
40798W        W49598  23.026   3.279  14.438  0.1044  0.2045  0.2101
40799W        W49599  13.615   3.762  11.401 -0.0316  0.1842  0.1419
40800W        W49600   0.232   5.025   7.620  0.1774  0.0554  0.2645
40801W        W49601   0.605   5.315  35.304 -0.3128  0.2648 -0.0463
40802W        W49602  18.814   4.451   7.638 -0.5942 -0.2144 -0.1060
40803W        W49603  12.001   0.385  12.512  0.1047 -0.2315  0.0272
40804W        W49604  25.521   0.074  29.558  0.0590  0.0293  0.0804
40805W        W49605   9.188   0.068  27.944  0.0143  0.1331  0.0575
40806W        W49606   1.412   2.447  29.947 -0.0985  0.2201 -0.1277
40807W        W49607  11.296   0.825  31.503 -0.2449  0.0770 -0.2204
40808W        W49608  13.571   1.148   7.116  0.1910 -0.0572 -0.1794
40809W        W49609   3.526   0.996   7.410 -0.3113 -0.2605  0.0396
40810W        W49610  25.235   2.763   2.388  0.0198 -0.0490  0.0370
40811W        W49611   7.248   6.076  35.135  0.2828 -0.2035  0.1354
40812W        W49612   7.045   6.281  12.207  0.2230  0.1201  0.1785
40813W        W49613  15.040   5.906  28.871  0.0449 -0.2046  0.2564
40814W        W49614  15.269   1.651  10.016 -0.0230 -0.0900 -0.0931
40815W        W49615  16.563   4.737   0.136  0.0628 -0.1280  0.3528
40816W        W49616  11.274   0.197  10.264 -0.0632 -0.0948 -0.1953
40817W        W49617   5.075   5.929   1.973 -0.3404  0.1505  0.2795
40818W        W49618   5.596   0.467   0.079  0.0118 -0.1998  0.0211
40819W        W49619   0.254   2.908  13.138 -0.1637 -0.2173 -0.0932
40820W        W49620   9.930   2.989  13.954 -0.2378 -0.1766  0.3600
40821W        W49621   5.258   5.154  27.792 -0.1177 -0.2693 -0.0478
40822W        W49622   0.342   4.434  24.820 -0.0582 -0.0790 -0.2697
40823W        W49623  15.763   3.397  10.251 -0.0253  0.0282  0.1041
40824W        W49624  15.804   1.732  29.132  0.0369 -0.0748  0.2118
40825W        W49625   8.217   6.301  11.502 -0.1263 -0.1204  0.1224
40826W        W49626   0.712   5.324   4.842 -0.0765 -0.1961 -0.1368
40827W        W49627   9.608   2.800  35.750 -0.0525 -0.2391 -0.3107
40828W        W49628   6.101   2.899  34.675  0.1059 -0.1391 -0.0011
40829W        W49629  16.943   5.664   6.729 -0.0377 -0.1185  0.0051
40830W        W49630   5.871   2.637   0.035 -0.0177  0.1081 -0.1828
40831W        W49631   4.724   1.305  34.807  0.0573  0.1553 -0.0967
40832W        W49632   0.168   1.592   4.386 -0.0237  0.0328 -0.0028
40833W        W49633  22.308   6.524  33.915  0.2309  0.2344  0.0770
40834W        W49634  16.246   6.325  34.052 -0.1725 -0.1114  0.0904
40835W        W49635   9.311   2.684   0.484  0.0771 -0.2274  0.1608
40836W        W49636  20.017   4.051  35.613  0.0267 -0.1725  0.0327
40837W        W49637   0.671   1.636   8.781 -0.1902  0.1643 -0.1142
40838W        W49638   0.815   5.303  11.347 -0.1819 -0.1497 -0.0317
40839W        W49639  22.571   5.981   8.782 -0.1241 -0.1814 -0.1106
40840W        W49640  10.923   6.387  21.081 -0.0004 -0.1617 -0.2768
40841W        W49641  25.351   1.728   4.912  0.1831 -0.0516  0.0827
40842W        W49642  17.661   3.968   0.656 -0.2019  0.1024 -0.2031
40843W        W49643   3.344   0.710  32.265  0.1926  0.1864  0.1126
40844W        W49644   0.803   5.305  23.694 -0.0527  0.0015 -0.0070
40845W        W49645  10.940   5.302   1.313  0.0788 -0.0811 -0.1510
40846W        W49646  15.273   1.872  29.662 -0.1938  0.0172 -0.3521
40847W        W49647  23.710   1.698  32.894 -0.1967 -0.1807 -0.2498
40848W        W49648  12.060   3.368   8.686  0.0680 -0.0057  0.2390
40849W        W49649  13.858   6.165   5.344  0.0308 -0.0124 -0.1643
40850W        W49650   5.501   2.859   0.785 -0.0502  0.0097  0.1627
40851W        W49651  19.025   5.240   6.571 -0.3607  0.4190 -0.0728
40852W        W49652   4.105   5.496  23.706  0.1278  0.1035 -0.0572
40853W        W49653  21.371   2.609  30.214 -0.0301 -0.0655  0.1467
40854W        W49654   8.068   2.390   9.878  0.0789 -0.1981 -0.2601
40855W        W49655  21.735   0.319  14.760 -0.3599 -0.1638 -0.1395
40856W        W49656  11.815   5.043  27.833 -0.1305  0.0469  0.1483
40857W        W49657  14.264   0.019   4.187  0.2340  0.1205  0.0005
40858W        W49658  17.766   0.526   1.998  0.1598 -0.1440 -0.1917
40859W        W49659  23.737   2.075  35.898 -0.0334 -0.1381  0.3117
40860W        W49660  17.390   4.205  29.901  0.2685  0.0870 -0.0900
40861W        W49661   3.797   5.333   1.052 -0.1836  0.3013  0.0574
40862W        W49662  14.806   5.629  31.837  0.0083  0.0412 -0.0112
40863W        W49663  15.318   4.288  23.517  0.0778 -0.1641  0.0622
40864W        W49664  18.762   1.556  15.104  0.0785 -0.0742 -0.1576
40865W        W49665  18.843   4.324  26.829 -0.0855 -0.1320 -0.2028
40866W        W49666   7.992   3.948  14.357 -0.0068 -0.1632 -0.0587
40867W        W49667  25.488   3.949  34.008 -0.1082 -0.0401  0.2946
40868W        W49668   8.602   3.648  25.930 -0.0182 -0.4373 -0.3030
40869W        W49669  14.560   1.655  30.865  0.0089  0.1691  0.0210
40870W        W49670  11.656   4.815  31.041 -0.0766  0.3612 -0.0823
40871W        W49671  17.140   3.181  30.269  0.1374  0.2219  0.0291
40872W        W49672  10.799   0.309  27.523  0.0754 -0.0301 -0.1627
40873W        W49673  20.359   5.827  13.755 -0.1631 -0.0395 -0.0170
40874W        W49674  25.930   3.193  25.068  0.0535 -0.1424  0.0519
40875W        W49675   9.940   6.029  30.362 -0.1357 -0.0699 -0.0825
40876W        W49676   1.136   0.034  30.656 -0.1516 -0.0927  0.1955
40877W        W49677  12.075   6.398   3.771  0.1940  0.4136 -0.0534
40878W        W49678  21.267   4.085  30.167 -0.2201  0.2019  0.0234
40879W        W49679  20.107   6.368  29.994 -0.2401 -0.2569  0.2823
40880W        W49680  21.752   1.672  21.594  0.1113 -0.1811 -0.2030
40881W        W49681  20.405   3.942   5.558  0.2985 -0.1299  0.1123
40882W        W49682  15.558   3.072  26.371  0.2168  0.1811 -0.0335
40883W        W49683  25.292   1.670  29.004 -0.1647 -0.0490  0.1183
40884W        W49684  20.601   1.089   2.768 -0.2120  0.3720  0.4701
40885W        W49685   3.154   2.297   9.962 -0.2041 -0.0015 -0.1127
40886W        W49686  15.555   6.341   9.243 -0.1292  0.0703 -0.0224
40887W        W49687  17.841   2.350  12.102  0.1596 -0.3789 -0.0884
40888W        W49688  19.303   3.626  25.390 -0.2010 -0.0303  0.1594
40889W        W49689  24.569   3.772  31.879  0.2821 -0.0775  0.0824
40890W        W49690  19.296   1.757  32.066 -0.2181  0.0627  0.1484
40891W        W49691  18.325   2.969   1.487  0.1003 -0.0401 -0.3139
40892W        W49692  24.701   1.092   3.139 -0.2983  0.1398  0.3288
40893W        W49693  10.001   1.150  13.459 -0.1697  0.0302  0.1058
40894W        W49694  22.361   1.491  15.329  0.0000  0.0543 -0.1654
40895W        W49695   1.375   1.023  25.940 -0.0734 -0.2284  0.2607
40896W        W49696  22.104   4.929  24.666 -0.1323  0.1787 -0.4844
40897W        W49697   2.872   0.555  14.594 -0.3029  0.2098  0.1087
40898W        W49698  17.745   1.777   8.839 -0.0223 -0.2036 -0.0263
40899W        W49699  16.243   4.662  28.021 -0.2923 -0.2905  0.0795
40900W        W49700  25.858   1.467  26.766 -0.0894  0.0178 -0.0515
40901W        W49701   7.787   5.401  14.727 -0.0965  0.1743 -0.1916
40902W        W49702   7.603   0.625   0.975  0.0306  0.0075  0.1623
40903W        W49703  24.419   5.535  20.483  0.1044  0.0671  0.1568
40904W        W49704   8.281   1.975  22.835 -0.1635 -0.0177 -0.1649
40905W        W49705   5.881   5.285  15.461 -0.3892 -0.2172 -0.0979
40906W        W49706   3.831   5.220   3.451  0.1214  0.3458  0.0313
40907W        W49707  17.752   1.076  28.328  0.1028  0.1018  0.2517
40908W        W49708  22.707   0.860   4.711  0.1523  0.1377 -0.0234
40909W        W49709  11.816   2.955  21.502  0.0206 -0.0143 -0.1827
40910W        W49710  13.372   2.094  25.222  0.3723  0.0224  0.1561
40911W        W49711   1.405   4.795  31.607  0.0185 -0.1881  0.1241
40912W        W49712  11.735   5.672  10.654  0.1143  0.3122 -0.2396
40913W        W49713  22.289   0.914  32.136 -0.1562 -0.2486  0.0718
40914W        W49714  12.945   1.699   7.728 -0.2323  0.1526  0.2796
40915W        W49715   4.074   3.375  34.317 -0.0563 -0.2175  0.0307
40916W        W49716   6.497   1.214  12.720 -0.0446  0.0469  0.3135
40917W        W49717  17.182   6.572  28.925 -0.0061  0.0578  0.2666
40918W        W49718  15.249   5.788  15.655  0.1693 -0.1795  0.2604
40919W        W49719  25.004   0.848  11.672  0.0518 -0.2913 -0.0144
40920W        W49720   6.420   3.179  10.980  0.0320 -0.1342 -0.0444
40921W        W49721  10.221   3.603  13.463  0.0214 -0.1174  0.2942
40922W        W49722  21.901   0.366   1.699 -0.0810 -0.1441  0.0213
40923W        W49723  22.709   2.584  26.707 -0.2432 -0.1628  0.0256
40924W        W49724   8.977   3.407   9.045  0.1502 -0.0096  0.1958
40925W        W49725  13.722   3.240   4.350  0.1399 -0.1145 -0.0029
40926W        W49726  22.631   6.081  24.648  0.0492  0.0589 -0.2045
40927W        W49727   5.180   0.441  26.477  0.0661  0.1475  0.3822
40928W        W49728   2.864   2.104   6.313 -0.1242  0.0403 -0.0579
40929W        W49729   2.380   1.383   8.439 -0.0369  0.0744 -0.0020
40930W        W49730   4.831   2.673  28.339  0.1669 -0.0776  0.2038
40931W        W49731   0.945   4.190  21.010  0.2531 -0.2157 -0.1477
40932W        W49732  25.515   0.923  24.283 -0.0427  0.1444 -0.0393
40933W        W49733   1.341   3.896  14.054 -0.2152 -0.1277  0.0293
40934W        W49734  13.489   1.194   1.677  0.2367 -0.1384 -0.2404
40935W        W49735   3.754   0.821  14.189 -0.1618 -0.0069  0.1455
40936W        W49736  20.457   0.195  20.258 -0.0571  0.1973  0.2482
40937W        W49737   0.021   0.900  10.298  0.0190 -0.2171 -0.1151
40938W        W49738  12.034   5.994   7.151 -0.5417  0.2769  0.0172
40939W        W49739  24.188   4.278   7.764  0.0385 -0.2482 -0.3167
40940W        W49740  24.278   2.144  30.885  0.2740  0.0177 -0.0955
40941W        W49741   5.310   5.489  32.528  0.0306  0.1619 -0.1223
40942W        W49742  19.909   0.132  28.754 -0.3043  0.1294  0.1840
40943W        W49743  17.558   5.030  13.951  0.1359 -0.0633 -0.1646
40944W        W49744   3.511   6.023   7.288 -0.0735  0.1103  0.1295
40945W        W49745  22.642   1.214  31.966  0.0463  0.1912  0.1291
40946W        W49746  12.724   3.839   2.304  0.0894 -0.0398 -0.0721
40947W        W49747   9.700   0.698  14.581 -0.1852 -0.1741 -0.0483
40948W        W49748  22.241   1.176  22.248 -0.0585 -0.0347 -0.1045
40949W        W49749  20.514   2.568  35.334 -0.1922 -0.0827  0.1575
40950W        W49750   0.456   1.790  23.444  0.1279 -0.0571 -0.0961
40951W        W49751  13.051   5.222  35.936 -0.0855 -0.4899  0.3259
40952W        W49752  13.219   4.670  21.678  0.4154 -0.0464  0.0876
40953W        W49753   5.203   2.927   4.422  0.0969  0.1662 -0.0072
40954W        W49754  19.056   0.204  29.167 -0.0257  0.1725 -0.1384
40955W        W49755  10.201   2.316  26.755 -0.1768 -0.0418 -0.1997
40956W        W49756  25.701   0.841   9.526 -0.3635  0.0437  0.1428
40957W        W49757   5.581   1.885  23.883  0.1730 -0.0156  0.0908
40958W        W49758  19.583   4.741  21.450 -0.1181  0.1888  0.1325
40959W        W49759  22.387   5.116  14.118  0.1754  0.0798  0.0739
40960W        W49760  22.901   5.078  14.178 -0.2985  0.0763 -0.0813
40961W        W49761  19.385   5.953  26.636  0.0504  0.1759 -0.1020
40962W        W49762  25.470   0.854  11.285 -0.0444  0.0542 -0.2634
40963W        W49763  18.856   5.387   4.227  0.1142 -0.1437 -0.1737
40964W        W49764   6.382   5.465   7.678 -0.0682 -0.1526  0.0940
40965W        W49765   0.649   6.508  31.449  0.1734  0.2289  0.0315
40966W        W49766   4.263   5.402  22.822  0.0741  0.0773  0.0081
40967W        W49767   3.269   0.954  31.070  0.1415 -0.1517  0.0147
40968W        W49768  15.275   0.676  26.830 -0.1260 -0.0583 -0.0086
40969W        W49769  14.122   0.007  30.764 -0.2388  0.0456 -0.2427
40970W        W49770  13.974   1.778  15.950 -0.2557  0.2464  0.2278
40971W        W49771   5.648   0.242  14.043  0.0143  0.0835  0.2311
40972W        W49772  22.131   0.931  23.919 -0.1020 -0.0783  0.0176
40973W        W49773   7.089   3.932  14.013 -0.0833 -0.1894 -0.0511
40974W        W49774  24.406   3.297   9.303 -0.2369  0.2947 -0.1712
40975W        W49775  25.618   0.169  26.405  0.1587  0.2687 -0.0370
40976W        W49776  18.045   4.427  28.819 -0.2998  0.1801  0.2302
40977W        W49777   5.872   6.515  25.212 -0.0380 -0.0781 -0.0379
40978W        W49778  17.090   5.220  10.719 -0.5110 -0.2131  0.2062
40979W        W49779  10.679   3.315  11.683 -0.1153 -0.1940 -0.3310
40980W        W49780  11.728   3.447  25.993  0.1161 -0.1014  0.2842
40981W        W49781   3.271   4.808   4.747  0.1859 -0.2392 -0.2475
40982W        W49782  20.370   5.413  29.098 -0.0964 -0.1465 -0.1922
40983W        W49783  11.938   6.504   8.061 -0.0579 -0.0236  0.1633
40984W        W49784   6.546   6.188   6.232  0.1601 -0.2664  0.2267
40985W        W49785  24.803   1.958  23.673 -0.0682  0.0225  0.0723
40986W        W49786  22.981   1.640  30.194 -0.0530 -0.1988 -0.2003
40987W        W49787   4.361   2.339   3.217 -0.1317  0.1188 -0.1203
40988W        W49788   5.967   0.621  27.626 -0.1085 -0.0354 -0.0749
40989W        W49789  12.579   2.278   8.905 -0.1540  0.1362  0.0049
40990W        W49790  17.441   1.681   4.886  0.2938  0.1353  0.4192
40991W        W49791  13.933   0.497   1.124 -0.0428  0.1905  0.0156
40992W        W49792  12.686   1.160   7.229 -0.0038  0.2628 -0.1718
40993W        W49793  18.111   0.429  23.377  0.1331 -0.0167  0.2154
40994W        W49794   4.378   2.920  26.590 -0.3614 -0.0853 -0.2901
40995W        W49795  17.122   1.692  33.639 -0.0454 -0.0491 -0.0775
40996W        W49796  14.468   0.925   6.697  0.3653 -0.1029  0.4069
40997W        W49797   8.931   2.605   7.766  0.0154 -0.0946  0.2121
40998W        W49798   4.556   2.604   0.958 -0.0794  0.1934  0.3399
40999W        W49799  22.783   0.893  32.324  0.1317  0.0869 -0.2280
41000W        W49800  16.049   0.553  33.440 -0.3141  0.1036 -0.1109
41001W        W49801   5.810   0.879  12.232 -0.2515 -0.1076 -0.2964
41002W        W49802   8.585   6.221   5.762 -0.1493  0.3159  0.1341
41003W        W49803   6.559   6.302  12.333  0.2439 -0.3030  0.0610
41004W        W49804   7.056   1.320  30.423 -0.1933  0.0297  0.0123
41005W        W49805  13.243   6.574   5.522  0.3145  0.0934 -0.3073
41006W        W49806  17.891   2.956   5.120  0.0760  0.1192  0.0173
41007W        W49807  13.808   0.941  22.682  0.1648  0.2363 -0.0578
41008W        W49808  16.492   1.032  20.699  0.1709  0.0378 -0.2029
41009W        W49809   6.645   6.085  31.971 -0.1714 -0.0737 -0.1063
41010W        W49810   8.368   2.062   8.692  0.3374 -0.0860 -0.2950
41011W        W49811  23.205   5.628  31.781  0.2999 -0.2995 -0.1470
41012W        W49812  22.053   3.026  30.411  0.0156  0.0294 -0.0717
41013W        W49813   3.740   0.961   9.806  0.3598  0.1941  0.0263
41014W        W49814  26.121   3.788  24.349 -0.1367 -0.0239  0.0509
41015W        W49815   5.917   5.074   3.110 -0.1079 -0.0000  0.3520
41016W        W49816  22.993   4.490   4.268 -0.0325 -0.1657 -0.1095
41017W        W49817  14.766   0.532  32.625  0.0081 -0.2612 -0.1413
41018W        W49818  20.367   5.077  28.446  0.1234 -0.0647 -0.1886
41019W        W49819  22.361   2.798  29.202  0.1785 -0.1732  0.1170
41020W        W49820   5.599   3.384   1.245 -0.4452  0.0033 -0.0760
41021W        W49821  19.280   4.163  27.110  0.1498 -0.1549  0.1253
41022W        W49822  13.996   5.728   9.418 -0.2233  0.0959  0.0886
41023W        W49823   6.934   4.330  35.142  0.1599  0.1071 -0.1727
41024W        W49824   2.219   0.337   8.210 -0.0317  0.2064  0.0705
41025W        W49825  15.453   5.776   0.563  0.0754 -0.0986 -0.1683
41026W        W49826   6.651   4.930  34.524 -0.3376  0.1876 -0.2119
41027W        W49827  20.534   5.148  10.903 -0.0141 -0.1880  0.1968
41028W        W49828   6.700   2.448  21.122  0.1212  0.3900  0.0868
41029W        W49829  18.106   5.629  14.500  0.2202 -0.0803 -0.2731
41030W        W49830  11.708   6.102  21.024 -0.1469  0.1072 -0.0201
41031W        W49831  12.286   1.689  35.662  0.0247 -0.1632  0.0658
41032W        W49832  10.609   4.035  14.119 -0.0740  0.0033 -0.0305
41033W        W49833  23.566   0.219  10.129 -0.0418  0.0166  0.2276
41034W        W49834  17.722   0.911   3.389 -0.0607 -0.0382  0.2175
41035W        W49835  14.434   0.265   2.355 -0.1689  0.0239  0.1455
41036W        W49836  24.093   2.148  33.500  0.0552  0.0299 -0.1795
41037W        W49837  12.626   0.210   5.286 -0.0683  0.0090 -0.1101
41038W        W49838  20.592   4.652  31.200 -0.3146 -0.2594  0.1295
41039W        W49839   2.087   0.308  35.215  0.0940 -0.1949  0.3141
41040W        W49840   6.531   2.719  11.249  0.0291 -0.0988 -0.0875
41041W        W49841  12.058   3.023  15.754 -0.0631 -0.1355  0.0452
41042W        W49842  15.841   4.459  30.954  0.3099 -0.0667 -0.2168
41043W        W49843   8.810   0.219  20.528  0.2010 -0.0532 -0.0291
41044W        W49844   5.169   0.287  31.119 -0.2577  0.0103 -0.1501
41045W        W49845  12.873   6.359   4.871 -0.2813 -0.1270  0.1434
41046W        W49846  23.075   1.351  29.310  0.1247 -0.2831 -0.1892
41047W        W49847   5.859   1.452  29.194 -0.0026 -0.1168 -0.0145
41048W        W49848   7.735   5.948  32.580 -0.0444  0.1269 -0.1271
41049W        W49849  18.126   0.533  20.913 -0.0607  0.4850  0.0527
41050W        W49850  13.314   3.442  21.972  0.0782 -0.2394  0.3363
41051W        W49851  19.473   5.356   1.044 -0.1893  0.0970  0.1163
41052W        W49852   3.772   5.645  28.452  0.1269  0.6074 -0.1330
41053W        W49853  23.130   5.175  26.971 -0.0074  0.0723  0.5157
41054W        W49854   4.868   2.675  12.128  0.2999 -0.0556 -0.1673
41055W        W49855   9.518   4.195   7.086  0.1092  0.1548 -0.0928
41056W        W49856   3.641   0.289   1.119  0.0902 -0.5640 -0.1289
41057W        W49857  19.944   2.441   3.235  0.1610 -0.1668 -0.0917
41058W        W49858   7.367   6.330  28.321 -0.0735 -0.0302  0.2981
41059W        W49859  20.450   3.904   3.193 -0.5279 -0.0994  0.3221
41060W        W49860   2.525   6.343  25.814  0.1040 -0.0030  0.0054
41061W        W49861   4.890   1.986   6.855  0.3029 -0.0344  0.1760
41062W        W49862  18.030   2.961  21.408 -0.0464 -0.0131  0.2315
41063W        W49863  19.952   2.874  31.291 -0.1684  0.1365 -0.2063
41064W        W49864   2.291   5.099  26.580 -0.0698  0.1218  0.0770
41065W        W49865   2.127   1.671  30.076  0.1262  0.4120 -0.1809
41066W        W49866   6.029   0.582  26.829 -0.1792  0.0025 -0.0546
41067W        W49867  16.673   1.412  31.560  0.2462 -0.1867  0.1378
41068W        W49868  17.077   2.358   8.842  0.2755 -0.1395 -0.1385
41069W        W49869   6.397   3.500  15.838 -0.0317 -0.3346  0.2006
41070W        W49870  11.658   3.861  10.853  0.0358 -0.0812 -0.3678
41071W        W49871  18.261   5.551  21.444  0.2866 -0.2736  0.1091
41072W        W49872  18.936   2.598  27.505 -0.0298 -0.0591  0.2428
41073W        W49873   0.863   1.358  23.624  0.2451  0.0841 -0.2248
41074W        W49874  24.832   2.537  34.922 -0.2574  0.0103  0.0955
41075W        W49875  26.288   4.562  26.635  0.3202 -0.1285 -0.0290
41076W        W49876  12.549   0.219   1.887 -0.3276  0.0107  0.0432
41077W        W49877  26.282   1.979  32.363  0.1624  0.2067 -0.1608
41078W        W49878  11.896   2.679  21.069 -0.0515 -0.2731 -0.1151
41079W        W49879   2.604   4.572   9.505 -0.3272 -0.1903  0.1196
41080W        W49880  24.967   4.294   0.148 -0.0172  0.2646  0.1997
41081W        W49881  19.057   4.429  15.285 -0.0767 -0.1179  0.0487
41082W        W49882  20.744   2.943  11.037  0.1307  0.2016  0.1001
41083W        W49883   7.814   4.878   8.972 -0.2635  0.3654  0.1273
41084W        W49884   3.463   3.623  26.774 -0.0504  0.0240  0.2789
41085W        W49885  25.639   1.581  31.572  0.1245  0.4347 -0.2442
41086W        W49886   4.280   1.775  25.248 -0.0434  0.0378 -0.0669
41087W        W49887  24.990   4.285  15.650  0.0752  0.0438  0.1229
41088W        W49888  13.522   5.937  10.908  0.2769 -0.0729  0.3093
41089W        W49889  15.282   0.014   0.055  0.4202  0.2215 -0.0327
41090W        W49890  26.355   0.442  27.016  0.2397  0.1147 -0.0737
41091W        W49891  17.049   1.483   6.298 -0.1690  0.1745 -0.0347
41092W        W49892   6.088   5.674  15.240 -0.0154  0.0002 -0.0495
41093W        W49893   6.688   6.594  21.426 -0.1038 -0.2676  0.0018
41094W        W49894  18.644   4.085  15.057  0.0673 -0.3598 -0.0302
41095W        W49895   7.803   2.454   0.030 -0.0121 -0.0865 -0.2571
41096W        W49896  17.336   5.520  29.166 -0.0140 -0.1214 -0.0208
41097W        W49897  21.085   0.726  34.854  0.2656 -0.1562 -0.0541
41098W        W49898  25.211   3.060   3.737  0.1533 -0.2367  0.0176
41099W        W49899   2.635   6.505  28.490  0.0881  0.0326 -0.1505
41100W        W49900  17.286   6.361  21.263  0.0086 -0.0094  0.1433
41101W        W49901  17.434   4.166  30.416  0.0661  0.3239 -0.2718
41102W        W49902  22.208   4.929  33.416  0.1572 -0.1283  0.2178
41103W        W49903   2.733   1.449   2.531 -0.0080 -0.2301 -0.3254
41104W        W49904  25.769   4.219   8.546 -0.2182  0.1266  0.0669
41105W        W49905  24.025   5.366  13.601  0.1342  0.1483 -0.0111
41106W        W49906  14.397   5.185   3.996  0.0174 -0.1489 -0.0077
41107W        W49907  22.128   2.553   8.137 -0.0266 -0.1085 -0.3699
41108W        W49908  18.080   1.705  32.825 -0.1551 -0.0530 -0.0109
41109W        W49909   1.458   2.606  12.332 -0.0963 -0.1923 -0.0884
41110W        W49910  25.318   5.672  27.425  0.3758  0.0518  0.1438
41111W        W49911  12.855   1.666  27.250  0.1547  0.3000 -0.0218
41112W        W49912  19.382   2.294  20.792  0.1117 -0.0374  0.2775
41113W        W49913  12.890   4.477  12.567  0.0985  0.1351  0.0509
41114W        W49914   8.944   5.122  11.451 -0.0490 -0.1836  0.4701
41115W        W49915   9.025   3.363  11.853  0.0755  0.1872  0.0513
41116W        W49916  18.211   0.744  35.584 -0.0466  0.3983  0.0489
41117W        W49917  22.031   0.837  29.498 -0.2301 -0.1451 -0.0573
41118W        W49918   7.661   3.835  31.002 -0.2666  0.2525 -0.2434
41119W        W49919  17.506   2.108   0.194  0.0599  0.1443  0.1560
41120W        W49920  23.992   3.159  25.115 -0.1112 -0.1526 -0.4106
41121W        W49921  19.807   5.868  25.550 -0.1587 -0.0831  0.0855
41122W        W49922   8.746   5.773  10.896 -0.1593 -0.3155  0.1076
41123W        W49923  25.356   3.860  35.699 -0.3082 -0.1399  0.0304
41124W        W49924  22.820   3.172   3.657 -0.3050  0.2312  0.3904
41125W        W49925   7.219   4.838  23.102 -0.0841 -0.0698 -0.1290
41126W        W49926  20.063   0.742  14.463  0.0536 -0.0263  0.0790
41127W        W49927  25.672   0.584  34.025 -0.3820  0.0023  0.2029
41128W        W49928  15.839   3.352  13.023 -0.1475 -0.2948  0.0001
41129W        W49929  19.221   3.453   6.743  0.1038  0.0669 -0.2713
41130W        W49930  18.119   4.894  24.574  0.1363 -0.1730 -0.1071
41131W        W49931   8.294   6.175  10.572  0.0690  0.1551  0.1134
41132W        W49932  24.178   4.648   5.617  0.0115 -0.4013  0.1808
41133W        W49933   3.276   4.128  21.162  0.0171 -0.3865 -0.1285
41134W        W49934  14.386   2.419  25.879 -0.0507  0.0687  0.1379
41135W        W49935   0.046   5.475  11.893 -0.2537  0.0087 -0.0202
41136W        W49936   3.580   1.100  23.607  0.0817  0.0531  0.0028
41137W        W49937  17.795   3.219  30.805  0.1975  0.1381 -0.0908
41138W        W49938  13.833   4.154  14.451 -0.1840 -0.1667 -0.1371
41139W        W49939  20.683   1.259  25.413 -0.1165  0.0436 -0.0695
41140W        W49940  14.364   5.828  31.628  0.1799 -0.0554 -0.2346
41141W        W49941  26.148   1.115  13.662 -0.1606 -0.0675 -0.0198
41142W        W49942   5.928   1.925   4.004 -0.5183 -0.2223 -0.1523
41143W        W49943  14.432   4.729  28.081 -0.1032  0.2691  0.2308
41144W        W49944  10.756   2.383   8.097  0.0981  0.1712 -0.0859
41145W        W49945  14.543   2.927   7.553  0.0502  0.0073  0.2514
41146W        W49946   8.788   0.110  14.464 -0.1445  0.0541 -0.4693
41147W        W49947  23.978   1.081   7.397  0.1599  0.0278  0.0177
41148W        W49948  19.069   3.430  26.452 -0.0811  0.0222 -0.2251
41149W        W49949  16.057   1.693   6.335  0.2435  0.0091  0.1519
41150W        W49950  11.745   3.250   1.254  0.3408 -0.0515 -0.0933
41151W        W49951  13.480   4.994  29.639 -0.0722 -0.0505 -0.2333
41152W        W49952  18.137   1.004   5.421 -0.0335 -0.1846 -0.0025
41153W        W49953  13.249   2.679   0.706 -0.0450 -0.0169 -0.2670
41154W        W49954  19.699   4.787  32.634 -0.1811 -0.2604 -0.0661
41155W        W49955  21.632   4.125   1.944 -0.0405 -0.1445 -0.0760
41156W        W49956  18.178   5.409  35.058  0.2206 -0.0555  0.0059
41157W        W49957   5.594   1.560  36.017  0.0780 -0.3202  0.0821
41158W        W49958  17.696   4.629  26.827 -0.0583  0.0419 -0.1753
41159W        W49959  20.494   2.629   9.483 -0.2876 -0.2015  0.0926
41160W        W49960   5.233   3.065   1.204  0.0056  0.0058  0.0607
41161W        W49961   1.630   5.325  29.629  0.0278 -0.0436 -0.0135
41162W        W49962  23.548   2.935  33.518 -0.3503  0.2301  0.0179
41163W        W49963  14.072   4.676  26.848  0.2385  0.2655 -0.3417
41164W        W49964   6.111   4.984  11.172 -0.1670 -0.2979 -0.3260
41165W        W49965  15.103   4.458  26.147 -0.1668  0.0535  0.2861
41166W        W49966  13.676   1.270  26.951  0.0464  0.2007  0.1235
41167W        W49967  26.009   4.560  27.090  0.3150  0.1102 -0.0514
41168W        W49968   7.867   0.425   2.079 -0.2868 -0.0204 -0.0971
41169W        W49969   3.791   2.829   4.530 -0.1154  0.2321  0.0334
41170W        W49970   1.034   1.449  25.849  0.1625 -0.0075  0.3810
41171W        W49971  19.034   4.045   4.056  0.1253  0.2761  0.2275
41172W        W49972   1.251   5.207  12.071 -0.0259  0.1060  0.1967
41173W        W49973  13.101   3.921  33.313  0.0926 -0.0727 -0.4039
41174W        W49974  12.192   3.232  14.268  0.1309 -0.0568 -0.1702
41175W        W49975  12.816   2.641   1.639 -0.0292 -0.0926 -0.1700
41176W        W49976  14.228   4.284  29.780  0.3796  0.0738  0.0108
41177W        W49977  16.322   3.345  27.887  0.2492 -0.2789 -0.1345
41178W        W49978  22.867   5.578  33.513  0.0147  0.2896 -0.1415
41179W        W49979  15.307   5.005  10.104 -0.1502 -0.0505  0.1911
41180W        W49980  14.345   3.253   2.499 -0.0798 -0.0625 -0.2549
41181W        W49981   5.814   2.034  35.222 -0.2426 -0.1304  0.1553
41182W        W49982   8.948   4.799  14.302  0.0959  0.2245 -0.1561
41183W        W49983   2.814   5.834  22.854  0.0872 -0.1218 -0.2500
41184W        W49984  10.675   3.961   9.969 -0.0915 -0.0067  0.0070
41185W        W49985  21.347   1.556   0.525  0.0099 -0.0214 -0.2393
41186W        W49986  11.687   5.754   3.024  0.0068  0.2268 -0.3248
41187W        W49987  14.408   2.451  34.508  0.1517  0.1222  0.1101
41188W        W49988  17.205   2.142  27.498  0.1107  0.0361  0.1843
41189W        W49989  23.362   3.432  29.714 -0.0069 -0.0216 -0.0005
41190W        W49990   4.669   5.254   2.343 -0.1382  0.1051  0.1254
41191W        W49991   0.459   6.093  11.513 -0.0333  0.2019  0.1559
41192W        W49992  17.922   4.885  34.877 -0.0290  0.1381 -0.2132
41193W        W49993  11.343   3.507   7.019 -0.0304 -0.0214 -0.1117
41194W        W49994  21.291   0.033  28.285 -0.1949 -0.1439 -0.2934
41195W        W49995   8.609   5.963  32.112 -0.0928  0.2758  0.2211
41196W        W49996  22.816   0.967   0.579 -0.0409 -0.2016  0.0915
41197W        W49997   7.996   5.036  15.972  0.1976 -0.0021  0.1498
41198W        W49998   9.131   3.761   6.641  0.0831 -0.0194 -0.0157
41199W        W49999   4.123   4.875  12.154  0.0321 -0.1726  0.0573
41200W        W50000  17.700   4.843   7.856 -0.0748 -0.1141  0.1500
41201W        W50001  19.603   3.262  23.111 -0.0617 -0.2788  0.0861
41202W        W50002  12.737   6.311  11.345 -0.0871 -0.1206 -0.2692
41203W        W50003  11.910   4.370   1.908 -0.2667  0.0249 -0.2880
41204W        W50004   8.529   1.060  11.104 -0.0462  0.0601 -0.0879
41205W        W50005   3.978   6.236  29.358  0.2224  0.4400  0.0068
41206W        W50006   0.637   4.173   8.363  0.1590  0.1731  0.1370
41207W        W50007   9.146   0.807  21.292  0.0745 -0.2288 -0.1444
41208W        W50008   1.558   4.614  28.047 -0.1659  0.2264 -0.3288
41209W        W50009   3.755   3.041  22.141  0.0225  0.1525 -0.2354
41210W        W50010  10.682   2.398   3.561 -0.0739  0.0044  0.3320
41211W        W50011   6.041   3.725  11.839 -0.2674 -0.0297 -0.1251
41212W        W50012   1.950   4.623  34.994  0.1031 -0.2250 -0.0656
41213W        W50013   3.079   2.481  12.209 -0.1346 -0.2998  0.1378
41214W        W50014  22.816   0.257   1.780 -0.2489  0.0681  0.1865
41215W        W50015   5.875   2.294   7.915  0.1312 -0.0401 -0.0791
41216W        W50016  25.502   6.200   3.769 -0.0908  0.0350 -0.1455
41217W        W50017  19.519   6.069  30.813  0.2079 -0.2703  0.0475
41218W        W50018  13.834   0.053   9.447 -0.0854  0.2002 -0.1222
41219W        W50019  19.991   0.872  23.094 -0.1070  0.0887  0.1212
41220W        W50020   8.315   2.930   3.971 -0.1905 -0.0654  0.0258
41221W        W50021   7.101   2.720  14.308 -0.1244 -0.1685 -0.0900
41222W        W50022  18.504   1.653   0.319  0.1601 -0.0061  0.0767
41223W        W50023  22.218   4.960  30.347 -0.0286  0.0683  0.1000
41224W        W50024   6.929   0.475  24.878  0.1648  0.2036 -0.0134
41225W        W50025  13.723   5.134  13.594 -0.1550  0.3821  0.0225
41226W        W50026  24.833   4.542  33.862 -0.1119 -0.0741  0.1660
41227W        W50027  18.524   6.457  26.762  0.0573 -0.1379  0.1573
41228W        W50028  18.430   4.446  12.891  0.1441 -0.1613  0.2258
41229W        W50029  10.257   2.269  34.715 -0.1752 -0.1797 -0.0954
41230W        W50030   0.704   1.810  11.485 -0.0926  0.1346 -0.1890
41231W        W50031  21.579   2.728  15.268  0.1509  0.1108 -0.3435
41232W        W50032   7.085   2.690  21.379 -0.0334 -0.1525  0.0115
41233W        W50033  26.295   1.337  23.237 -0.2959  0.2851  0.0328
41234W        W50034   4.560   0.658  30.795 -0.1557 -0.1414  0.2259
41235W        W50035   0.783   0.984  27.936  0.2251  0.0105  0.1508
41236W        W50036  14.436   1.976  21.998  0.1189 -0.2143  0.2105
41237W        W50037  25.525   2.535   4.582  0.0701 -0.1929 -0.0434
41238W        W50038   5.858   6.042  34.058 -0.1523  0.2410  0.1640
41239W        W50039  22.789   6.038   9.331 -0.0566  0.1020 -0.0097
41240W        W50040  10.267   3.717  33.940  0.2189  0.0560  0.1590
41241W        W50041  13.895   0.986  22.205 -0.1080 -0.0341 -0.0374
41242W        W50042  10.687   0.020  36.017 -0.0554 -0.0624 -0.4368
41243W        W50043  10.590   1.265   5.211 -0.2469  0.0694  0.0607
41244W        W50044   8.801   4.370  21.006 -0.0772  0.2111  0.0246
41245W        W50045  15.191   3.314  10.780 -0.2449  0.0283  0.0446
41246W        W50046  16.129   3.579  33.713  0.2830 -0.1116 -0.0336
41247W        W50047  14.881   0.699   8.957  0.0969  0.0812 -0.0794
41248W        W50048  22.744   5.520  26.786 -0.0831 -0.1707 -0.1298
41249W        W50049  25.676   0.286  22.185  0.2260 -0.0266 -0.0960
41250W        W50050   2.878   4.517  13.816 -0.2296  0.2762 -0.1177
41251W        W50051  10.131   4.428  35.585  0.0651  0.1690 -0.1439
41252W        W50052  14.902   2.405  10.555  0.0434 -0.1461  0.3078
41253W        W50053  15.838   6.382   3.944  0.0772  0.0350 -0.1048
41254W        W50054  15.873   0.357   3.817  0.1187  0.2244 -0.0251
41255W        W50055  13.561   1.791   3.538  0.0016  0.4207 -0.2369
41256W        W50056  11.350   3.151  21.447 -0.2150  0.2740  0.0927
41257W        W50057   4.510   0.730  31.870 -0.2887  0.1715 -0.3149
41258W        W50058   0.701   2.919   5.501  0.2816  0.2251  0.1301
41259W        W50059   6.120   1.560  21.852 -0.1703 -0.1570 -0.0157
41260W        W50060   5.278   3.712   3.350 -0.0128  0.0921 -0.0579
41261W        W50061  25.100   1.054   8.789 -0.3094 -0.2004  0.0090
41262W        W50062   2.200   2.038   9.954  0.0343 -0.2508 -0.1311
41263W        W50063  20.079   2.091  14.488  0.0733 -0.1344 -0.0166
41264W        W50064  24.064   2.356  10.127  0.2642 -0.0324 -0.1343
41265W        W50065  19.065   5.571  29.575  0.1645 -0.2581  0.2721
41266W        W50066   5.022   5.375  14.471  0.0562  0.0407  0.1203
41267W        W50067  16.680   2.764  20.954 -0.0375 -0.1636  0.1065
41268W        W50068   4.149   0.308  31.941  0.1175 -0.1864 -0.2709
41269W        W50069  18.833   4.501  28.497 -0.0479 -0.1161  0.3231
41270W        W50070  25.189   4.241   9.264 -0.0851 -0.0716 -0.1092
41271W        W50071   5.981   4.641  29.873  0.0706 -0.1596 -0.2611
41272W        W50072   2.445   1.178  30.419 -0.2292 -0.0521  0.0506
41273W        W50073  18.163   2.135   0.520 -0.1294  0.0064 -0.3576
41274W        W50074  13.293   4.284   3.251  0.1663  0.2302  0.0595
41275W        W50075  25.124   3.753   6.811 -0.0629 -0.1962  0.1414
41276W        W50076  19.096   0.626  29.571 -0.5396  0.1630 -0.1111
41277W        W50077  13.043   2.257  32.152 -0.2632  0.0302  0.2196
41278W        W50078  18.636   4.428   5.881 -0.2028  0.0035  0.1923
41279W        W50079  22.622   3.464  14.073  0.3279 -0.2775 -0.2696
41280W        W50080  17.618   1.307  27.341 -0.1786  0.1493 -0.1167
41281W        W50081   3.520   0.087   5.058 -0.1039 -0.0891  0.1422
41282W        W50082  14.728   2.679  14.689  0.2432  0.1271 -0.1876
41283W        W50083   2.119   3.703  14.734  0.0870  0.1200 -0.1161
41284W        W50084  26.388   1.280   8.479  0.0212 -0.0748 -0.1423
41285W        W50085  23.196   2.388   4.973  0.2002  0.3531 -0.1889
41286W        W50086   0.276   3.609   1.617  0.1945  0.0429  0.0081
41287W        W50087   4.277   4.503  24.004 -0.0081 -0.0483  0.0802
41288W        W50088  14.669   3.583  23.370 -0.0481 -0.2423 -0.0912
41289W        W50089  12.074   6.263  23.128  0.0808 -0.3064 -0.1568
41290W        W50090  25.682   5.629   1.480  0.2530  0.0486 -0.1234
41291W        W50091   4.974   3.439  27.761  0.0242  0.0403 -0.2165
41292W        W50092   4.370   5.616  29.753  0.5888 -0.1476  0.4001
41293W        W50093  22.393   0.441   6.037 -0.1695  0.0156 -0.0546
41294W        W50094  21.728   3.008  30.030 -0.1283 -0.2812  0.1296
41295W        W50095  22.148   0.189  20.069  0.0902 -0.2472 -0.1130
41296W        W50096  19.666   1.646  33.239 -0.0798  0.0805 -0.0260
41297W        W50097  11.568   2.974   1.660  0.0301 -0.1723  0.0911
41298W        W50098  18.982   1.218  27.800 -0.1593  0.1451 -0.0487
41299W        W50099   6.944   2.472   9.312  0.1171  0.0108 -0.0759
41300W        W50100  13.583   2.291  15.295  0.1356 -0.1556  0.1051
41301W        W50101  14.939   5.344  35.223  0.1376 -0.2150 -0.0193
41302W        W50102  17.300   5.642   3.778 -0.3714 -0.2868 -0.0085
41303W        W50103  20.827   3.577   3.046 -0.0912 -0.1914 -0.1733
41304W        W50104  22.565   3.408   4.673  0.1299  0.0513  0.0921
41305W        W50105  18.159   1.547  34.523 -0.3026  0.0256 -0.1130
41306W        W50106   5.933   2.680   8.806 -0.1467 -0.3592  0.0812
41307W        W50107  18.227   2.240  28.370  0.0621 -0.1969 -0.2726
41308W        W50108  14.050   0.926  25.960 -0.0776  0.0361 -0.2895
41309W        W50109  12.190   3.494  31.310  0.0265  0.0882  0.0473
41310W        W50110  22.472   6.495  14.687  0.0922 -0.0650  0.1708
41311W        W50111  26.149   1.606  27.813 -0.0065 -0.0534 -0.0209
41312W        W50112  22.407   2.142  23.323  0.4165  0.1579 -0.1444
41313W        W50113   3.869   6.134   8.210  0.3791 -0.1757 -0.0013
41314W        W50114  16.427   5.874   5.575  0.1215  0.2015 -0.1114
41315W        W50115   8.288   1.038  26.096  0.2040 -0.0356 -0.2507
41316W        W50116  16.156   2.048  33.563 -0.0057 -0.1468  0.0592
41317W        W50117  24.666   5.283   4.265  0.0211  0.1221  0.0281
41318W        W50118   6.993   2.019  21.903 -0.1584  0.3124 -0.0283
41319W        W50119  20.764   1.115  32.912  0.1625  0.4171 -0.0096
41320W        W50120  14.845   2.275  11.975  0.0004  0.0968 -0.1143
41321W        W50121  25.521   6.414  11.937 -0.0310 -0.1912 -0.2108
41322W        W50122   8.340   4.854  24.140  0.0307  0.0075  0.1501
41323W        W50123  13.310   0.974   8.838 -0.0478  0.2093 -0.0581
41324W        W50124  10.814   4.965  32.591 -0.0153 -0.0212 -0.0530
41325W        W50125   0.660   0.309  35.314  0.2861 -0.1162 -0.2015
41326W        W50126  14.700   5.124  22.207 -0.0055 -0.1990 -0.2034
41327W        W50127  18.016   5.578  24.994  0.0230 -0.0883  0.1103
41328W        W50128  21.690   5.591  25.003 -0.0365 -0.0238 -0.2018
41329W        W50129  26.353   5.477  10.421  0.1622 -0.0850  0.0004
41330W        W50130   4.929   3.061  35.304  0.1997 -0.0575 -0.1240
41331W        W50131  10.765   3.853  10.471  0.0397  0.1574  0.2919
41332W        W50132  13.373   2.406   4.330  0.2553  0.2214  0.1096
41333W        W50133  10.113   5.532  29.543 -0.0381 -0.1059 -0.1134
41334W        W50134   9.160   4.348   1.432 -0.1550  0.2774  0.1223
41335W        W50135   3.777   1.322  22.198 -0.2240 -0.1518 -0.3397
41336W        W50136  16.086   5.903   8.821  0.0911 -0.2198 -0.2422
41337W        W50137   0.038   0.311   3.834  0.2564 -0.0024 -0.1249
41338W        W50138   3.343   1.567  21.675 -0.0683 -0.0775  0.0384
41339W        W50139   1.685   1.399   3.885  0.4072 -0.1144  0.3132
41340W        W50140   8.266   5.013   4.466  0.1275 -0.2947  0.2476
41341W        W50141  19.493   3.542  20.966 -0.0054 -0.1034  0.0459
41342W        W50142  21.779   4.226  33.084  0.0841 -0.0759 -0.1251
41343W        W50143  13.867   1.380  13.474  0.0033 -0.0250 -0.1264
41344W        W50144   4.916   1.007   6.824  0.0168  0.0596  0.1711
41345W        W50145  17.697   5.584   1.587  0.3076  0.0323 -0.2983
41346W        W50146  25.275   2.317  34.553 -0.0066 -0.4221 -0.0701
41347W        W50147  25.185   3.258  22.576  0.0895  0.0553 -0.3519
41348W        W50148  24.199   6.172  29.200  0.0545  0.0631 -0.2395
41349W        W50149   0.883   2.440  30.108 -0.1402  0.2603 -0.1929
41350W        W50150   7.883   5.433  27.109  0.1597  0.2587  0.0005
41351W        W50151  20.127   0.230   1.310  0.1877  0.1064 -0.0360
41352W        W50152  14.749   0.148  23.035 -0.0253 -0.0665 -0.1736
41353W        W50153   7.807   3.755  24.867 -0.1420  0.0594 -0.0434
41354W        W50154   0.430   4.328   2.907 -0.0513  0.0385 -0.0239
41355W        W50155  23.754   4.552   2.328  0.1846  0.1943  0.3808
41356W        W50156   2.728   5.737  31.834  0.0467 -0.0896 -0.1932
41357W        W50157   2.977   1.847  34.731 -0.1724 -0.2427 -0.1511
41358W        W50158  22.381   3.893  12.770 -0.0859  0.2376 -0.2930
41359W        W50159  13.314   4.303  31.695  0.0502 -0.1969  0.1261
41360W        W50160   9.723   0.307  29.074  0.0698 -0.0677  0.1841
41361W        W50161   9.165   0.673  27.044  0.2327 -0.2872 -0.2341
41362W        W50162  22.131   0.246  22.340 -0.2989  0.1105 -0.1369
41363W        W50163  26.290   5.508  31.122  0.0852  0.2062 -0.0333
41364W        W50164  12.862   0.316   9.188 -0.2901  0.1201  0.0865
41365W        W50165  18.608   5.911  27.784 -0.1367 -0.1551  0.0645
41366W        W50166  24.108   5.098   5.874 -0.3937  0.1229 -0.3220
41367W        W50167   8.117   3.262   5.920  0.1058 -0.0313 -0.1237
41368W        W50168   0.256   2.751   7.990 -0.0263  0.1941 -0.3038
41369W        W50169  10.346   2.316   0.062  0.1653 -0.2727 -0.2544
41370W        W50170  24.391   3.366  33.238 -0.3897 -0.0126  0.0647
41371W        W50171  23.584   6.490   6.364 -0.1698 -0.1337  0.2054
41372W        W50172  16.626   5.836  29.495 -0.0169 -0.0152 -0.0622
41373W        W50173  19.630   5.951   9.984  0.1004  0.0736  0.3916
41374W        W50174  16.669   4.222  33.868 -0.0015 -0.1057 -0.0113
41375W        W50175  16.867   6.001  34.606 -0.3875  0.2894 -0.2626
41376W        W50176   5.946   5.219  30.480 -0.0450 -0.2297 -0.0326
41377W        W50177  17.753   3.570  27.202 -0.1556 -0.1229  0.3456
41378W        W50178  21.046   2.123  23.263 -0.1575 -0.1169 -0.3733
41379W        W50179   4.137   5.139  29.574  0.0306  0.3673 -0.1504
41380W        W50180   6.839   3.435   4.888 -0.0983 -0.1322 -0.1115
41381W        W50181   8.647   1.951  26.656  0.2538 -0.1368  0.0369
41382W        W50182   1.491   3.247  35.968  0.0055  0.0307 -0.0758
41383W        W50183  15.713   3.943  15.822 -0.1856  0.5123 -0.1482
41384W        W50184  21.456   3.655  25.227 -0.0247 -0.0111 -0.0842
41385W        W50185  20.629   4.389   3.365 -0.1746  0.0318 -0.2919
41386W        W50186   6.221   5.496  29.576 -0.2767  0.0274 -0.0981
41387W        W50187  11.443   6.083   4.240 -0.0158  0.0167 -0.3381
41388W        W50188  13.637   4.768  21.441 -0.2294  0.1426 -0.0821
41389W        W50189   7.272   0.250  28.862 -0.0283 -0.1693  0.0003
41390W        W50190   4.268   4.007  28.292 -0.2337 -0.1333  0.0789
41391W        W50191  17.580   1.643   6.423 -0.0227 -0.0359  0.0576
41392W        W50192  25.141   6.532  29.203 -0.1196 -0.2050  0.0823
41393W        W50193  10.329   6.122   5.779 -0.1900  0.1605  0.0010
41394W        W50194  10.886   1.104   4.168  0.0359 -0.0788  0.1374
41395W        W50195  24.995   3.421  25.402 -0.2115  0.2956  0.0444
41396W        W50196  12.376   3.403  24.842 -0.2450  0.1007 -0.1347
41397W        W50197   8.766   4.675  22.889  0.0747 -0.0403  0.0247
41398W        W50198  14.017   4.027  33.093  0.1757  0.0451  0.3060
41399W        W50199   9.173   0.515  15.400 -0.0944 -0.0864  0.0025
41400W        W50200  25.310   2.878   7.364  0.1214  0.1226  0.3166
41401W        W50201  23.320   5.421  24.616  0.0261  0.0666 -0.1589
41402W        W50202  20.732   5.995  11.685  0.1930 -0.2223 -0.0530
41403W        W50203  15.141   5.895  30.426 -0.1507  0.0436 -0.2420
41404W        W50204  21.565   3.967  23.334  0.3012  0.3283 -0.0401
41405W        W50205  19.397   4.208  24.583  0.2109 -0.1038  0.1747
41406W        W50206  25.636   3.032  27.645  0.1115  0.0334 -0.0433
41407W        W50207   1.523   1.541   1.595 -0.0670 -0.0369  0.0207
41408W        W50208   7.280   5.526  22.901  0.1716 -0.0975 -0.0383
41409W        W50209   3.293   5.149  23.008 -0.0955 -0.1748  0.1351
41410W        W50210  15.534   3.104  26.904 -0.2794  0.1834 -0.1573
41411W        W50211  13.000   3.836  33.964  0.2563  0.3298  0.0144
41412W        W50212  15.059   4.257  33.106  0.0228 -0.3505  0.1201
41413W        W50213  19.003   0.830   1.908  0.1210 -0.0991 -0.1437
41414W        W50214  10.871   2.640  14.491  0.1059 -0.2259  0.1092
41415W        W50215  26.130   1.933  24.695 -0.2086 -0.3636  0.0339
41416W        W50216  10.190   1.807  26.723  0.0473 -0.0881 -0.0574
41417W        W50217  21.369   1.982  34.470 -0.1644 -0.0100  0.0952
41418W        W50218   6.806   3.565  23.167  0.2468  0.0886 -0.0210
41419W        W50219   7.033   2.172  11.399 -0.0856  0.0225 -0.2596
41420W        W50220   8.414   4.436  23.931 -0.0382  0.2431  0.0757
41421W        W50221  16.668   3.998   1.929  0.3455 -0.0816 -0.0101
41422W        W50222   5.565   0.440  21.950 -0.0481 -0.3339 -0.1599
41423W        W50223  17.159   4.442   4.929 -0.2991 -0.1334  0.1058
41424W        W50224  11.370   2.477  15.544  0.0803  0.0395  0.0715
41425W        W50225   4.271   1.960  32.439  0.1288  0.0097  0.1241
41426W        W50226   7.718   3.207  12.020  0.0341  0.0223  0.0377
41427W        W50227   1.487   0.297  22.938 -0.3756  0.0114  0.0300
41428W        W50228  26.383   1.504  24.602 -0.0953  0.0040 -0.0726
41429W        W50229   5.854   6.021  35.592 -0.5666 -0.3561  0.2436
41430W        W50230   7.719   3.331  23.620 -0.0784  0.2178 -0.1075
41431W        W50231  10.999   1.410  27.293  0.1773  0.1807  0.0512
41432W        W50232  12.058   0.402  32.578 -0.0824 -0.0785 -0.1127
41433W        W50233   4.666   3.564  32.929  0.2131  0.0925 -0.2117
41434W        W50234  10.238   3.670  14.059  0.0662 -0.1276  0.0226
41435W        W50235   2.389   4.638  25.533 -0.0978  0.3917  0.1484
41436W        W50236  12.109   2.665  11.356 -0.1719  0.2699 -0.3636
41437W        W50237  13.780   5.160  21.745 -0.1140 -0.0413  0.1117
41438W        W50238   8.910   5.833  22.345  0.0175  0.1735  0.1862
41439W        W50239  17.239   5.480   2.729  0.1780 -0.0510  0.2216
41440W        W50240  14.537   4.043  28.013 -0.0574 -0.1995 -0.0616
41441W        W50241   9.577   5.151   9.648 -0.1288  0.2032  0.0854
41442W        W50242  10.896   5.127   8.520 -0.3442  0.0071 -0.0821
41443W        W50243  23.559   3.313  32.412 -0.1441 -0.1727 -0.2499
41444W        W50244  25.537   0.450   4.901  0.1000 -0.4351  0.0599
41445W        W50245  12.660   5.185  33.831 -0.2346 -0.2169  0.4861
41446W        W50246  13.783   5.590  26.579 -0.4512  0.0106  0.4068
41447W        W50247   0.782   4.153  24.691 -0.1278 -0.2230 -0.2251
41448W        W50248  11.302   2.875  32.254  0.2626  0.1685  0.1087
41449W        W50249   5.536   2.210  32.117 -0.0625 -0.2240 -0.0183
41450W        W50250   3.887   5.261  27.640  0.0518  0.1230 -0.2056
41451W        W50251  12.014   5.227   5.728 -0.0669  0.2153  0.0691
41452W        W50252  18.091   0.625  13.311  0.0266 -0.1624 -0.1875
41453W        W50253  15.232   1.330  21.370  0.1645  0.0573 -0.4339
41454W        W50254  11.132   2.711   7.646  0.2162 -0.1412  0.0995
41455W        W50255   9.279   2.362   4.938  0.0878 -0.2847 -0.1164
41456W        W50256   1.242   4.078  26.599  0.1600  0.2575 -0.2200
41457W        W50257   4.435   2.842   6.234 -0.1181 -0.1574  0.0036
41458W        W50258  15.227   2.061  22.267  0.0868  0.2944 -0.2528
41459W        W50259  24.905   3.480   1.872  0.0039 -0.0889  0.2500
41460W        W50260  18.450   0.521  13.681  0.2262 -0.2619 -0.0686
41461W        W50261  10.848   1.516  35.821 -0.3544 -0.0651  0.2271
41462W        W50262   2.983   2.589   9.603  0.0688  0.1209  0.3492
41463W        W50263   0.525   2.074  10.596  0.1776  0.1824  0.1212
41464W        W50264   3.256   5.676  28.483  0.0140  0.1598  0.0871
41465W        W50265   0.418   0.752  25.900  0.0573  0.1884 -0.2229
41466W        W50266  10.135   0.010  28.856  0.0492 -0.2103 -0.3460
41467W        W50267  23.342   6.253  29.237 -0.0849  0.1602 -0.1966
41468W        W50268  18.823   6.378  34.472 -0.3464 -0.1418  0.2334
41469W        W50269   8.085   0.631  11.045  0.0684 -0.0755  0.2963
41470W        W50270   2.733   0.769  29.452 -0.0773  0.0739 -0.0253
41471W        W50271   0.823   4.440  12.120  0.1773 -0.1112 -0.1262
41472W        W50272  23.337   3.557  27.851  0.2736 -0.1554  0.0817
41473W        W50273   7.694   2.284   1.377  0.1284  0.0978 -0.0489
41474W        W50274  13.059   5.645  14.222  0.0224  0.0943  0.1974
41475W        W50275   9.935   1.675  12.857 -0.0551  0.1942  0.1065
41476W        W50276   0.924   0.832   1.848  0.1740 -0.0627  0.2442
41477W        W50277   5.220   0.260  28.737  0.0122  0.1799  0.3498
41478W        W50278  15.794   1.035  34.235  0.0599  0.2892 -0.0018
41479W        W50279   0.694   1.772  21.040 -0.1805  0.0638 -0.1712
41480W        W50280  13.750   1.681  34.606  0.0329  0.2326 -0.0670
41481W        W50281   1.654   3.323   7.396  0.3695 -0.1251 -0.1053
41482W        W50282  17.198   0.480  32.792  0.1800  0.3025  0.1707
41483W        W50283  13.255   3.426  21.405 -0.0750 -0.1226 -0.1227
41484W        W50284  14.181   5.418   6.523  0.0643  0.3780 -0.1913
41485W        W50285  17.275   2.288   5.822  0.3582 -0.2096  0.5803
41486W        W50286  18.289   0.619  10.715  0.2402  0.1209  0.0977
41487W        W50287   9.565   5.364  24.307  0.0031  0.2120 -0.1770
41488W        W50288  16.530   2.396  32.389 -0.0167 -0.0142  0.1812
41489W        W50289   0.501   0.330  32.458  0.0811 -0.1028 -0.3569
41490W        W50290   1.703   3.379  35.420 -0.0501  0.0317  0.1242
41491W        W50291   2.105   0.113  24.614  0.0675 -0.0597  0.1323
41492W        W50292  21.577   5.280  28.072  0.1521 -0.2322 -0.1297
41493W        W50293  24.722   4.399  34.321 -0.1787  0.0213  0.3862
41494W        W50294  20.746   6.122  25.980 -0.1495  0.0870 -0.2236
41495W        W50295  14.445   1.905   3.059  0.2878  0.1010  0.1484
41496W        W50296   7.391   4.802  21.852 -0.0220  0.0271  0.5576
41497W        W50297  17.142   4.660   1.006  0.1262  0.1911  0.2662
41498W        W50298  21.021   3.107   7.079  0.2091 -0.0496 -0.0618
41499W        W50299   4.253   1.683  25.846  0.2696  0.1109  0.0298
41500W        W50300   0.667   1.455   6.888  0.0986 -0.2374 -0.3627
41501W        W50301  13.850   2.430   4.106 -0.0445 -0.1429 -0.0127
41502W        W50302  12.669   5.441  11.574 -0.1821 -0.0924 -0.0187
41503W        W50303   0.337   4.245  34.567 -0.0403 -0.3456 -0.0075
41504W        W50304  21.342   0.630   4.873  0.0107  0.0626 -0.2127
41505W        W50305  22.564   0.506   6.565 -0.0168  0.2540  0.0369
41506W        W50306  17.862   0.340   4.141  0.0030 -0.1651  0.2960
41507W        W50307   4.242   3.196   6.506  0.1442 -0.1283 -0.0860
41508W        W50308  23.239   2.419   3.584 -0.0662  0.4355  0.0614
41509W        W50309   5.270   0.088  13.367  0.0524 -0.1444 -0.2512
41510W        W50310   7.536   3.057  32.364 -0.0612  0.0035  0.1636
41511W        W50311   4.368   0.478  34.707 -0.0344 -0.0145 -0.3025
41512W        W50312  22.855   0.727   1.601 -0.0110 -0.1451 -0.1755
41513W        W50313   3.204   0.614  34.012  0.1467 -0.1986  0.1221
41514W        W50314  24.315   4.220  33.207 -0.2237 -0.0835  0.3326
41515W        W50315  17.933   0.194  13.158 -0.1017 -0.1581  0.0976
41516W        W50316   1.723   2.632  27.957 -0.0824  0.2098  0.1997
41517W        W50317   8.799   0.609  11.272  0.0186  0.0436  0.1297
41518W        W50318   5.354   2.602  21.240 -0.1263  0.1678  0.0051
41519W        W50319   2.296   2.830  35.607  0.1659 -0.1839  0.2272
41520W        W50320  14.823   4.576  25.779  0.1463 -0.1459 -0.0561
41521W        W50321   6.989   2.171   5.936  0.0319  0.0132  0.1526
41522W        W50322   4.280   4.647   3.801 -0.0286 -0.1027  0.3576
41523W        W50323   9.139   0.823  25.932  0.1414  0.1171 -0.0959
41524W        W50324  20.593   2.291   3.315 -0.3630 -0.0590 -0.0585
41525W        W50325  17.687   3.499  23.435  0.2155 -0.0266 -0.0938
41526W        W50326  24.944   1.342  21.945  0.1516 -0.0362 -0.1834
41527W        W50327  18.732   5.287  34.745 -0.0605  0.2034 -0.1564
41528W        W50328  21.439   5.738  35.316 -0.0510 -0.3146 -0.1691
41529W        W50329   8.370   0.063  22.618  0.1582  0.1122 -0.0247
41530W        W50330  18.964   4.345   9.929  0.1179 -0.2645  0.0806
41531W        W50331   8.290   6.470   6.142 -0.0263  0.2410 -0.1392
41532W        W50332  19.055   6.102  24.896  0.2517 -0.2208 -0.0118
41533W        W50333   9.451   3.126  22.269  0.0685  0.1130  0.0353
41534W        W50334  11.768   5.657   1.410  0.2846  0.0589  0.0070
41535W        W50335   0.777   5.557  25.214  0.0506  0.0848 -0.3572
41536W        W50336  23.495   0.544  27.469  0.1110 -0.2101  0.0396
41537W        W50337  16.705   1.492  35.160  0.1154 -0.2757 -0.0661
41538W        W50338  21.919   0.129   5.456 -0.1902 -0.1980  0.0776
41539W        W50339  24.682   5.886  33.113  0.1553 -0.0164  0.0174
41540W        W50340  24.882   3.582   2.902 -0.1625  0.0419 -0.1991
41541W        W50341  10.404   4.203  24.343  0.1772 -0.3203  0.0456
41542W        W50342  17.187   2.983  13.355 -0.0572  0.1974 -0.1172
41543W        W50343  23.733   1.954  23.992  0.1152 -0.1772 -0.0309
41544W        W50344  19.230   3.753  10.980 -0.0715 -0.2839 -0.1563
41545W        W50345   0.483   4.848  23.778  0.0078  0.2125 -0.0591
41546W        W50346  11.805   6.174  10.009 -0.0055 -0.1925 -0.0401
41547W        W50347   1.864   1.643  29.296  0.1317 -0.2532 -0.1117
41548W        W50348  12.754   4.673  13.653 -0.0160 -0.1529 -0.2546
41549W        W50349   6.343   1.480  33.340 -0.0848 -0.0081 -0.2460
41550W        W50350   3.505   1.812   7.927 -0.0180 -0.0249  0.0121
41551W        W50351  10.095   4.070   7.106  0.0879 -0.0620 -0.1454
41552W        W50352  13.008   5.678  24.772  0.0414  0.2771  0.3527
41553W        W50353   9.751   1.844  32.156 -0.4672  0.0602 -0.1685
41554W        W50354  25.736   6.198  31.100  0.2241  0.3479 -0.1760
41555W        W50355  17.944   0.683  32.816  0.1128 -0.0038  0.2058
41556W        W50356  18.323   1.220  26.499  0.1348 -0.1377  0.1694
41557W        W50357   4.877   5.221  12.533  0.1093 -0.1291 -0.0411
41558W        W50358  22.002   4.358   6.320 -0.2259  0.0079 -0.1067
41559W        W50359   3.615   3.181  12.556 -0.1167  0.1514  0.0712
41560W        W50360   8.395   1.062  34.600  0.0777 -0.1450 -0.0704
41561W        W50361  23.620   2.463   1.099 -0.2714 -0.0701  0.2177
41562W        W50362  18.458   0.677  29.882  0.2880  0.1513  0.1811
41563W        W50363  13.572   5.901  24.830 -0.1070  0.2117 -0.0301
41564W        W50364  11.448   2.818  21.939  0.1092 -0.1748 -0.2497
41565W        W50365   5.735   0.626   6.557 -0.0156 -0.3074 -0.3776
41566W        W50366  15.220   1.746   6.544  0.0988 -0.0666 -0.3609
41567W        W50367  18.529   4.255   0.087 -0.2587 -0.3836 -0.1006
41568W        W50368  25.931   1.469   1.800  0.1666 -0.2426  0.2054
41569W        W50369   6.591   0.366  30.973  0.0865  0.0941 -0.0510
41570W        W50370  18.726   6.459  25.339  0.0330  0.1636  0.0885
41571W        W50371   7.189   5.711  26.582 -0.0543  0.0262  0.0884
41572W        W50372  19.243   6.517   0.898 -0.3409  0.1767 -0.0841
41573W        W50373  18.797   1.518   6.639 -0.1567  0.1019 -0.1354
41574W        W50374   2.749   0.383  31.415 -0.0720 -0.0154  0.0131
41575W        W50375   3.731   0.671   3.363 -0.3187  0.2104  0.0880
41576W        W50376   0.765   3.427   5.704  0.1775 -0.1590  0.0871
41577W        W50377   4.184   5.483   2.262 -0.1066 -0.1240  0.4088
41578W        W50378  21.830   4.424   2.879 -0.0886 -0.0839  0.0312
41579W        W50379  18.309   1.311  20.609  0.0570  0.2027 -0.2552
41580W        W50380   8.616   1.597  23.089  0.0523  0.0043 -0.0203
41581W        W50381  23.646   3.746   4.618  0.2660  0.0348 -0.1061
41582W        W50382   8.053   3.743  14.900  0.0623 -0.2087  0.1941
41583W        W50383  15.827   4.264  21.254 -0.3175 -0.0510 -0.3828
41584W        W50384  19.060   3.341  22.305 -0.1449  0.0387 -0.1387
41585W        W50385  13.577   3.986   1.828  0.0524  0.1200 -0.0592
41586W        W50386   0.150   4.246   6.577  0.0655  0.1817  0.1968
41587W        W50387  18.388   3.541  14.125  0.1239  0.1559  0.2678
41588W        W50388   9.253   6.548  29.153  0.0860  0.2049 -0.1303
41589W        W50389   5.504   6.032  32.361  0.2346 -0.0183 -0.1131
41590W        W50390  23.459   1.968  24.786  0.2519 -0.0158 -0.0576
41591W        W50391  24.241   1.378   7.006  0.0515 -0.0583  0.0427
41592W        W50392  14.653   2.352   9.753 -0.0155  0.1987 -0.0573
41593W        W50393  17.388   2.014  25.356  0.1079 -0.0837 -0.1387
41594W        W50394  23.704   2.359   9.715 -0.0737  0.1315  0.1643
41595W        W50395  25.698   6.182   8.692 -0.1023  0.0870 -0.0952
41596W        W50396   3.006   1.543  23.207  0.1191  0.1105  0.3110
41597W        W50397  22.918   1.239  22.905  0.1029 -0.0508  0.0784
41598W        W50398  18.658   0.686   6.237 -0.1347 -0.2847  0.2116
41599W        W50399  15.139   5.652   4.959 -0.2335 -0.2088  0.4018
41600W        W50400  14.971   6.288  30.714  0.0642  0.4890 -0.1324
41601W        W50401  17.662   6.282  13.001 -0.0071 -0.2201 -0.0055
41602W        W50402   9.437   3.741  35.764 -0.0901 -0.0737  0.0206
41603W        W50403  13.408   4.023   1.283  0.0079 -0.3029 -0.1152
41604W        W50404   1.255   1.342  26.858 -0.2454 -0.3760  0.0730
41605W        W50405  24.621   4.470  12.533  0.2853  0.2183 -0.0032
41606W        W50406  17.339   6.044  24.395  0.0121  0.2983  0.0069
41607W        W50407   1.245   4.817  24.287  0.0203 -0.0070  0.1256
41608W        W50408  14.001   2.179   7.047 -0.1557 -0.1673 -0.0167
41609W        W50409   6.495   5.894  34.983  0.0637  0.1349 -0.0755
41610W        W50410   8.580   6.516  11.999 -0.1535  0.1072 -0.2664
41611W        W50411  14.580   5.266  33.480 -0.2249 -0.1427 -0.0314
41612W        W50412   9.125   3.713  31.080  0.0147  0.0810 -0.2869
41613W        W50413  25.411   0.182  22.702  0.1692  0.0298  0.0013
41614W        W50414  24.620   3.048  29.889  0.0110  0.0323 -0.0846
41615W        W50415  19.101   5.916  27.476  0.4778 -0.0421 -0.0283
41616W        W50416  17.625   6.323  32.391  0.0460 -0.2554 -0.0184
41617W        W50417  22.747   0.811  11.803  0.1491  0.3078  0.1653
41618W        W50418  26.296   5.142  13.573  0.1102  0.0281  0.1488
41619W        W50419   8.686   5.316  14.648 -0.0852 -0.0890 -0.1786
41620W        W50420  13.504   5.639  33.621 -0.0527  0.0694 -0.0221
41621W        W50421   2.402   5.404   7.100  0.0866  0.2965  0.0026
41622W        W50422  25.580   3.526  12.318 -0.1220  0.4917 -0.0647
41623W        W50423  23.440   5.190  31.943 -0.1262  0.2507  0.1821
41624W        W50424   1.039   4.169   4.069  0.2952 -0.1889 -0.0260
41625W        W50425  23.396   1.022   8.625 -0.3959  0.1334 -0.0422
41626W        W50426   0.754   3.563  21.488 -0.0747 -0.0379 -0.1514
41627W        W50427   2.881   2.273  26.749 -0.1616 -0.1670 -0.0459
41628W        W50428   0.440   1.791  34.204  0.1081  0.1278 -0.1424
41629W        W50429  10.618   4.459   9.728 -0.1352 -0.0517  0.2621
41630W        W50430   0.303   0.125  25.664 -0.1490  0.1057 -0.0047
41631W        W50431   7.886   5.337  33.560 -0.0656 -0.0775  0.3144
41632W        W50432  23.405   3.587   1.887 -0.1026 -0.2416  0.2311
41633W        W50433   6.378   2.960  30.152  0.0175  0.2563 -0.0357
41634W        W50434  25.159   2.509   0.758 -0.0516  0.3370 -0.2743
41635W        W50435  24.232   2.323   5.075 -0.0515 -0.0787  0.1194
41636W        W50436  25.054   5.460   9.034  0.2181  0.1911 -0.0220
41637W        W50437  21.225   5.864  11.699  0.0879 -0.2026 -0.2244
41638W        W50438  13.099   0.309  15.301 -0.0087 -0.2285 -0.3784
41639W        W50439   6.471   6.269  33.002  0.0272  0.1587  0.0672
41640W        W50440  19.550   5.358  20.828  0.1039  0.0546 -0.1786
41641W        W50441  19.542   3.869  29.933  0.1865 -0.1741 -0.1091
41642W        W50442  14.141   5.761  32.516  0.0641  0.2250 -0.2957
41643W        W50443  15.344   5.217  35.896  0.1896 -0.0175  0.0282
41644W        W50444   4.201   3.943   9.523 -0.0516  0.0126 -0.0676
41645W        W50445  19.297   4.597  22.627 -0.4485 -0.0690  0.0099
41646W        W50446  17.675   5.687  36.061 -0.0881 -0.1768 -0.0261
41647W        W50447   2.321   3.144  13.829  0.0786  0.3771  0.2708
41648W        W50448  19.160   5.533  32.891 -0.1038 -0.0340 -0.1344
41649W        W50449  19.277   4.735   0.340  0.1565 -0.2231  0.0230
41650W        W50450   4.481   0.271   1.936 -0.0822  0.2126  0.2248
41651W        W50451  16.816   3.218  35.940 -0.2056  0.1496 -0.3190
41652W        W50452  20.405   0.801  29.388 -0.1083 -0.0309  0.1733
41653W        W50453  25.671   4.801   0.440 -0.0358 -0.1644 -0.1303
41654W        W50454   6.983   3.051   6.232 -0.0556  0.0933  0.0198
41655W        W50455  25.633   3.182  35.627  0.1631  0.1450 -0.1066
41656W        W50456  14.164   4.381  32.794  0.2561 -0.0967 -0.1230
41657W        W50457   4.274   6.044  35.170 -0.1497 -0.1321  0.1288
41658W        W50458   6.700   2.028   3.099 -0.0965  0.2088 -0.1590
41659W        W50459  10.185   5.660   2.480 -0.0233 -0.2499  0.1248
41660W        W50460  21.976   4.477   5.700 -0.1860  0.0020  0.0148
41661W        W50461   8.941   5.612  31.299  0.0242  0.0411 -0.1076
41662W        W50462  14.906   1.204  23.519 -0.0311  0.0143 -0.2312
41663W        W50463  13.854   2.580  27.813 -0.0327  0.2428  0.1841
41664W        W50464   8.772   2.850  24.947 -0.2083  0.1617  0.0747
41665W        W50465  16.839   5.326  32.512 -0.2362 -0.0318 -0.0674
41666W        W50466  14.645   0.871  24.528  0.4616 -0.3154 -0.0588
41667W        W50467   9.514   3.247  30.137  0.1268 -0.0778 -0.3206
41668W        W50468  18.719   6.518  13.503  0.1856  0.2332 -0.1232
41669W        W50469  18.617   2.841   8.537  0.1782  0.1043 -0.0665
41670W        W50470  17.457   0.746  12.510  0.1715  0.0864  0.0605
41671W        W50471  26.390   4.656   7.969  0.1232 -0.0094  0.0261
41672W        W50472  24.160   4.801  22.989 -0.0665 -0.0207 -0.2386
41673W        W50473  10.834   5.967  15.638  0.0980 -0.0076 -0.1327
41674W        W50474  15.033   0.357   6.034  0.0768  0.2288 -0.1234
41675W        W50475   6.832   3.424  13.240  0.2437  0.3311  0.3227
41676W        W50476   8.179   1.247  35.530 -0.1240  0.0813 -0.1561
41677W        W50477  19.321   1.547  25.928 -0.0896 -0.1227 -0.1083
41678W        W50478  24.271   0.930  32.358  0.0086 -0.1788  0.0749
41679W        W50479  24.045   0.333  26.301 -0.0563 -0.2348 -0.0631
41680W        W50480   3.979   3.578  30.256 -0.1335 -0.0813  0.1975
41681W        W50481  12.190   6.060  24.811 -0.1188 -0.1696  0.5481
41682W        W50482  19.927   4.763   6.321  0.3569  0.0228 -0.1654
41683W        W50483  12.282   2.924  27.892 -0.1234  0.1519  0.2149
41684W        W50484   7.729   6.221  13.924 -0.0863 -0.1187 -0.3959
41685W        W50485  16.148   1.049   8.610  0.1523 -0.2903 -0.1591
41686W        W50486   1.758   3.274  13.583  0.1596 -0.2399 -0.0727
41687W        W50487   1.178   2.870  13.427  0.1191 -0.0828  0.2557
41688W        W50488   5.811   5.331  23.062 -0.1843  0.0482  0.1613
41689W        W50489  22.781   4.367   8.145  0.0702  0.2844 -0.0928
41690W        W50490   5.043   5.549   5.602  0.0893 -0.0227 -0.1229
41691W        W50491  12.443   0.618  30.768  0.1134  0.0720  0.0560
41692W        W50492   4.396   2.885   0.531 -0.1921 -0.1760 -0.1502
41693W        W50493   7.635   3.323   3.330  0.0450  0.0872 -0.3589
41694W        W50494  10.941   0.039  27.133  0.0792 -0.0881 -0.2560
41695W        W50495  22.989   3.905   3.857  0.3210  0.0985 -0.1602
41696W        W50496  25.367   1.689   7.623  0.1554  0.2909 -0.2606
41697W        W50497  22.868   2.432  24.707  0.1254 -0.0560  0.0741
41698W        W50498  21.237   3.420   4.120  0.1305  0.2994  0.1828
41699W        W50499  20.461   6.351  14.984  0.2159 -0.0331  0.1470
41700W        W50500  12.168   0.553  32.129 -0.0161  0.2938 -0.0367
41701W        W50501  13.959   0.227  30.121 -0.1149 -0.0160  0.1059
41702W        W50502  10.187   1.037  10.612 -0.3158 -0.0962 -0.1425
41703W        W50503   4.411   5.888  22.856  0.0533 -0.2237 -0.0225
41704W        W50504   1.308   1.550  27.330 -0.1130 -0.1378  0.0430
41705W        W50505  24.297   3.992  23.197 -0.2056  0.1356  0.1170
41706W        W50506   6.586   5.757  28.112  0.1152 -0.0804 -0.1171
41707W        W50507   9.284   1.465  30.148 -0.2274 -0.2963 -0.2070
41708W        W50508   2.931   5.802  28.025  0.0069 -0.1778  0.0803
41709W        W50509   4.711   1.175  12.776 -0.0086 -0.2604  0.1575
41710W        W50510   4.330   0.642  13.399 -0.0792  0.1740  0.3775
41711W        W50511  19.278   3.800   0.142 -0.0969  0.0017  0.2374
41712W        W50512  25.787   6.053  10.047 -0.0633  0.2617  0.2505
41713W        W50513   5.029   2.100   8.796  0.1874  0.0420  0.1930
41714W        W50514  13.136   0.776  30.196  0.0287 -0.1192 -0.1797
41715W        W50515  11.362   3.645  21.425 -0.2972 -0.1775  0.0021
41716W        W50516   2.408   4.862  10.436  0.0502 -0.0711 -0.0317
41717W        W50517   9.610   4.216   9.354 -0.1672 -0.1420 -0.1687
41718W        W50518   4.035   1.323   5.873  0.0612 -0.5022  0.0789
41719W        W50519   5.600   0.408   2.856  0.0293 -0.1659  0.0428
41720W        W50520  12.993   1.739  26.685  0.2384 -0.1326  0.0818
41721W        W50521   7.094   5.745   8.276 -0.0571 -0.0519 -0.0547
41722W        W50522  23.846   5.567  20.799 -0.3726  0.1062  0.2360
41723W        W50523  17.821   0.761  15.415 -0.1707 -0.1214 -0.4851
41724W        W50524  11.907   5.190  28.309 -0.1978 -0.1235  0.3402
41725W        W50525   4.081   3.117  31.961  0.2213  0.1408  0.1402
41726W        W50526   9.714   0.724  23.573  0.0274 -0.2232  0.1016
41727W        W50527   3.926   2.925  28.317  0.0580 -0.3623 -0.1360
41728W        W50528  23.918   1.044   8.493 -0.2258 -0.1276 -0.0478
41729W        W50529  24.365   2.214  11.816 -0.2475 -0.1076 -0.2381
41730W        W50530  18.663   1.473  28.399  0.3912  0.0141  0.2746
41731W        W50531  20.437   3.660  12.003 -0.0064 -0.0753  0.2033
41732W        W50532   7.499   5.007   6.525  0.1859 -0.0004  0.0468
41733W        W50533  16.398   5.818  35.284 -0.1172  0.1595  0.0588
41734W        W50534  16.406   1.748  28.124 -0.1193  0.2448 -0.0885
41735W        W50535  21.562   4.365  29.913 -0.1046  0.2353  0.1879
41736W        W50536  22.597   5.041   8.698 -0.1187  0.0021 -0.2366
41737W        W50537  20.603   1.343   3.942 -0.0661  0.0418 -0.1937
41738W        W50538   2.851   1.667  12.881 -0.1421  0.0158  0.3256
41739W        W50539  22.377   0.389  28.719  0.2249 -0.0285  0.2310
41740W        W50540  17.654   5.242  28.377 -0.1856 -0.2074  0.0539
41741W        W50541  20.100   3.589   2.485  0.1227  0.0281 -0.3141
41742W        W50542  20.852   3.920  35.493 -0.3475 -0.0804  0.3747
41743W        W50543  21.680   5.436   9.145  0.2503 -0.0879 -0.2167
41744W        W50544   4.455   4.896  27.193  0.0934  0.0176  0.0685
41745W        W50545   5.041   0.861  27.008  0.0380 -0.0163  0.0823
41746W        W50546  25.731   0.802  30.115 -0.3829  0.6267  0.1154
41747W        W50547  15.886   3.533  11.848  0.4974  0.3425  0.0224
41748W        W50548  11.873   2.399   2.675  0.1253  0.1138 -0.0963
41749W        W50549   6.452   4.435  29.886 -0.0778 -0.0898 -0.0134
41750W        W50550   3.182   4.720  21.080 -0.0597  0.0194  0.0165
41751W        W50551  24.962   1.491  35.304  0.1353 -0.0325  0.0156
41752W        W50552   8.557   5.118  10.601 -0.3874 -0.0485  0.0639
41753W        W50553  11.140   3.477  15.241  0.0441  0.2546 -0.0965
41754W        W50554  17.087   5.799  30.232 -0.2064  0.2203 -0.0651
41755W        W50555   3.371   4.577   9.975  0.0798 -0.2603 -0.3029
41756W        W50556  15.088   1.216   9.808  0.5310  0.0685 -0.0930
41757W        W50557  14.443   5.486   2.145 -0.4378 -0.1901 -0.2089
41758W        W50558   0.253   0.214  24.768  0.2026  0.1285 -0.3625
41759W        W50559   7.066   4.327   5.139 -0.0166  0.1277 -0.0473
41760W        W50560   1.090   2.757   8.307  0.0635 -0.0974  0.1349
41761W        W50561   7.760   5.519  25.826  0.2015 -0.4207  0.1168
41762W        W50562   8.610   1.794   4.553  0.0945  0.2448  0.1385
41763W        W50563   3.860   3.788   1.512 -0.1463 -0.1750  0.1966
41764W        W50564  24.846   3.709  24.565  0.3014 -0.0984 -0.0123
41765W        W50565  25.632   4.547  33.831 -0.1708 -0.1331  0.2497
41766W        W50566   5.011   3.249  26.965 -0.1012  0.1336  0.3682
41767W        W50567   3.546   4.924  22.617  0.0817 -0.0766  0.0801
41768W        W50568   0.858   3.330  25.529 -0.1143  0.2367 -0.2687
41769W        W50569  25.690   3.569  33.730  0.1643 -0.1560 -0.2497
41770W        W50570   5.890   5.590   5.962  0.2879 -0.1295 -0.0531
41771W        W50571  14.260   5.498  29.342 -0.0924  0.1849 -0.0216
41772W        W50572  20.045   4.423   7.734  0.1477  0.4112 -0.0328
41773W        W50573   2.184   6.225   3.496 -0.2898  0.3337 -0.2566
41774W        W50574   0.220   3.577  26.002 -0.2030 -0.2084 -0.1549
41775W        W50575   5.458   1.705  14.284  0.0930 -0.2187 -0.4357
41776W        W50576  16.151   4.196  25.028  0.0500  0.0887  0.2143
41777W        W50577   7.464   3.041  33.496 -0.0249  0.0141 -0.1134
41778W        W50578  16.264   1.696  31.389  0.0896  0.0533  0.1073
41779W        W50579  19.412   0.047  10.515 -0.0905  0.1748 -0.1912
41780W        W50580  12.217   3.704   4.416 -0.0461  0.1331  0.2263
41781W        W50581  11.471   0.434  31.834  0.0621 -0.1166 -0.0189
41782W        W50582  13.755   1.614  21.563 -0.1549 -0.1095  0.0482
41783W        W50583  22.567   4.123   0.150  0.0088  0.0183  0.1571
41784W        W50584  15.100   3.582  14.439 -0.1451 -0.0195  0.0236
41785W        W50585  11.491   4.197  22.965  0.1037 -0.0114 -0.0272
41786W        W50586   9.706   4.492  32.925 -0.0311 -0.1183 -0.0201
41787W        W50587  20.220   1.462   9.950 -0.0009  0.1633  0.3080
41788W        W50588  13.115   4.462  10.567  0.1683  0.0173  0.0404
41789W        W50589   8.969   3.161   7.996  0.0949  0.0978 -0.2440
41790W        W50590  19.835   2.657   5.086  0.2767 -0.0865  0.2641
41791W        W50591  12.774   3.882  10.853  0.3326  0.1766 -0.4994
41792W        W50592   4.861   3.027   0.842 -0.0877  0.0125 -0.0664
41793W        W50593  15.219   5.876  14.284  0.0274  0.0118  0.2709
41794W        W50594   0.852   3.318  13.229 -0.0005  0.1044  0.0855
41795W        W50595  24.261   0.111  30.462 -0.0648  0.0023 -0.0858
41796W        W50596   9.601   2.360  12.069 -0.0365 -0.1596  0.1693
41797W        W50597  13.338   2.198   6.653  0.0258 -0.1170 -0.0255
41798W        W50598  19.575   2.279  26.866 -0.1887 -0.2787  0.1934
41799W        W50599   4.339   2.220   3.773 -0.0823  0.0218 -0.1207
41800W        W50600  18.069   4.653  25.989 -0.0139 -0.2016 -0.1214
41801W        W50601   3.251   3.482   9.489 -0.2317 -0.1829  0.3510
41802W        W50602  18.914   0.246   6.132  0.2818 -0.2182  0.0642
41803W        W50603  16.125   0.092   5.316  0.1493 -0.0439 -0.2469
41804W        W50604   8.440   6.034  13.907  0.0161  0.0233  0.1155
41805W        W50605  23.111   6.441  20.873 -0.0984  0.0045  0.3140
41806W        W50606  18.361   1.289  30.038 -0.0188 -0.0358 -0.1388
41807W        W50607  19.442   1.487   5.641  0.2703  0.0670 -0.0224
41808W        W50608  25.885   2.902   7.776  0.1527  0.0086 -0.1531
41809W        W50609  15.974   5.677  28.043 -0.1734  0.3364  0.1840
41810W        W50610  24.108   5.147   2.477  0.1634 -0.2726 -0.1324
41811W        W50611  22.644   2.246   8.269  0.2657  0.1025  0.0683
41812W        W50612   1.906   2.037  22.797 -0.2470  0.0249  0.0583
41813W        W50613  17.596   2.202   0.817 -0.1235 -0.2045  0.3002
41814W        W50614  26.062   3.660  34.213  0.0869  0.1594 -0.0986
41815W        W50615   6.646   1.436  24.655 -0.0827  0.1946 -0.2330
41816W        W50616   7.365   0.725  13.919 -0.0703 -0.1535  0.1116
41817W        W50617   6.155   0.114   3.203  0.1663 -0.1801  0.0366
41818W        W50618   7.802   2.799  34.122 -0.1954 -0.1109  0.2666
41819W        W50619  19.107   0.507  30.619 -0.0871  0.2486  0.3272
41820W        W50620   7.213   2.824  32.809  0.0665 -0.4534 -0.0208
41821W        W50621  18.435   4.599   7.258  0.0912  0.1878 -0.0161
41822W        W50622   7.477   5.751   8.643  0.2504 -0.0728 -0.2089
41823W        W50623  16.580   2.610   2.778  0.2541  0.0830  0.1078
41824W        W50624  10.657   1.519  34.491  0.1394  0.1179  0.2976
41825W        W50625  22.438   4.193  22.338  0.0612  0.5078  0.1697
41826W        W50626  15.230   3.810  30.756 -0.0779  0.1668 -0.0071
41827W        W50627  22.247   0.169   6.869  0.3491  0.1284  0.0493
41828W        W50628  13.332   5.366   2.879 -0.0864  0.0808 -0.3613
41829W        W50629   7.719   5.321  34.834  0.1172  0.2402  0.1363
41830W        W50630  20.238   2.330  33.111  0.3915 -0.2768 -0.1991
41831W        W50631  20.482   2.999  35.662  0.1216 -0.2747 -0.3212
41832W        W50632   9.905   3.448  24.379 -0.0404  0.3323  0.1486
41833W        W50633  25.580   0.908   0.414 -0.1073 -0.0951  0.0049
41834W        W50634   4.024   2.383   5.517 -0.2290  0.2831  0.0726
41835W        W50635  24.197   2.671  12.962 -0.1939  0.1823 -0.0718
41836W        W50636   4.535   3.098   4.450  0.1435 -0.0837  0.1664
41837W        W50637   2.353   5.153   6.325  0.0399  0.1098 -0.0108
41838W        W50638  22.199   5.126   3.262  0.0118 -0.1670  0.0592
41839W        W50639   2.189   0.870  13.696 -0.3024 -0.0447 -0.2242
41840W        W50640   5.300   2.370  21.660 -0.0246  0.0089 -0.3341
41841W        W50641  24.570   5.911   9.645 -0.2387 -0.0010  0.1201
41842W        W50642  12.523   2.155  28.923 -0.1661 -0.0585  0.0166
41843W        W50643  12.124   4.351   1.422  0.1652  0.0619  0.0752
41844W        W50644   7.044   4.591  27.028 -0.0740 -0.1323 -0.3753
41845W        W50645  10.776   0.025  34.903 -0.1661  0.2278  0.0054
41846W        W50646   8.710   2.531  15.105  0.0422  0.3352 -0.0666
41847W        W50647  16.673   4.433   7.778  0.0867  0.4030  0.1165
41848W        W50648   9.141   5.845  31.851 -0.1656 -0.2633  0.0445
41849W        W50649  15.728   2.626   3.686  0.1010  0.2603  0.1576
41850W        W50650  25.709   4.308   3.330 -0.0018  0.0877 -0.3268
41851W        W50651  11.463   4.633  23.198  0.0501 -0.0436  0.1292
41852W        W50652   9.057   0.580  34.660  0.3106  0.0448 -0.0821
41853W        W50653   8.698   5.207  13.167 -0.0635 -0.1653  0.0368
41854W        W50654  13.865   3.917  32.605  0.1310  0.1425  0.0875
41855W        W50655   0.004   3.725  26.964 -0.0052  0.1089  0.1333
41856W        W50656  23.645   4.518  24.291  0.0324  0.0833  0.1560
41857W        W50657   8.747   6.550   4.824  0.1090  0.2263 -0.1716
41858W        W50658  21.218   3.066  11.207 -0.1960 -0.0996  0.3033
41859W        W50659  20.515   1.210   8.966  0.0384 -0.0658 -0.1444
41860W        W50660   3.301   1.264   4.394  0.0711  0.1621  0.1019
41861W        W50661  22.919   0.648  30.071  0.2862  0.2660 -0.0324
41862W        W50662   8.202   2.716  20.795 -0.1569 -0.1845 -0.2385
41863W        W50663  16.408   3.576   2.641  0.1044 -0.0640  0.2199
41864W        W50664  26.189   4.422   3.468  0.3609 -0.2729  0.0369
41865W        W50665  12.036   3.501   2.337 -0.1549  0.0391 -0.0778
41866W        W50666   3.263   0.174  36.043  0.1425 -0.3318  0.0183
41867W        W50667  24.716   0.494   2.469 -0.2409 -0.1711  0.0215
41868W        W50668   4.813   4.194  11.994  0.1566 -0.3137 -0.2661
41869W        W50669  17.271   5.194   3.459  0.1980  0.0672 -0.2318
41870W        W50670   6.398   5.004  21.866  0.0209  0.1834  0.0204
41871W        W50671  15.537   3.586  29.433  0.0573  0.0721 -0.0537
41872W        W50672  23.181   4.870  30.728  0.0098  0.0309  0.2552
41873W        W50673  19.152   5.987  13.660  0.3097  0.1715  0.0682
41874W        W50674   9.090   2.870  25.797  0.0351  0.0042 -0.2074
41875W        W50675  23.805   5.410   6.094  0.0541 -0.0013 -0.1593
41876W        W50676  19.499   3.549   1.575 -0.3526 -0.3060  0.0000
41877W        W50677   1.469   4.429  10.303 -0.0809  0.1306 -0.0202
41878W        W50678   9.995   1.377   6.962  0.1755  0.1321 -0.1933
41879W        W50679  24.473   4.888  27.327 -0.3064  0.0630  0.2595
41880W        W50680   3.527   5.213  25.835  0.1026 -0.0308  0.0384
41881W        W50681  19.056   6.434  13.976  0.2376 -0.3252 -0.1697
41882W        W50682   1.108   5.262  24.567 -0.1496 -0.2267 -0.0155
41883W        W50683  17.205   3.205   9.899  0.0086  0.1496  0.0369
41884W        W50684  21.417   2.348   7.599 -0.1171 -0.0266 -0.1745
41885W        W50685  24.385   5.083  35.901 -0.0632 -0.1678 -0.5250
41886W        W50686  18.973   5.391  22.251 -0.0892 -0.0182  0.0683
41887W        W50687  16.700   2.747  32.100  0.1065  0.1999  0.2562
41888W        W50688   9.824   2.275  35.766  0.3102 -0.1499 -0.0215
41889W        W50689  20.442   1.796   4.230 -0.0942  0.0899  0.1472
41890W        W50690   4.665   1.801  26.686 -0.1551  0.0658  0.0167
41891W        W50691  17.932   4.532   6.877  0.2297  0.2098 -0.1566
41892W        W50692  25.311   2.687  16.021 -0.0910  0.1616  0.0410
41893W        W50693  18.855   5.895  23.584 -0.1178 -0.0513 -0.0277
41894W        W50694  23.527   4.552  25.217 -0.0416  0.2497 -0.0113
41895W        W50695   8.298   5.835  31.277  0.2771 -0.0629  0.0956
41896W        W50696  15.269   5.856  24.040  0.3182 -0.1868  0.0990
41897W        W50697   0.188   1.857   0.274  0.1069 -0.1195  0.1058
41898W        W50698  22.981   5.762  10.473 -0.0959 -0.1193 -0.1859
41899W        W50699   9.441   2.981  13.060 -0.1485 -0.1460  0.1015
41900W        W50700  23.264   4.715  27.249  0.0739 -0.2625  0.0657
41901W        W50701   0.861   1.112   9.683  0.2080  0.0941 -0.1642
41902W        W50702   1.213   2.195  36.054  0.1473 -0.1081  0.2143
41903W        W50703  11.726   0.828   3.954  0.2099 -0.0605 -0.1764
41904W        W50704  15.841   2.440  34.586 -0.0389  0.0225 -0.0668
41905W        W50705  26.003   0.673  27.298 -0.0420 -0.0603  0.0077
41906W        W50706  22.696   0.618   7.418 -0.3502 -0.2494  0.1046
41907W        W50707  24.764   1.618   3.046 -0.2278  0.0322  0.2176
41908W        W50708   7.064   5.367   1.705  0.0184  0.0423 -0.1998
41909W        W50709  14.930   6.488  26.751 -0.1611 -0.0318 -0.0976
41910W        W50710   6.440   1.201  22.230  0.2078 -0.1511 -0.1028
41911W        W50711   9.137   2.919  36.002  0.0831 -0.1366 -0.2317
41912W        W50712   6.191   3.604  14.057  0.0910 -0.5197 -0.0937
41913W        W50713  13.231   0.322   9.518 -0.1548 -0.0577 -0.3064
41914W        W50714   4.274   5.353   6.076 -0.0795 -0.2363 -0.2161
41915W        W50715  20.427   0.605  15.533  0.4490 -0.0074  0.2160
41916W        W50716  19.055   0.621   5.318 -0.2418  0.1648  0.4080
41917W        W50717   7.352   0.778   9.726 -0.1637  0.3723 -0.0696
41918W        W50718  18.086   4.342   1.482 -0.1238 -0.1162 -0.1684
41919W        W50719  11.774   5.296  22.660  0.0171 -0.0913  0.0870
41920W        W50720   2.458   0.924  35.808 -0.1876 -0.0961 -0.1375
41921W        W50721  21.390   0.849   5.305 -0.0741 -0.2529 -0.0521
41922W        W50722  15.539   1.927   6.890 -0.1466  0.1831  0.1137
41923W        W50723   8.301   1.315   4.780  0.0467 -0.1248 -0.0834
41924W        W50724  13.463   6.485  21.520 -0.0265  0.0163  0.0728
41925W        W50725  10.869   5.769   3.554 -0.2741  0.0740  0.0244
41926W        W50726  25.949   0.748  24.387 -0.0576 -0.1645 -0.1931
41927W        W50727   1.797   0.591   4.555 -0.3784 -0.2156  0.2831
41928W        W50728   7.972   5.916   9.919  0.1959  0.0185 -0.1625
41929W        W50729   1.374   3.614   7.911 -0.1271  0.0456 -0.0467
41930W        W50730  17.358   2.919  12.819  0.1166 -0.3756 -0.0393
41931W        W50731   2.881   2.283   2.395 -0.5829 -0.0823  0.2883
41932W        W50732   3.519   2.591  14.235  0.2254 -0.1759 -0.1490
41933W        W50733  22.346   5.241  32.004  0.2280  0.1393  0.0586
41934W        W50734   2.109   0.794  30.351 -0.2338 -0.2927 -0.1292
41935W        W50735  12.551   1.410   4.500  0.4620 -0.0468 -0.2049
41936W        W50736  12.096   3.370   5.361 -0.1058  0.1855  0.0399
41937W        W50737   9.692   4.622   6.417 -0.3512 -0.1027 -0.0221
41938W        W50738  25.984   5.916  13.599  0.0899  0.0997  0.0741
41939W        W50739   0.829   6.459   8.221 -0.1090 -0.0115 -0.1134
41940W        W50740  24.819   4.432  34.822  0.0594 -0.1175  0.1059
41941W        W50741  22.332   6.537  20.959  0.0063 -0.2480  0.0995
41942W        W50742   7.265   3.296  12.295  0.2141  0.1463  0.0751
41943W        W50743   1.568   0.002  12.755  0.2669  0.3496  0.1418
41944W        W50744  19.874   2.436   6.694  0.0248 -0.0431 -0.0259
41945W        W50745   9.195   5.607  27.502 -0.1994 -0.0061  0.0512
41946W        W50746  20.581   1.323  13.918 -0.0345  0.1030  0.2221
41947W        W50747   9.410   0.694  21.743  0.2439  0.0497 -0.2625
41948W        W50748   3.358   2.093   4.228 -0.0047 -0.1699  0.0235
41949W        W50749  21.920   6.349   0.105 -0.3290 -0.3399 -0.0006
41950W        W50750  11.777   5.091  30.501  0.2317  0.0540 -0.0303
41951W        W50751  18.594   0.250  24.813 -0.0728  0.1095 -0.1002
41952W        W50752  25.535   4.226   7.498 -0.3797  0.0649  0.1946
41953W        W50753  20.285   4.611  32.671  0.0605  0.1354  0.2419
41954W        W50754  17.616   5.619  30.185  0.1382 -0.2178 -0.0153
41955W        W50755  15.025   3.739   5.554  0.0540  0.1720  0.0431
41956W        W50756   6.953   3.568  29.690  0.1349  0.1197 -0.0433
41957W        W50757  10.963   3.780  24.892  0.4369 -0.3422  0.1710
41958W        W50758   7.156   2.902   9.068 -0.0443 -0.0330  0.1379
41959W        W50759   3.962   1.112  22.940 -0.0477  0.2787  0.3183
41960W        W50760  16.533   1.214   0.884 -0.0620  0.0461 -0.0436
41961W        W50761   4.857   3.633   1.699  0.0482  0.0368  0.1913
41962W        W50762  23.339   0.180  30.090  0.1585 -0.1174  0.0763
41963W        W50763   9.353   0.298   3.481 -0.1031  0.2939 -0.1300
41964W        W50764   7.116   0.187  14.868 -0.1201  0.1962  0.2265
41965W        W50765  17.762   3.488  24.965  0.1816  0.1672 -0.1485
41966W        W50766  10.327   2.087   5.640 -0.1053  0.0126  0.0589
41967W        W50767  16.700   2.088  13.185  0.1005  0.1511  0.2742
41968W        W50768   6.638   6.090   9.366 -0.0917 -0.4931 -0.0916
41969W        W50769  23.352   0.632  14.839  0.2855 -0.2277 -0.0782
41970W        W50770   5.888   5.460  14.608  0.3134 -0.1219  0.0349
41971W        W50771   4.553   5.086  35.480 -0.2224  0.0187 -0.4405
41972W        W50772  13.768   4.112   8.882 -0.1707 -0.0638  0.0368
41973W        W50773   7.348   2.950  12.773  0.1699 -0.0534  0.1466
41974W        W50774  25.068   2.473   3.109  0.1482 -0.0295 -0.1720
41975W        W50775   0.403   0.640  23.315 -0.0520 -0.0437  0.0496
41976W        W50776   7.796   1.163  22.945 -0.1338  0.0170 -0.0134
41977W        W50777  13.832   1.155  33.524  0.0650 -0.3878  0.0009
41978W        W50778  16.847   5.540  27.332  0.2373 -0.2191 -0.0696
41979W        W50779   0.325   4.059  14.801  0.1577  0.1553 -0.3078
41980W        W50780  24.348   1.436   7.468 -0.0610 -0.1283 -0.0001
41981W        W50781   7.828   6.272  14.468  0.1255 -0.0690 -0.1974
41982W        W50782  11.684   3.582   6.285  0.0087 -0.1612  0.0551
41983W        W50783   8.429   5.158  20.984 -0.0879 -0.1584  0.1481
41984W        W50784  15.001   2.477   4.143  0.0049 -0.0780 -0.1006
41985W        W50785  22.660   2.496  31.957  0.0324  0.0239 -0.1501
41986W        W50786  14.677   2.554   1.193 -0.2171  0.2437 -0.1387
41987W        W50787   2.449   2.514  23.307  0.2109 -0.1105  0.0373
41988W        W50788  15.611   1.328   8.712  0.0575 -0.0492 -0.0620
41989W        W50789   8.083   6.332  13.067  0.3422 -0.1795  0.0914
41990W        W50790   3.668   2.949   3.349 -0.1716  0.1826  0.0031
41991W        W50791  11.464   0.609   2.704 -0.0061 -0.2082 -0.0775
41992W        W50792   5.980   1.890  28.356  0.1966  0.0396  0.0639
41993W        W50793  12.159   2.083  35.412  0.1459  0.1560  0.1405
41994W        W50794   4.420   3.958  32.684  0.0190  0.0200  0.2543
41995W        W50795  22.019   2.767  24.381  0.2619  0.1052  0.0771
41996W        W50796  18.358   2.104  15.251 -0.0561 -0.2805 -0.0756
41997W        W50797   3.015   5.580  10.902  0.0859  0.1473 -0.4788
41998W        W50798   5.941   2.491  33.007  0.0543 -0.0820  0.1878
41999W        W50799  18.235   5.974  14.099  0.0573  0.0078 -0.0841
42000W        W50800  16.725   1.681  35.638  0.1797 -0.0211 -0.0119
42001W        W50801  17.899   3.567   4.021  0.3085  0.1281 -0.2808
42002W        W50802   0.905   1.738  28.243  0.0205  0.0867 -0.0142
42003W        W50803  24.685   5.588   5.671  0.1469 -0.3835 -0.1818
42004W        W50804  19.799   1.324  10.161  0.1240 -0.1578  0.1921
42005W        W50805  16.573   5.930  12.009 -0.0380  0.2490  0.0641
42006W        W50806   4.471   5.535  25.915  0.1029  0.1640  0.1603
42007W        W50807  14.438   5.523   0.090  0.0711  0.0427  0.0891
42008W        W50808  21.436   1.305  11.192 -0.1076  0.3797 -0.0516
42009W        W50809  15.628   4.684   1.717  0.0917 -0.1860 -0.1009
42010W        W50810   3.150   2.014  21.469  0.0130  0.1273  0.3766
42011W        W50811   9.031   4.812   8.457 -0.0902 -0.0012 -0.0333
42012W        W50812  14.490   4.394  23.551  0.1925  0.2280 -0.1361
42013W        W50813   8.223   3.509  24.332 -0.3424  0.1375 -0.5076
42014W        W50814   5.056   0.392  14.516  0.0413 -0.1015 -0.2621
42015W        W50815  18.014   5.846  34.855  0.1472 -0.0406 -0.0434
42016W        W50816   7.911   1.124   6.928  0.1515 -0.0625 -0.0524
42017W        W50817  14.925   0.222  21.744  0.2381  0.0718 -0.2147
42018W        W50818  17.348   1.311  30.657  0.0377  0.0658 -0.1928
42019W        W50819   7.834   3.974  26.222  0.0078  0.0172 -0.1216
42020W        W50820   0.222   5.182  14.710 -0.2824 -0.0383 -0.0560
42021W        W50821  19.532   6.583  29.273 -0.1070 -0.1903 -0.0344
42022W        W50822  18.127   1.062  11.957  0.1796 -0.2484 -0.3854
42023W        W50823  15.004   5.413  25.717  0.1754 -0.1657  0.0414
42024W        W50824   2.923   4.804  15.102 -0.1912 -0.1914  0.3061
42025W        W50825  19.006   4.448   1.755  0.0697 -0.0353  0.0322
42026W        W50826   4.278   2.691  23.659 -0.3226 -0.1651  0.3604
42027W        W50827  12.593   5.677  28.164 -0.0455 -0.1736 -0.1473
42028W        W50828   2.227   5.902  21.607  0.1376 -0.2102  0.1322
42029W        W50829  23.572   1.045  10.863 -0.0888  0.1224 -0.3068
42030W        W50830   3.364   1.517  13.403 -0.1025 -0.0644 -0.0460
42031W        W50831  14.709   3.782  34.643  0.0598  0.1268  0.0229
42032W        W50832  18.393   1.336   9.324  0.4320 -0.2913 -0.0549
42033W        W50833  10.819   5.777  12.867 -0.2177  0.0789  0.0911
42034W        W50834  25.283   6.037   2.583  0.1673  0.2127 -0.0810
42035W        W50835  11.942   6.007   6.658  0.1166  0.1191  0.2941
42036W        W50836  11.270   5.626  29.214  0.2367 -0.0832 -0.1203
42037W        W50837  26.383   4.227  13.323 -0.0152  0.0735 -0.0403
42038W        W50838  17.727   2.110   5.630 -0.1212  0.0235 -0.1126
42039W        W50839   7.535   2.522  28.091  0.0840 -0.0970 -0.1478
42040W        W50840  22.932   4.023  22.113  0.1068  0.1672 -0.0616
42041W        W50841  25.727   6.284  10.507  0.1335  0.0810 -0.2257
42042W        W50842  18.472   6.106  26.366 -0.0692 -0.0678  0.0809
42043W        W50843  15.198   3.283   7.099  0.1763 -0.1169 -0.1624
42044W        W50844  10.104   0.239  22.401 -0.3054 -0.2284 -0.1586
42045W        W50845   8.255   4.611   6.332  0.0292  0.1099  0.3263
42046W        W50846  17.573   0.609   6.787 -0.2044  0.1806  0.0396
42047W        W50847   0.326   0.855  15.039 -0.1237  0.0458  0.1637
42048W        W50848  19.164   0.734   6.158  0.1214  0.0989  0.3564
42049W        W50849  18.078   6.451   5.864  0.0097 -0.2731 -0.0351
42050W        W50850  20.825   5.276   0.265 -0.3738  0.1045 -0.3752
42051W        W50851   7.165   3.812   7.235 -0.1772 -0.0640 -0.1656
42052W        W50852   5.633   1.548  31.002  0.2726  0.1873  0.1944
42053W        W50853   2.685   5.617   5.264  0.4053  0.0778  0.0846
42054W        W50854  24.267   5.578  22.850  0.0384 -0.1092  0.2614
42055W        W50855  21.430   0.460  11.678 -0.1252  0.0932  0.1341
42056W        W50856  24.545   2.212  26.407  0.0906  0.0964 -0.3599
42057W        W50857  18.404   2.304  25.587 -0.1283  0.1496 -0.0281
42058W        W50858  13.989   2.200   3.114  0.0530 -0.0670 -0.0140
42059W        W50859  25.726   1.049   5.577 -0.0758 -0.3777  0.0353
42060W        W50860  20.239   4.364   5.568 -0.2432  0.0786  0.0887
42061W        W50861  23.960   4.084  14.575  0.0554 -0.1462  0.2353
42062W        W50862  18.525   6.457  22.592  0.1259 -0.1572  0.0802
42063W        W50863   9.189   4.446   9.135 -0.2575  0.1471  0.1609
42064W        W50864  17.437   3.862  24.844  0.0771 -0.1784  0.0977
42065W        W50865   2.864   0.150  13.099 -0.0420  0.2650 -0.0209
42066W        W50866  26.185   6.577   4.108  0.1342  0.0164  0.2473
42067W        W50867   5.320   2.015   1.567 -0.0685  0.1852 -0.2101
42068W        W50868  20.393   0.184  24.186 -0.1235 -0.0124  0.1768
42069W        W50869  22.218   5.485  26.910  0.2326  0.0123 -0.1814
42070W        W50870  10.776   3.057  31.413 -0.3058 -0.0948 -0.4172
42071W        W50871   2.702   1.966  31.031 -0.1601 -0.5327 -0.1321
42072W        W50872  10.733   2.517   6.332  0.0124 -0.0902 -0.2904
42073W        W50873   2.484   4.178  28.280  0.1002 -0.0663 -0.2086
42074W        W50874  22.729   4.080  10.748 -0.2294 -0.2153 -0.1158
42075W        W50875  19.383   1.834   2.577 -0.1121 -0.1139  0.0210
42076W        W50876   9.110   0.232   3.872  0.1198 -0.1508 -0.0298
42077W        W50877   5.978   6.316   7.225  0.1014  0.1026  0.0646
42078W        W50878  16.771   2.837  24.221 -0.0408 -0.1722 -0.2841
42079W        W50879  26.150   6.427   1.910  0.0589 -0.0543  0.2094
42080W        W50880  15.044   3.502  25.352  0.1022  0.2131  0.1679
42081W        W50881   7.956   1.256  21.783  0.0115 -0.1754  0.1547
42082W        W50882  17.494   0.850  32.969  0.0763 -0.1865  0.2274
42083W        W50883   3.918   1.262   4.305  0.1501  0.2842 -0.0688
42084W        W50884   5.682   6.575  11.890 -0.1026 -0.0214 -0.1954
42085W        W50885  20.757   2.080  25.425 -0.2449 -0.3400 -0.1907
42086W        W50886  23.397   2.600  23.527 -0.4878  0.1527  0.0087
42087W        W50887  19.598   3.184  31.163  0.2296 -0.2660 -0.1034
42088W        W50888  10.761   1.035  24.019 -0.1239  0.0399  0.0909
42089W        W50889  17.727   5.494  10.729 -0.0099  0.3530 -0.1110
42090W        W50890  19.176   4.701   2.655  0.0944  0.0172  0.0688
42091W        W50891  23.111   3.429  22.409 -0.0285 -0.2241 -0.0023
42092W        W50892  15.281   0.188  30.088 -0.1639  0.0257 -0.0596
42093W        W50893  13.531   2.064  32.125 -0.1633  0.0857 -0.1500
42094W        W50894  14.944   5.482  32.660 -0.2247  0.2940 -0.1147
42095W        W50895  25.751   3.419  28.601 -0.0695  0.1081  0.1086
42096W        W50896  20.328   0.503  11.336 -0.1307  0.1109  0.3234
42097W        W50897  18.932   4.813   1.307 -0.1135  0.0337  0.0359
42098W        W50898   8.107   1.216  15.551 -0.2380  0.0400 -0.0505
42099W        W50899   3.053   2.762   0.872 -0.2147  0.1377  0.0885
42100W        W50900  19.341   2.275   1.104 -0.0946  0.3810 -0.1395
42101W        W50901   2.085   5.436  29.076  0.0280 -0.2541  0.4506
42102W        W50902  19.017   5.943   1.963  0.0922 -0.0230 -0.2149
42103W        W50903  16.202   4.763  10.331 -0.2781  0.2506  0.1105
42104W        W50904   5.108   4.999  15.072 -0.0218 -0.3926 -0.0969
42105W        W50905   4.485   3.136  13.750 -0.2453 -0.0059  0.0877
42106W        W50906   0.092   4.627  30.803  0.0313 -0.0089 -0.0476
42107W        W50907  15.160   3.960  24.612  0.3260  0.2458 -0.0650
42108W        W50908  17.924   4.019   5.273 -0.0265 -0.0825 -0.0535
42109W        W50909  18.477   5.186   6.562  0.0962 -0.0999  0.0766
42110W        W50910   5.524   1.092   2.469 -0.2041  0.2723  0.0005
42111W        W50911  11.148   3.233  25.120  0.0826 -0.0191  0.1248
42112W        W50912  13.896   3.304  34.527  0.1813  0.1847 -0.2759
42113W        W50913  16.522   3.370  21.314  0.3022  0.3074 -0.1978
42114W        W50914  23.660   4.450   7.676 -0.0224 -0.1132 -0.2054
42115W        W50915   5.540   6.083   0.763  0.0264  0.0753 -0.2576
42116W        W50916  22.016   0.289  30.064  0.1788  0.3191 -0.1421
42117W        W50917  14.126   2.409  21.575  0.0358  0.1498  0.0964
42118W        W50918  25.672   0.881  31.546 -0.1027 -0.1622 -0.1373
42119W        W50919  20.082   2.941  35.340 -0.1594  0.0006 -0.0906
42120W        W50920  23.685   2.213  25.145 -0.3178 -0.1632  0.1817
42121W        W50921  21.625   2.681   9.609  0.0191 -0.1764 -0.1984
42122W        W50922   4.637   1.938  25.568  0.0807 -0.2111 -0.1072
42123W        W50923  23.435   3.507  34.242 -0.1459 -0.1135  0.0433
42124W        W50924  25.327   0.534   2.525 -0.0339  0.0029 -0.0865
42125W        W50925   6.464   0.959  24.516  0.2378  0.0158 -0.0497
42126W        W50926  22.568   0.837  22.889  0.1036  0.0498  0.2596
42127W        W50927   4.084   3.757  11.865  0.1233 -0.0400  0.0370
42128W        W50928   3.965   6.086  15.194  0.0430  0.1001 -0.0302
42129W        W50929   4.797   2.866  22.394 -0.0445 -0.0809 -0.3679
42130W        W50930   8.250   1.746  14.914 -0.3120  0.4564 -0.1107
42131W        W50931  17.110   3.996  27.794  0.3368  0.0398 -0.1199
42132W        W50932  20.469   1.074  21.362  0.1794 -0.0863 -0.1302
42133W        W50933  16.078   6.207  35.024  0.0191 -0.0812 -0.3505
42134W        W50934   4.480   1.177   8.250 -0.3563  0.2271 -0.0883
42135W        W50935   6.257   3.532   8.310 -0.0222  0.1822  0.0255
42136W        W50936  21.112   3.069   6.426  0.0333 -0.1248  0.2739
42137W        W50937  15.047   0.785  13.349  0.0859 -0.0581  0.1240
42138W        W50938  21.641   4.697  24.864  0.0867  0.1997  0.0470
42139W        W50939  22.866   0.424   9.550 -0.2724 -0.0843 -0.0603
42140W        W50940   9.356   0.746   3.838 -0.1769  0.1578  0.0779
42141W        W50941  21.860   4.513  31.308  0.0169 -0.0320  0.2425
42142W        W50942  10.017   4.415  22.202 -0.0358  0.1303 -0.1725
42143W        W50943  26.218   5.077   4.096  0.2222 -0.0864  0.1627
42144W        W50944   4.602   1.969  31.474 -0.1439 -0.0519  0.0291
42145W        W50945   9.001   0.919   4.488  0.2200  0.1785  0.0677
42146W        W50946   9.988   0.392  13.623 -0.0143 -0.0681  0.1635
42147W        W50947   3.413   5.334   4.870 -0.2340  0.2653  0.0706
42148W        W50948   6.426   1.256   1.931 -0.0929 -0.3740  0.2206
42149W        W50949   7.678   5.236  33.004  0.1069 -0.1037  0.0286
42150W        W50950   9.495   3.249  26.693  0.0946 -0.0105  0.1883
42151W        W50951   8.727   2.048  29.232 -0.1706 -0.1673  0.1072
42152W        W50952  11.293   0.342  26.356 -0.0120  0.0578 -0.0181
42153W        W50953  11.831   5.870  15.879 -0.3411 -0.1400  0.1118
42154W        W50954  20.273   3.243  12.871  0.0091 -0.1505 -0.0623
42155W        W50955  15.296   4.758  23.203 -0.0290 -0.1329 -0.1143
42156W        W50956  15.618   1.513   2.126 -0.2277  0.1119  0.0497
42157W        W50957  17.383   4.287   5.441  0.1547  0.0731  0.0007
42158W        W50958   1.422   0.109   6.177  0.0975 -0.3039 -0.0070
42159W        W50959   3.015   3.748   3.949  0.0268  0.1995 -0.0868
42160W        W50960   6.352   1.166  25.927 -0.1213  0.1129 -0.0269
42161W        W50961  17.308   6.444  27.277  0.4531  0.0894  0.0755
42162W        W50962   0.409   6.528   9.457 -0.2372  0.0966 -0.0105
42163W        W50963  10.588   0.439  33.978 -0.0466 -0.2041 -0.0678
42164W        W50964  11.215   1.773   2.147  0.3017  0.0803 -0.2508
42165W        W50965   9.830   4.394   7.412  0.0723 -0.2569  0.2172
42166W        W50966  14.657   1.226  29.215 -0.0744  0.1311  0.0129
42167W        W50967  21.262   2.828  28.372 -0.1320  0.1209  0.0213
42168W        W50968  15.711   4.264  15.029  0.1073  0.2063 -0.0979
42169W        W50969  16.755   1.465  27.939 -0.1121 -0.0251 -0.0373
42170W        W50970  25.431   2.978  34.048  0.0084  0.1555  0.0100
42171W        W50971  26.272   1.027  33.942 -0.2450 -0.2778  0.1325
42172W        W50972   2.076   2.907  25.509  0.0188 -0.0782  0.3912
42173W        W50973   0.540   3.976   4.888 -0.1352 -0.1727  0.1363
42174W        W50974  22.298   2.668   7.462 -0.2297 -0.1121 -0.1575
42175W        W50975   0.882   2.578  29.292  0.2048 -0.1402 -0.1539
42176W        W50976   8.806   3.199  33.854  0.1346  0.0699 -0.3986
42177W        W50977  11.002   2.768   0.276  0.1543 -0.0933 -0.0458
42178W        W50978  25.425   3.120  25.149 -0.2159  0.1488  0.2429
42179W        W50979  23.503   4.658  15.140 -0.0021  0.4746 -0.3467
42180W        W50980  23.105   4.388  10.496 -0.0923 -0.0157 -0.0163
42181W        W50981  10.470   1.064  29.976  0.0442  0.0160  0.0909
42182W        W50982  13.451   4.344  30.377 -0.2226 -0.0247 -0.1489
42183W        W50983   6.451   2.634  31.139 -0.2597 -0.0264 -0.0847
42184W        W50984  12.775   5.991  23.839 -0.0134  0.2379 -0.0937
42185W        W50985  25.693   2.865  24.792 -0.0218 -0.0522 -0.0779
42186W        W50986   7.302   3.874   4.125  0.1149  0.1240 -0.3938
42187W        W50987  19.938   1.977  32.797  0.2569 -0.2601 -0.4449
42188W        W50988  25.098   1.166  11.251  0.1421  0.1379  0.0638
42189W        W50989   4.798   0.446   7.797 -0.1638 -0.1322  0.0333
42190W        W50990   9.324   3.826  34.886  0.0332  0.1388  0.2455
42191W        W50991   0.878   3.644  24.703 -0.0981 -0.2255  0.2477
42192W        W50992   3.020   1.584   0.103 -0.0796 -0.0857 -0.0698
42193W        W50993   3.260   0.959  24.090 -0.0646 -0.1052  0.2177
42194W        W50994  18.006   4.053   1.899  0.0382  0.2163 -0.1635
42195W        W50995  17.303   3.835  13.004 -0.3620 -0.1360  0.0531
42196W        W50996  12.796   0.260   3.798 -0.0741 -0.2418 -0.0914
42197W        W50997  11.694   2.573  23.432  0.0903  0.2031  0.3200
42198W        W50998  11.171   3.009  35.033 -0.2447 -0.1671  0.1276
42199W        W50999   8.880   3.461  23.337 -0.0329  0.2857 -0.1877
42200W        W51000   1.215   3.086  20.761 -0.3802 -0.0278  0.0350
42201W        W51001   9.047   5.237  25.933 -0.0977 -0.3066 -0.0344
42202W        W51002  18.510   2.506   1.393  0.0832  0.4849  0.0767
42203W        W51003  10.760   4.434  28.076  0.0315  0.0871  0.0695
42204W        W51004  20.448   2.341   9.907  0.2316 -0.0853  0.0413
42205W        W51005  22.160   2.100   8.188 -0.3010  0.2807  0.4322
42206W        W51006  11.089   4.299   1.400 -0.0795  0.0771 -0.0312
42207W        W51007   5.193   1.140  25.908  0.3811  0.2345 -0.1784
42208W        W51008  18.143   2.741   4.258 -0.2813 -0.0729 -0.1029
42209W        W51009   8.608   1.238  25.227 -0.1224  0.0140 -0.0278
42210W        W51010   9.559   1.052  25.637  0.1768 -0.2034 -0.0973
42211W        W51011  12.121   5.540  32.979  0.0701 -0.1846 -0.2149
42212W        W51012   6.274   5.546   6.968 -0.0303  0.0337 -0.0669
42213W        W51013  11.598   3.596   2.445  0.1992  0.1159 -0.2545
42214W        W51014   9.336   2.309  12.492  0.0250 -0.2214 -0.1482
42215W        W51015  19.006   3.193  23.909  0.4390 -0.3394 -0.0839
42216W        W51016   5.643   5.754  26.348  0.2577  0.0443 -0.0997
42217W        W51017   3.173   4.972  12.486 -0.1005  0.1189 -0.1107
42218W        W51018  25.435   1.912  22.686 -0.0364  0.2011 -0.4141
42219W        W51019   0.034   1.400   2.754 -0.1147  0.1330  0.0495
42220W        W51020  20.746   1.724   9.087  0.2378 -0.1104 -0.0225
42221W        W51021  23.813   0.634   9.326  0.0906 -0.0213  0.0630
42222W        W51022  10.794   6.175  34.721  0.3195 -0.3276  0.0660
42223W        W51023  22.974   5.313  30.882 -0.2799 -0.2187  0.0622
42224W        W51024  15.369   3.274  15.869  0.0023  0.1600 -0.1102
42225W        W51025  10.857   2.511   1.056 -0.0793  0.0654 -0.0475
42226W        W51026  13.034   3.506  26.110 -0.2987  0.2359  0.0092
42227W        W51027  16.749   1.492  33.970  0.0592  0.2077 -0.1116
42228W        W51028  13.373   1.890  24.441 -0.0993 -0.0681 -0.0265
42229W        W51029  16.266   0.696  24.815  0.1593 -0.1284  0.3008
42230W        W51030  11.243   4.341  22.088  0.0179 -0.0622 -0.0261
42231W        W51031  12.583   3.238   3.819 -0.2015  0.0455 -0.0406
42232W        W51032  14.222   5.878   3.783  0.1576 -0.0048  0.2080
42233W        W51033  24.726   6.207  28.651 -0.0623 -0.3002 -0.0308
42234W        W51034  11.222   5.554  30.117 -0.1799 -0.0519 -0.0552
42235W        W51035   9.243   3.635  22.247 -0.3163  0.1005  0.2928
42236W        W51036   5.641   3.488   5.525 -0.0431  0.1278 -0.2012
42237W        W51037  14.109   5.929  13.619  0.2479  0.1075  0.0102
42238W        W51038  25.149   0.128   3.841 -0.0958 -0.1875  0.1472
42239W        W51039  10.087   1.243   0.900 -0.0284 -0.5573 -0.2191
42240W        W51040  14.305   1.545  13.625  0.0271  0.3468  0.2603
42241W        W51041   9.361   2.880  23.880  0.2521  0.0820  0.1588
42242W        W51042  11.377   3.126   0.225 -0.2261 -0.1557 -0.0437
42243W        W51043  15.094   2.465   9.946 -0.2889  0.0907  0.3200
42244W        W51044   5.674   5.965   0.310 -0.0558  0.0715  0.2108
42245W        W51045   3.961   0.832  14.606 -0.1036  0.1342 -0.3165
42246W        W51046  12.666   3.656   3.435 -0.3864 -0.2151  0.0721
42247W        W51047  26.299   1.838   8.317  0.0129  0.3214 -0.1565
42248W        W51048   8.087   3.860   7.728 -0.2371 -0.0163 -0.0806
42249W        W51049   6.960   2.210  10.021  0.4009  0.0666 -0.2536
42250W        W51050   2.669   1.697  12.414  0.1911 -0.1912 -0.2417
42251W        W51051   5.407   2.128  13.960  0.2116 -0.1059  0.1624
42252W        W51052  10.381   5.505  35.933 -0.2729  0.0903  0.1681
42253W        W51053  20.404   4.304  14.059 -0.2059 -0.1139  0.3378
42254W        W51054   1.386   4.719  23.588 -0.2895  0.3102  0.1327
42255W        W51055  26.233   2.744  22.160 -0.0022 -0.3195  0.1760
42256W        W51056  20.592   5.542  23.497  0.1370 -0.1198  0.1676
42257W        W51057  22.615   4.768  24.727 -0.1416 -0.1542 -0.1800
42258W        W51058  16.563   3.764  21.659 -0.1726 -0.2049  0.0839
42259W        W51059  20.003   6.398  15.218 -0.0905 -0.1270  0.3659
42260W        W51060  15.995   6.127   1.074 -0.0385  0.0975 -0.0748
42261W        W51061   3.986   5.327  22.374 -0.0076 -0.1076 -0.0654
42262W        W51062  13.665   3.028  28.230  0.1285 -0.2292  0.1822
42263W        W51063  13.541   5.583   0.046 -0.1742 -0.0547  0.2563
42264W        W51064  19.810   3.431  33.940 -0.3593  0.1538  0.0701
42265W        W51065  21.975   3.986  14.830 -0.2217  0.0059 -0.0404
42266W        W51066  10.446   0.709  31.528 -0.0078  0.1147 -0.1896
42267W        W51067  22.882   2.986  24.731 -0.1670  0.2064  0.0053
42268W        W51068  17.517   0.605  29.933 -0.2437  0.1179 -0.2353
42269W        W51069   0.572   1.209  22.682 -0.0978 -0.1165  0.0124
42270W        W51070  24.053   2.905  15.288  0.2423  0.1175 -0.0211
42271W        W51071   2.280   0.704   9.199 -0.2371 -0.2607  0.1428
42272W        W51072   3.334   4.426   6.465  0.2306  0.1403 -0.2621
42273W        W51073  20.274   0.890  28.807 -0.1331 -0.2430 -0.1999
42274W        W51074   1.750   5.370  28.600 -0.2454 -0.1831 -0.1920
42275W        W51075  25.845   5.326   6.309  0.1917  0.0461  0.0532
42276W        W51076   1.667   1.790   3.523  0.2052 -0.0382 -0.1215
42277W        W51077  16.801   0.012  27.314 -0.0623 -0.1066  0.1860
42278W        W51078  22.051   2.046   0.479  0.1819  0.2295 -0.0640
42279W        W51079  18.643   2.486   5.343 -0.0430  0.1520  0.3092
42280W        W51080  25.876   3.591   9.648  0.1916 -0.0384  0.0907
42281W        W51081   2.635   0.934  31.672  0.2276 -0.2693 -0.1035
42282W        W51082  12.821   4.729  28.296  0.1232  0.1588 -0.0307
42283W        W51083   8.667   5.940   7.316 -0.2050 -0.2813 -0.0805
42284W        W51084  23.546   5.164  26.541  0.0507  0.0046 -0.0784
42285W        W51085  10.703   0.396   8.650 -0.1894 -0.0703 -0.0365
42286W        W51086   8.439   3.909  14.624 -0.0847 -0.2271  0.1948
42287W        W51087   0.333   2.218  34.575 -0.0306  0.3548  0.1025
42288W        W51088  21.038   0.024  32.720  0.1473  0.3542 -0.1110
42289W        W51089  18.472   3.881   5.374 -0.0308  0.0321  0.0222
42290W        W51090  22.402   4.885  34.478 -0.0621  0.0313 -0.4416
42291W        W51091  11.939   1.213  22.067  0.4575  0.2145 -0.1757
42292W        W51092   9.040   5.325  10.442  0.1211  0.0495 -0.1527
42293W        W51093  25.727   4.560   5.148 -0.0000  0.3624 -0.1748
42294W        W51094  26.181   0.806  28.248 -0.2045  0.0720 -0.1796
42295W        W51095   3.525   2.492   6.782  0.1691  0.3129  0.1571
42296W        W51096  13.984   2.061  21.946 -0.1103 -0.2630  0.1328
42297W        W51097   2.802   4.650   0.412  0.4015  0.1494  0.2681
42298W        W51098  18.487   2.887  10.955  0.1335  0.1018 -0.0236
42299W        W51099   2.766   0.822  26.123 -0.1064 -0.2023  0.2992
42300W        W51100  10.868   4.280  34.270  0.2306 -0.2177 -0.0238
42301W        W51101  23.918   5.006  24.636 -0.0458  0.0020  0.1649
42302W        W51102   6.080   4.358  35.956 -0.0056  0.1812 -0.1662
42303W        W51103  25.497   4.088   4.234 -0.1628 -0.0361 -0.1803
42304W        W51104  25.048   3.552   5.929 -0.2242  0.1565 -0.0226
42305W        W51105  19.249   0.262   3.871 -0.2066 -0.0969 -0.2538
42306W        W51106  26.315   0.211   8.305  0.0040 -0.2329 -0.0650
42307W        W51107  21.634   0.691  27.754  0.1792 -0.0318 -0.0872
42308W        W51108   9.628   6.366   2.712 -0.2441  0.1624  0.0010
42309W        W51109  14.666   4.568  33.046 -0.1221  0.0202  0.1331
42310W        W51110   3.727   1.585  35.141 -0.0093  0.1771 -0.0720
42311W        W51111   1.519   2.743  20.530  0.2046  0.0389  0.1263
42312W        W51112  19.186   5.143  29.134 -0.0474  0.0326 -0.0250
42313W        W51113  14.217   6.146   7.641  0.1797 -0.2265 -0.5210
42314W        W51114  12.017   0.755  15.801  0.0433  0.1973  0.0357
42315W        W51115  26.151   3.341  29.868  0.1281 -0.0500  0.0665
42316W        W51116   3.314   5.943  34.073 -0.0754 -0.2281  0.0027
42317W        W51117  15.008   6.300  31.223  0.2528 -0.1142 -0.1891
42318W        W51118  19.549   3.432  28.848 -0.0440 -0.0777  0.1370
42319W        W51119   6.346   3.285  29.174  0.1377 -0.1656 -0.2406
42320W        W51120  19.928   0.868  10.008 -0.1187 -0.2814  0.0008
42321W        W51121  10.652   3.600  12.714  0.1677 -0.1056  0.1708
42322W        W51122  12.886   1.498   6.150  0.4596  0.0297  0.0778
42323W        W51123  18.408   4.575  26.842 -0.1943 -0.2037 -0.0161
42324W        W51124   0.569   6.142  33.734  0.0601 -0.0885  0.0507
42325W        W51125   1.028   2.488  35.378  0.3098 -0.2271 -0.0576
42326W        W51126  14.753   2.750   9.420 -0.4355 -0.1332 -0.2402
42327W        W51127   6.337   4.868   3.851 -0.3458  0.0707 -0.0918
42328W        W51128  13.977   2.195  15.043  0.0095  0.1512 -0.0732
42329W        W51129  24.379   0.211  14.691  0.1823 -0.1760  0.0222
42330W        W51130  17.921   3.955   5.937  0.0053  0.0769 -0.1684
42331W        W51131  17.858   4.509  21.597  0.0406 -0.1688  0.1393
42332W        W51132  21.992   4.878  28.032 -0.3006 -0.1244  0.0684
42333W        W51133   7.522   6.235   2.339  0.0322  0.2122  0.0048
42334W        W51134   7.207   1.709   5.426  0.0311  0.3339 -0.0583
42335W        W51135  15.866   4.854  12.639  0.0275 -0.0614  0.0273
42336W        W51136   3.035   2.724  14.811 -0.1708 -0.2170 -0.4168
42337W        W51137  10.690   2.041  15.387  0.0754  0.1278  0.3052
42338W        W51138  22.812   5.920  31.572 -0.0971  0.0126 -0.0715
42339W        W51139  19.643   1.361  25.602  0.0087 -0.0469  0.2025
42340W        W51140  13.933   2.903  28.644 -0.0554 -0.2538  0.4784
42341W        W51141  10.016   0.115  14.102  0.1254  0.0386  0.1891
42342W        W51142  18.766   1.517  28.861 -0.0239 -0.1967 -0.2667
42343W        W51143  17.193   5.270  29.992  0.0762 -0.2600 -0.0600
42344W        W51144  10.534   5.083  13.537 -0.0246 -0.5956  0.2914
42345W        W51145  25.997   1.092  34.879  0.1885  0.0235 -0.2613
42346W        W51146  12.189   5.275  24.631  0.0883  0.0001  0.1166
42347W        W51147  16.656   5.783   7.449  0.1419 -0.1102  0.2431
42348W        W51148  11.476   6.537  33.043  0.2474  0.3507  0.2099
42349W        W51149  10.473   4.217  34.729 -0.0346 -0.2422 -0.1116
42350W        W51150  18.346   1.657  34.017  0.0528  0.1186  0.0038
42351W        W51151   3.063   4.931  32.013 -0.4612  0.2487 -0.0919
42352W        W51152  24.979   3.038  13.440 -0.1616 -0.0955 -0.4451
42353W        W51153   9.718   6.305  13.392 -0.0005  0.0336  0.2769
42354W        W51154   6.683   0.905  11.882 -0.0632 -0.0458 -0.0539
42355W        W51155   2.715   0.391  11.404 -0.6141  0.0485 -0.0183
42356W        W51156  12.722   2.433  14.998  0.0789 -0.0340  0.3275
42357W        W51157  23.799   1.079  29.127  0.1982  0.3550 -0.4013
42358W        W51158  14.096   3.994  23.586 -0.2259 -0.0736 -0.3131
42359W        W51159  17.860   2.771  15.449 -0.2126 -0.1695  0.0985
42360W        W51160   4.339   5.029   2.071  0.2324  0.0082  0.1178
42361W        W51161   9.395   1.409  13.772  0.1020  0.2228 -0.1891
42362W        W51162  22.451   4.791   9.859 -0.0510  0.0855 -0.1380
42363W        W51163  11.950   5.863  24.416 -0.0380 -0.0560  0.0541
42364W        W51164  19.716   0.961  12.377  0.3280  0.0573  0.3736
42365W        W51165  22.950   1.062  12.729  0.1524 -0.1675 -0.0104
42366W        W51166  15.437   0.516  14.587  0.2638 -0.1138  0.2423
42367W        W51167  11.421   1.523  28.869  0.2005 -0.0306  0.0938
42368W        W51168   7.922   4.691  22.021  0.0711 -0.3109 -0.1552
42369W        W51169  23.429   2.205  21.069  0.0995  0.3669  0.3620
42370W        W51170  24.828   0.346  27.848 -0.0680 -0.0763  0.1200
42371W        W51171  25.506   5.306  23.505 -0.0263  0.2227 -0.1159
42372W        W51172  17.188   5.516   0.803 -0.0439 -0.2191 -0.1644
42373W        W51173  20.019   3.163  32.577 -0.1505 -0.0175  0.1169
42374W        W51174  23.528   2.475  26.882 -0.1580 -0.0084  0.3828
42375W        W51175  23.309   1.888   4.945 -0.0380  0.0170 -0.2029
42376W        W51176   2.208   1.696  32.870 -0.0060 -0.3936 -0.0318
42377W        W51177   6.162   2.413  22.799  0.1423 -0.0009  0.1824
42378W        W51178   9.819   4.825   0.427 -0.0049  0.0646 -0.2605
42379W        W51179  17.379   2.806  27.577 -0.0157 -0.1832 -0.0899
42380W        W51180  12.831   3.641   2.743 -0.0287  0.1411  0.1342
42381W        W51181  14.735   1.582  26.890 -0.0797  0.0512 -0.0072
42382W        W51182  10.307   0.844   4.920 -0.0835 -0.1578  0.2527
42383W        W51183  10.487   4.190  12.633 -0.1057  0.0389  0.0965
42384W        W51184  24.129   1.146  28.268  0.0513 -0.1539  0.0521
42385W        W51185   2.199   0.959  20.760 -0.1599  0.1055  0.0870
42386W        W51186   1.594   6.512  11.535 -0.0101 -0.0761 -0.2862
42387W        W51187  10.154   3.883  32.856 -0.1431  0.1405 -0.0842
42388W        W51188  15.430   6.011  11.021  0.1194 -0.2009  0.0064
42389W        W51189   4.112   2.849  21.821 -0.3063 -0.2353  0.1435
42390W        W51190  18.237   4.880   2.462  0.1903  0.0066  0.2338
42391W        W51191   6.461   1.594  13.288  0.0830  0.2549  0.1655
42392W        W51192  24.244   6.476   1.268 -0.4657  0.2054 -0.0609
42393W        W51193   5.084   1.673  27.377 -0.0029 -0.0713 -0.1674
42394W        W51194   2.499   0.044  29.024  0.1952 -0.0152 -0.1021
42395W        W51195  13.784   5.756  11.751 -0.0259 -0.1196 -0.0756
42396W        W51196   8.555   0.806  13.387  0.0684  0.0855  0.0646
42397W        W51197   2.838   0.692  13.251  0.3809 -0.1836 -0.0570
42398W        W51198   9.738   1.961  28.434  0.0299 -0.1326 -0.2194
42399W        W51199   7.714   4.007  22.999 -0.2642 -0.0546 -0.0906
42400W        W51200  12.713   3.400  21.205 -0.0776  0.0902 -0.2820
42401W        W51201   0.935   0.557  24.170  0.3498 -0.0449 -0.1778
42402W        W51202  11.952   5.125   7.301 -0.2143  0.0315  0.1311
42403W        W51203   6.303   0.346   3.962 -0.2195  0.0868 -0.2788
42404W        W51204   7.311   5.989  23.168 -0.2668  0.1515 -0.2176
42405W        W51205   8.702   1.562  14.970 -0.0436  0.2181 -0.0616
42406W        W51206  21.154   6.314  27.954  0.2083  0.0412 -0.0367
42407W        W51207   3.417   6.461  34.491 -0.0140 -0.1966  0.0934
42408W        W51208  13.778   0.886  10.265 -0.0197  0.0962 -0.2238
42409W        W51209   7.425   5.149   9.866 -0.4147 -0.0770 -0.1974
42410W        W51210   4.749   5.958   1.029 -0.0806  0.0768  0.0990
42411W        W51211  17.125   1.044  32.558  0.1038 -0.1855  0.3257
42412W        W51212   6.873   1.864  25.986 -0.1603  0.4777 -0.2469
42413W        W51213  22.104   3.285  25.149 -0.0450  0.0146 -0.0007
42414W        W51214   9.884   6.009   6.770 -0.0812  0.0647  0.1575
42415W        W51215  18.708   3.689  35.486  0.1025 -0.0466  0.1184
42416W        W51216   3.331   1.514  30.043  0.2067 -0.2547  0.1135
42417W        W51217  24.720   5.789  10.827 -0.0652 -0.2412 -0.2755
42418W        W51218   5.049   3.770   1.291 -0.1279 -0.1536 -0.0514
42419W        W51219  18.943   1.282  26.192 -0.1854  0.1033  0.0396
42420W        W51220  11.043   0.300  14.888  0.2679  0.2322  0.0279
42421W        W51221  18.613   2.808  34.443 -0.0015  0.2537  0.1080
42422W        W51222  20.298   3.239  24.068 -0.0476  0.0130 -0.0671
42423W        W51223  21.781   3.174  25.729 -0.2440  0.0826  0.1181
42424W        W51224  13.681   5.690  13.643 -0.1094 -0.0063 -0.0735
42425W        W51225  15.405   0.369   0.659  0.0673 -0.0426 -0.1807
42426W        W51226  16.213   4.388   1.159  0.0307  0.0902 -0.1261
42427W        W51227  16.572   6.452  22.246 -0.2968  0.2433  0.0195
42428W        W51228  14.338   6.328  13.338  0.0997  0.0439 -0.1185
42429W        W51229  20.749   5.926  35.598  0.1087 -0.3050  0.0769
42430W        W51230  13.505   3.002   4.733  0.1300 -0.0389 -0.0532
42431W        W51231  23.769   3.832  15.497  0.2619  0.1773 -0.1564
42432W        W51232  13.290   6.086  10.184  0.0380  0.0957  0.0414
42433W        W51233  16.800   4.379  31.587 -0.1442  0.0361 -0.1082
42434W        W51234   5.046   5.347  21.735  0.0817 -0.1219 -0.1127
42435W        W51235  24.504   0.319  15.197  0.0242 -0.2056  0.0841
42436W        W51236  12.793   2.061  32.752  0.0075 -0.1498 -0.3232
42437W        W51237   9.860   0.950  28.327  0.1088  0.3912  0.2677
42438W        W51238  16.667   5.163  11.352 -0.0826  0.2167  0.1837
42439W        W51239  16.163   0.426   4.766 -0.0540 -0.3089 -0.0601
42440W        W51240  17.227   4.247   0.719 -0.2214  0.2858  0.1809
42441W        W51241  10.869   1.750  11.288 -0.0538  0.1421 -0.2057
42442W        W51242   6.313   1.198  28.829 -0.2696 -0.0600 -0.1729
42443W        W51243   1.304   0.322  25.448  0.0593  0.1226  0.0741
42444W        W51244  18.254   5.249  26.110 -0.1661  0.3174 -0.0058
42445W        W51245  10.358   5.619   0.729  0.0381  0.1029 -0.2531
42446W        W51246  21.552   4.275  14.910 -0.1093 -0.4386  0.1660
42447W        W51247  23.322   4.271   3.974  0.2148 -0.0376  0.1508
42448W        W51248   2.330   0.720   3.925  0.2090 -0.1351  0.2165
42449W        W51249  16.087   2.560  31.178  0.0236 -0.1645 -0.1224
42450W        W51250  11.848   0.991  28.916 -0.0665 -0.0095  0.1544
42451W        W51251  21.783   3.583  28.522  0.0093  0.1355 -0.1031
42452W        W51252   2.179   6.594  27.956 -0.2566  0.1502  0.1798
42453W        W51253   2.413   0.504  14.223  0.0172 -0.0226  0.1559
42454W        W51254  14.546   3.712  29.600  0.3475  0.0857  0.2388
42455W        W51255  17.663   0.459  34.065 -0.2464  0.0195  0.1117
42456W        W51256   3.791   6.196  26.856  0.1614 -0.0770 -0.0942
42457W        W51257  19.607   3.891  13.196  0.3415  0.1117 -0.0346
42458W        W51258   7.556   3.206  15.407 -0.0904 -0.1079  0.2463
42459W        W51259  24.350   6.435  14.178  0.0289  0.2957  0.0573
42460W        W51260  11.148   3.524  10.968  0.1476  0.1050  0.2175
42461W        W51261   2.487   1.575  23.078 -0.1831  0.1247  0.0452
42462W        W51262   8.352   1.194  32.239  0.1245 -0.1326 -0.3754
42463W        W51263  14.086   1.512  15.161 -0.1141 -0.1551 -0.2356
42464W        W51264  11.946   0.208  23.703 -0.0888 -0.0063 -0.0404
42465W        W51265  13.515   2.838   9.010 -0.0612 -0.1505 -0.2940
42466W        W51266  14.940   3.364  34.623 -0.0083  0.1249 -0.0779
42467W        W51267  13.077   1.770  13.948  0.1993 -0.0259  0.4044
42468W        W51268  20.006   1.738  28.126  0.0922  0.2370 -0.0762
42469W        W51269  20.186   0.779  31.543  0.1972  0.3045 -0.1098
42470W        W51270  16.976   4.182  11.419  0.0793  0.0367 -0.0320
42471W        W51271  20.595   0.061   6.151  0.2380 -0.1507  0.0360
42472W        W51272  18.114   4.506  25.020 -0.1235  0.1553 -0.1390
42473W        W51273   9.861   5.551   5.102 -0.3090  0.1791  0.0384
42474W        W51274  16.551   6.096  20.702 -0.0004 -0.0648 -0.0755
42475W        W51275   2.860   5.008  12.059  0.4719 -0.0237 -0.3504
42476W        W51276  12.918   3.949  26.905  0.1273  0.1002  0.0919
42477W        W51277  13.383   1.244   9.477  0.0345 -0.1871  0.1500
42478W        W51278   4.736   1.283  26.068 -0.0422 -0.1621  0.0479
42479W        W51279  16.533   0.319  34.582 -0.1011  0.0789  0.1709
42480W        W51280  17.664   0.969  13.547  0.1273 -0.2432  0.0200
42481W        W51281  18.869   5.708   9.358  0.5130  0.0947  0.1428
42482W        W51282  17.393   4.088  35.224 -0.1306 -0.0626  0.1685
42483W        W51283  25.161   6.410  25.745  0.0233  0.1428  0.0145
42484W        W51284  12.941   2.110  25.405  0.0814 -0.0829 -0.0427
42485W        W51285  20.740   3.332   9.971 -0.2307  0.1083  0.3721
42486W        W51286   6.195   3.860  31.267  0.1342 -0.2278 -0.4175
42487W        W51287   1.018   3.991  34.056  0.1592  0.0104 -0.1353
42488W        W51288   1.688   5.495  24.019 -0.4490  0.0988  0.4103
42489W        W51289  16.084   6.379  23.421 -0.2716  0.2791  0.2277
42490W        W51290   0.706   5.765   8.760  0.0656 -0.0540 -0.0890
42491W        W51291   5.505   2.361   8.947 -0.0149  0.2609 -0.3231
42492W        W51292  25.499   1.835   1.924  0.1232  0.4215 -0.2231
42493W        W51293   1.575   3.148  29.291  0.1451  0.0115 -0.2579
42494W        W51294  15.224   4.175   7.798  0.1723  0.3201  0.1668
42495W        W51295  11.978   4.617  29.443 -0.0104  0.0117  0.2158
42496W        W51296  16.652   3.514  29.492  0.0080  0.3076  0.1253
42497W        W51297   7.519   3.066  30.357 -0.1981 -0.2585  0.0292
42498W        W51298  25.532   4.642   8.850 -0.0143 -0.0920  0.0836
42499W        W51299  17.122   4.543  29.655 -0.0830 -0.1405 -0.0589
42500W        W51300   3.009   0.938  14.033 -0.1011 -0.0469  0.2933
42501W        W51301  15.467   0.668  24.475 -0.2286  0.0220  0.1401
42502W        W51302   1.685   3.982  10.574 -0.1789 -0.0293 -0.2303
42503W        W51303  16.736   2.006  28.565 -0.2242 -0.1592 -0.0741
42504W        W51304   5.540   4.410  28.452  0.2303  0.2535  0.2079
42505W        W51305   3.194   0.097   6.679 -0.2489 -0.0332 -0.0690
42506W        W51306  22.599   4.056  31.346 -0.0006  0.3276 -0.1474
42507W        W51307  25.909   6.394  14.831 -0.2285 -0.0586 -0.3179
42508W        W51308  20.095   0.240  14.874 -0.0221 -0.0363 -0.1968
42509W        W51309   8.398   6.167   8.188  0.0859  0.2010  0.1162
42510W        W51310  17.826   6.599  35.291 -0.0562 -0.0750  0.0626
42511W        W51311  10.699   6.543   0.504 -0.0754  0.2381  0.0245
42512W        W51312  25.033   5.260  30.747 -0.0553 -0.0875 -0.1533
42513W        W51313   7.193   6.139   2.800 -0.0612 -0.0756 -0.2232
42514W        W51314   3.251   4.120   0.705 -0.0191  0.1178  0.0937
42515W        W51315  19.413   4.994  31.991  0.3746  0.2107  0.1605
42516W        W51316   6.309   6.100  29.698 -0.1049 -0.1808  0.0836
42517W        W51317  24.155   3.966  22.713  0.0731 -0.0643  0.0991
42518W        W51318  15.514   5.848  28.640  0.0156 -0.0120 -0.0197
42519W        W51319  11.347   4.413  13.604 -0.0804 -0.0712 -0.0326
42520W        W51320  23.628   4.947  25.458 -0.1457  0.1242 -0.3953
42521W        W51321   5.348   3.390   9.244  0.1828  0.1962  0.0393
42522W        W51322   7.419   0.323  23.403 -0.1592  0.0934  0.1257
42523W        W51323  14.228   2.298   6.657 -0.3293 -0.1884 -0.0845
42524W        W51324   6.027   2.263  30.354 -0.0594 -0.0904  0.0011
42525W        W51325   2.999   0.045  35.268  0.2539  0.0282  0.0559
42526W        W51326  13.706   4.637  31.681  0.2160 -0.1897 -0.1355
42527W        W51327  15.108   2.733  34.027  0.0649  0.0823  0.0022
42528W        W51328  10.223   6.191  34.164 -0.2969  0.1523 -0.0732
42529W        W51329   0.779   1.141  12.282  0.1082 -0.0718 -0.0274
42530W        W51330  21.317   1.866  27.093  0.0094  0.1970  0.2944
42531W        W51331  15.374   5.378  34.535 -0.1775  0.0119 -0.0307
42532W        W51332   0.117   6.088   6.787  0.0915 -0.0594 -0.0153
42533W        W51333   7.874   3.952  22.484  0.2730  0.3594  0.3321
42534W        W51334   0.755   5.176  32.538  0.2094  0.1710 -0.4122
42535W        W51335   3.624   5.246   1.488  0.1320 -0.0139 -0.0647
42536W        W51336  12.326   0.980   2.526  0.1593  0.0572 -0.1454
42537W        W51337  25.985   5.979   9.572 -0.0290 -0.0262  0.0327
42538W        W51338  13.392   4.024  24.639  0.3903  0.1018 -0.2906
42539W        W51339  16.968   6.350  12.118 -0.3643 -0.1336 -0.0016
42540W        W51340   2.116   6.579  22.252  0.0411  0.1326 -0.0660
42541W        W51341  22.210   3.336  23.240 -0.1591  0.1351 -0.1388
42542W        W51342   9.237   1.979  21.045  0.1220  0.1134 -0.2002
42543W        W51343  16.989   3.546  15.368  0.0979 -0.2031  0.1338
42544W        W51344   9.780   3.654  29.449 -0.2848  0.1218  0.2176
42545W        W51345  20.007   3.552  20.917  0.1832 -0.0469 -0.2494
42546W        W51346   1.864   3.162   2.516 -0.0041 -0.2157  0.0285
42547W        W51347   0.498   4.268  12.733 -0.2416 -0.0981 -0.1952
42548W        W51348  13.815   5.239  14.828  0.1120 -0.0527 -0.0260
42549W        W51349  13.867   1.453  32.703  0.0123 -0.3596 -0.0558
42550W        W51350  16.458   0.214   9.612  0.0820  0.2810  0.0785
42551W        W51351  15.014   1.896   9.127 -0.3958 -0.0378  0.0883
42552W        W51352   8.326   1.132  33.008  0.2347  0.0291  0.1249
42553W        W51353  25.576   0.083  13.405 -0.2680  0.4348  0.0605
42554W        W51354   9.389   4.098  13.348  0.3010 -0.0031  0.4204
42555W        W51355   7.517   6.231  25.305  0.2167 -0.1434  0.3518
42556W        W51356   9.051   0.156   8.251 -0.1281  0.0013 -0.1192
42557W        W51357  19.173   1.410  31.274 -0.2383 -0.1434 -0.2475
42558W        W51358  17.181   4.194   1.843  0.0251 -0.2000  0.1970
42559W        W51359  10.318   4.805  32.565 -0.1416  0.1091  0.1329
42560W        W51360   3.019   3.761   9.918  0.2080  0.1643 -0.0057
42561W        W51361   9.700   4.968  33.099 -0.3151 -0.1384  0.1379
42562W        W51362   6.766   0.765   2.777 -0.0196 -0.3510  0.1415
42563W        W51363  23.309   5.825   2.154  0.0252 -0.0823  0.1565
42564W        W51364   3.175   5.813  31.116 -0.0979  0.2663  0.2845
42565W        W51365   5.634   5.457  12.005 -0.0924 -0.0870 -0.2486
42566W        W51366   1.652   4.350  31.008  0.2302 -0.1443  0.1294
42567W        W51367   9.316   0.343  30.391  0.4418 -0.4031 -0.0757
42568W        W51368   2.827   5.069  10.297 -0.0913  0.0256 -0.0655
42569W        W51369  16.833   1.962  21.279 -0.2071 -0.0775  0.0746
42570W        W51370   7.498   2.486  35.585 -0.2481 -0.2873  0.1070
42571W        W51371   4.605   6.330  25.957 -0.3611 -0.1847 -0.0937
42572W        W51372   7.078   1.868  33.828  0.0498  0.0473  0.4644
42573W        W51373  13.039   0.225   1.679 -0.1493  0.1579 -0.0029
42574W        W51374   9.603   4.332   8.364 -0.0106 -0.0354 -0.1267
42575W        W51375   8.671   5.849  24.221  0.1687  0.3620  0.0380
42576W        W51376   1.998   3.037   6.628 -0.2149  0.2124 -0.0264
42577W        W51377  10.408   3.597  29.225 -0.0219  0.0452 -0.0390
42578W        W51378  16.623   1.161  35.533  0.0729  0.0930 -0.2783
42579W        W51379  21.250   5.974  12.881  0.0736 -0.1110 -0.0038
42580W        W51380   3.965   6.348  10.725  0.0149  0.1482  0.0660
42581W        W51381   9.837   3.180  34.610  0.2324 -0.2676  0.1742
42582W        W51382   3.774   2.277  34.633 -0.2460 -0.1076 -0.1312
42583W        W51383  21.779   1.466  35.849  0.0101  0.2175 -0.3469
42584W        W51384  24.347   5.331  11.506  0.1097  0.1346 -0.0775
42585W        W51385  19.900   2.956   6.100 -0.0356 -0.1330 -0.0991
42586W        W51386  12.687   5.777  32.184  0.0854  0.1387 -0.1480
42587W        W51387  11.077   4.729  13.981 -0.4500 -0.1843  0.0221
42588W        W51388  13.538   0.813  29.863 -0.0171 -0.0638 -0.1654
42589W        W51389  17.376   6.109   3.408 -0.2684  0.0516  0.1144
42590W        W51390  17.715   5.370  33.486  0.0413  0.0677 -0.1121
42591W        W51391   7.724   3.570  30.333 -0.0488  0.0950  0.0527
42592W        W51392  24.749   1.078  29.496 -0.2615  0.0927 -0.0123
42593W        W51393  24.101   4.439   7.229  0.1002 -0.0324 -0.0736
42594W        W51394  17.968   3.468   6.731 -0.0930 -0.0123  0.0612
42595W        W51395  23.996   0.629  21.020 -0.0615 -0.1508 -0.0683
42596W        W51396   7.944   0.891  33.332  0.0265 -0.0762  0.2023
42597W        W51397  21.749   2.816  23.919  0.0808 -0.1194 -0.2179
42598W        W51398  25.190   5.085  29.506 -0.1440 -0.2865 -0.0427
42599W        W51399  13.270   4.346  33.002 -0.3808  0.0107 -0.0832
42600W        W51400  19.817   4.862   3.314  0.0958 -0.2179 -0.3036
42601W        W51401  23.443   0.009  34.463  0.1386 -0.0422 -0.0704
42602W        W51402  14.249   2.197   9.466  0.1906 -0.0483  0.2771
42603W        W51403   1.351   5.002  33.281  0.1476  0.1803 -0.1175
42604W        W51404  11.694   3.051   7.001  0.1417  0.0408 -0.0846
42605W        W51405  10.467   2.513   7.190  0.1990  0.3385 -0.0605
42606W        W51406   3.836   5.918   6.902 -0.0412 -0.2549 -0.0711
42607W        W51407  18.610   4.033  31.621 -0.2304 -0.0162  0.1506
42608W        W51408   2.276   4.582  30.443  0.1076  0.0874 -0.1629
42609W        W51409   2.694   1.155  27.685  0.3306  0.0817  0.1634
42610W        W51410  14.056   0.898   3.467 -0.2606 -0.3286  0.1174
42611W        W51411  21.457   3.488  20.875 -0.0143  0.1374  0.4755
42612W        W51412  12.859   3.172  12.532 -0.1243  0.3195 -0.2412
42613W        W51413  12.184   6.556   1.582  0.0626  0.0638  0.1074
42614W        W51414  12.824   0.400   7.895  0.1712 -0.1278  0.0134
42615W        W51415  17.662   2.016   4.293  0.0006  0.1240 -0.2885
42616W        W51416   1.341   3.136   2.741  0.0524 -0.0812  0.1096
42617W        W51417   6.211   6.454  32.139 -0.2784 -0.0939 -0.0070
42618W        W51418   5.765   5.275  20.882  0.1105  0.3998 -0.0961
42619W        W51419   9.242   4.809   2.771  0.1116 -0.0046 -0.1942
42620W        W51420   0.392   5.365   5.398 -0.2466 -0.0008  0.1345
42621W        W51421   5.137   3.002  30.880  0.0481 -0.1461 -0.0103
42622W        W51422  13.893   2.462  13.352  0.1258 -0.2387  0.1048
42623W        W51423  25.002   6.553  12.551  0.3176 -0.0329 -0.0753
42624W        W51424   3.242   0.610   7.439 -0.2951  0.0435  0.1166
42625W        W51425  20.329   6.284   0.838  0.0229 -0.1269 -0.2205
42626W        W51426  12.879   5.833  10.123  0.0049  0.0497  0.0500
42627W        W51427  17.193   1.762  11.538  0.2591 -0.2708 -0.0380
42628W        W51428   8.853   5.730  27.895 -0.2019 -0.3727 -0.0850
42629W        W51429  25.807   0.485  34.495 -0.0849 -0.2869 -0.0800
42630W        W51430  24.292   6.453   5.325 -0.1536 -0.0440  0.0969
42631W        W51431   2.467   4.059   1.785 -0.0701 -0.1837  0.2221
42632W        W51432  10.030   4.502   2.904  0.0867  0.2705  0.3580
42633W        W51433  20.332   5.396   7.585  0.1819  0.2044  0.4100
42634W        W51434   7.029   2.548  35.553 -0.0104 -0.2128  0.1414
42635W        W51435   6.887   4.674   0.890 -0.0872  0.1480  0.1508
42636W        W51436  19.402   5.604   9.575  0.1917 -0.1295 -0.2384
42637W        W51437   1.773   4.093  24.347 -0.0417  0.2905 -0.0926
42638W        W51438  10.776   4.102   1.775 -0.0794  0.1174  0.0773
42639W        W51439  19.793   2.149  25.399  0.1420  0.1365  0.1829
42640W        W51440   3.643   0.104  23.848 -0.3399  0.0523  0.1114
42641W        W51441  19.339   0.763   4.188  0.0337  0.2552  0.0651
42642W        W51442   8.157   3.069  28.571  0.0629 -0.3279  0.1265
42643W        W51443  20.949   2.257  27.071  0.2911  0.1985  0.0113
42644W        W51444   5.131   5.451  32.030  0.2409 -0.0042  0.2315
42645W        W51445   4.487   6.118  21.931  0.1434 -0.0047  0.0206
42646W        W51446  18.234   6.326  30.452 -0.2787 -0.0845  0.1482
42647W        W51447  11.663   0.727  26.985 -0.0795  0.1528 -0.0802
42648W        W51448   5.992   4.360   2.283 -0.0605 -0.3589  0.1838
42649W        W51449  10.418   4.385  26.995 -0.2412 -0.1356  0.2294
42650W        W51450  21.735   0.206  32.152 -0.1331  0.1402 -0.0298
42651W        W51451  12.865   3.687  22.650  0.0617 -0.2888  0.0387
42652W        W51452   0.412   2.629   3.571  0.0700  0.2726 -0.2538
42653W        W51453  14.054   1.471  30.419 -0.2010  0.1605 -0.1165
42654W        W51454  15.636   5.917   9.007  0.1220 -0.0135  0.0574
42655W        W51455  26.305   2.086   3.237  0.1291 -0.0655 -0.1834
42656W        W51456  21.242   4.344   9.609  0.1124 -0.1780 -0.1264
42657W        W51457   9.456   3.674  10.830  0.1754  0.0173  0.0711
42658W        W51458  15.031   1.180  30.963  0.0655  0.2773  0.2064
42659W        W51459  10.573   1.721  16.380  0.2203  0.0697  0.2244
42660W        W51460   3.906   4.341  24.347  0.1359 -0.2122 -0.3573
42661W        W51461   1.813   2.766   5.650 -0.3113 -0.0129  0.1306
42662W        W51462  15.191   0.684   4.352  0.1030 -0.1147  0.2115
42663W        W51463   6.301   6.403  33.424  0.1438  0.1355  0.1891
42664W        W51464   9.078   3.959   0.162  0.0413 -0.1190 -0.0222
42665W        W51465  17.352   1.292   2.662  0.1123 -0.2303 -0.1742
42666W        W51466   3.596   1.859  10.807 -0.0920  0.2601 -0.1980
42667W        W51467   9.642   1.963  11.264  0.0163 -0.4102 -0.0300
42668W        W51468  12.372   3.301   0.056 -0.0321  0.1293  0.0847
42669W        W51469  10.579   1.670  21.642 -0.1158 -0.0344  0.0151
42670W        W51470   9.495   0.033   9.664  0.4225 -0.2031 -0.0306
42671W        W51471  14.501   3.587  23.910  0.0958 -0.0836 -0.0623
42672W        W51472   5.397   3.932  32.599 -0.0802  0.1425  0.0609
42673W        W51473  12.519   6.411   7.910  0.2146 -0.2001 -0.3036
42674W        W51474   4.596   0.322  32.307  0.0599 -0.4210 -0.0819
42675W        W51475   7.745   1.417  25.587  0.3102  0.3328 -0.1165
42676W        W51476  18.044   0.710   3.877 -0.1921  0.0882  0.0857
42677W        W51477  24.191   5.841  25.683  0.1181 -0.0210 -0.1100
42678W        W51478  20.374   4.612   8.742  0.2023 -0.1935  0.0459
42679W        W51479   4.802   0.225  22.087 -0.0262  0.0230 -0.3775
42680W        W51480  13.005   3.587   5.341 -0.1595 -0.0592  0.2901
42681W        W51481  19.735   1.922   1.416 -0.0237  0.0633 -0.1007
42682W        W51482  25.425   5.618  28.008  0.1233  0.2131  0.2111
42683W        W51483  15.368   4.138  35.923 -0.4083 -0.1125 -0.0114
42684W        W51484  14.612   3.337  29.176  0.0792  0.2587 -0.0404
42685W        W51485  22.695   3.892  31.909 -0.1613 -0.1066  0.0975
42686W        W51486  21.994   0.830  27.085 -0.1547  0.1052 -0.3533
42687W        W51487  24.017   6.506   0.281 -0.1242 -0.1298  0.3623
42688W        W51488   6.102   2.171   0.220  0.0839 -0.1711 -0.1185
42689W        W51489  13.992   1.851  28.699  0.0132  0.0097  0.0411
42690W        W51490  11.204   3.141   7.275  0.1060 -0.0420 -0.2110
42691W        W51491  17.164   6.032  35.884 -0.1916 -0.4504  0.0769
42692W        W51492   0.608   3.896  31.080 -0.0715 -0.2421 -0.1654
42693W        W51493   9.448   5.847  24.475 -0.0206 -0.2907 -0.0320
42694W        W51494  17.072   4.615   1.640 -0.0464 -0.2471  0.1748
42695W        W51495   9.192   1.174   4.010  0.0914 -0.2177 -0.0059
42696W        W51496  14.998   3.190   6.652 -0.0486  0.1012  0.0742
42697W        W51497   8.850   2.908   8.901 -0.2403 -0.3093  0.1384
42698W        W51498  15.585   3.730  12.219  0.2751  0.2053 -0.1948
42699W        W51499  10.994   6.164  27.509  0.3585 -0.2274 -0.1569
42700W        W51500  13.135   0.748  35.441  0.2141 -0.0526  0.0927
42701W        W51501  11.814   2.167  21.048  0.1124  0.1684  0.1690
42702W        W51502   5.235   0.983  11.099  0.0020  0.2748 -0.0720
42703W        W51503   9.302   3.184  31.061  0.1292  0.0480 -0.1893
42704W        W51504  25.546   4.437  21.146 -0.0559  0.0563 -0.0823
42705W        W51505  22.086   5.973  33.127  0.0672 -0.0767 -0.3080
42706W        W51506   6.286   1.879   3.577 -0.2862  0.0162  0.1424
42707W        W51507   3.238   6.085  11.677  0.0229  0.0923 -0.1364
42708W        W51508  22.847   5.492   5.134 -0.0007  0.0552  0.2835
42709W        W51509   3.427   6.019  35.120 -0.1695  0.3503  0.2757
42710W        W51510   0.400   5.543   9.489  0.1707  0.2823  0.0661
42711W        W51511   3.132   2.181  15.272 -0.2004 -0.1155 -0.0246
42712W        W51512   9.175   1.481  24.831 -0.1347 -0.2089  0.0632
42713W        W51513   1.743   1.549  21.252  0.1398  0.3509 -0.1627
42714W        W51514  16.077   1.427   1.935 -0.0576 -0.2085 -0.0004
42715W        W51515  19.273   6.007  33.848  0.2413  0.1720  0.4338
42716W        W51516   9.235   6.409  29.684  0.2398 -0.1432 -0.0124
42717W        W51517  15.792   5.613  23.310  0.2476 -0.2579 -0.2547
42718W        W51518   5.529   5.684  11.603 -0.1430 -0.0653 -0.0138
42719W        W51519   0.048   3.983   5.004 -0.1259  0.2611  0.0317
42720W        W51520  10.153   3.312  21.873 -0.0588  0.1143 -0.1324
42721W        W51521  15.827   5.564  33.869  0.1145 -0.0009  0.1082
42722W        W51522   7.872   0.114  26.437  0.0311 -0.0812  0.1589
42723W        W51523  12.267   0.553   1.654 -0.2828  0.2594 -0.2241
42724W        W51524   4.557   1.328   3.579 -0.4007 -0.0924  0.2350
42725W        W51525  10.245   0.834  23.937 -0.0296 -0.1204 -0.2969
42726W        W51526  15.057   5.752  35.614 -0.0833  0.2705 -0.0196
42727W        W51527  10.874   2.262   7.556  0.1743  0.1732 -0.0911
42728W        W51528  23.199   3.573  12.145  0.1233  0.1732 -0.1384
42729W        W51529   0.229   3.043  14.474 -0.1663 -0.1130 -0.0563
42730W        W51530   6.626   4.396  21.966  0.0971 -0.0906  0.2020
42731W        W51531  20.430   1.421  33.101  0.2176 -0.1195  0.1101
42732W        W51532  20.847   5.660  25.290 -0.1778 -0.1298 -0.4489
42733W        W51533   2.088   2.583   0.295  0.0465 -0.0914  0.0878
42734W        W51534  13.959   0.283   4.892 -0.3157  0.1926  0.0580
42735W        W51535  20.748   5.656   5.722  0.1250 -0.0780  0.2632
42736W        W51536  21.381   6.165  33.648  0.2762  0.2971  0.1310
42737W        W51537   6.849   5.311  29.070 -0.1345 -0.1192 -0.0663
42738W        W51538   7.447   3.222  22.144 -0.1095 -0.0397 -0.0978
42739W        W51539  18.964   4.984  35.230 -0.1887  0.3274 -0.0277
42740W        W51540   0.380   3.304  10.954  0.2708  0.1418  0.0204
42741W        W51541  14.092   1.530  29.880 -0.0146 -0.3406  0.1540
42742W        W51542  25.812   5.382  22.848  0.0055  0.1683 -0.1175
42743W        W51543   8.239   5.492   7.927 -0.0837 -0.0043 -0.1355
42744W        W51544  23.316   0.398   9.405 -0.0236 -0.3005 -0.2974
42745W        W51545  17.538   6.171   7.094  0.2105 -0.0643  0.1005
42746W        W51546   0.905   3.392  22.638  0.2549  0.2328  0.1040
42747W        W51547  16.519   5.553  26.856 -0.0621  0.0776  0.2440
42748W        W51548  14.354   1.228   8.037 -0.0301 -0.0249  0.1354
42749W        W51549   8.547   5.365  25.624 -0.1966  0.0367 -0.2570
42750W        W51550   3.478   5.416  31.372  0.5101  0.0359 -0.2358
42751W        W51551  26.000   5.184  23.588 -0.1523 -0.0287 -0.1524
42752W        W51552  18.344   3.389   2.373 -0.0688  0.1190 -0.2381
42753W        W51553  23.224   4.593   5.616  0.1109 -0.0916  0.3328
42754W        W51554  20.325   0.822  35.156  0.2596  0.2506 -0.0807
42755W        W51555  14.180   6.248   9.310  0.1108  0.0166 -0.2789
42756W        W51556  15.237   3.615   1.156  0.1918 -0.2022  0.1623
42757W        W51557  18.565   4.497   2.048  0.1137 -0.1305  0.0216
42758W        W51558  13.453   1.440   8.923  0.0456  0.0185  0.0169
42759W        W51559   1.170   1.061  11.408  0.2548 -0.0271  0.0237
42760W        W51560   3.236   5.660  20.161  0.2516  0.1593  0.0255
42761W        W51561   1.196   5.396  29.419 -0.0061 -0.2061  0.0455
42762W        W51562  23.587   5.798  28.977 -0.0342  0.1012  0.0766
42763W        W51563   0.370   3.415  33.447  0.0761 -0.0250 -0.0271
42764W        W51564  12.644   2.402  10.149 -0.1096 -0.1824  0.0584
42765W        W51565   2.413   2.006   0.611  0.0857 -0.2016 -0.0707
42766W        W51566   4.151   3.190  27.019 -0.1864  0.1784 -0.0527
42767W        W51567  21.731   4.467   4.253  0.3294  0.2568  0.0502
42768W        W51568  22.190   0.914   6.454 -0.2056  0.1667 -0.0175
42769W        W51569  21.841   6.149   6.271 -0.0960 -0.0725  0.1746
42770W        W51570  25.013   5.990  13.643 -0.1154  0.0481 -0.0068
42771W        W51571  19.990   2.604  21.382 -0.1558  0.2236  0.2209
42772W        W51572  10.747   5.093  25.434 -0.2906 -0.1185 -0.3650
42773W        W51573   9.282   6.225  26.728 -0.0509 -0.1328 -0.2671
42774W        W51574   6.744   5.488  10.374 -0.3139 -0.1957  0.1922
42775W        W51575  18.511   3.527  31.787 -0.0925 -0.2777  0.1730
42776W        W51576   3.630   1.417  12.513 -0.0384  0.1174  0.1185
42777W        W51577  22.934   0.550   7.857  0.0277  0.0253 -0.0088
42778W        W51578   4.396   2.477  24.174  0.1579 -0.1244  0.2408
42779W        W51579   7.267   0.179  12.917 -0.1598 -0.1136 -0.1662
42780W        W51580   6.899   6.251  34.238 -0.0211  0.1793  0.2030
42781W        W51581   7.847   3.461  14.600 -0.1720  0.5351 -0.3421
42782W        W51582   3.092   5.614   4.483 -0.0320 -0.1249  0.0193
42783W        W51583  26.071   3.953  23.766 -0.1214  0.1944  0.0001
42784W        W51584   8.731   4.361  29.812  0.0935 -0.0082  0.2829
42785W        W51585   1.121   5.802   7.133 -0.1845 -0.0778 -0.0353
42786W        W51586   1.765   3.720   5.367 -0.2050  0.0688  0.5245
42787W        W51587  24.133   6.451  28.131 -0.1593 -0.2068 -0.5349
42788W        W51588   2.173   2.336  14.412 -0.2293 -0.0091  0.0124
42789W        W51589  21.052   3.784  33.625  0.1534 -0.0757 -0.0569
42790W        W51590   9.515   2.032   8.041  0.1527 -0.0736  0.3097
42791W        W51591  21.481   5.037  21.088 -0.0994 -0.1473 -0.0605
42792W        W51592  10.354   1.880  34.364 -0.0454  0.2621  0.2220
42793W        W51593  18.424   1.863   6.432  0.2780  0.2423  0.0651
42794W        W51594  21.914   0.002  35.350  0.0296 -0.2667 -0.2120
42795W        W51595   6.943   1.018   7.712  0.2381 -0.0293  0.2840
42796W        W51596  12.400   6.346   1.065 -0.2544 -0.2216  0.1512
42797W        W51597  15.647   2.004   6.325 -0.0151 -0.0689 -0.1491
42798W        W51598  24.825   2.525  14.226  0.1815 -0.1146 -0.0323
42799W        W51599  20.406   4.736  21.167 -0.1642  0.1986 -0.0363
42800W        W51600  12.915   1.757  12.484 -0.1536 -0.2955 -0.0969
42801W        W51601  15.314   2.690  27.130  0.0174  0.2698  0.1618
42802W        W51602  17.463   3.193   5.315  0.1462 -0.0831  0.2623
42803W        W51603  13.431   3.327   3.902  0.0879 -0.1521 -0.1594
42804W        W51604  25.187   0.024  27.664 -0.1260  0.2433  0.3730
42805W        W51605  24.227   6.377  10.368 -0.1747 -0.0089  0.2425
42806W        W51606  13.608   4.026  35.679  0.1869 -0.0288  0.0611
42807W        W51607  17.500   0.876  33.814 -0.4294  0.2622  0.1695
42808W        W51608   2.148   1.225  25.894 -0.3851 -0.0458  0.3373
42809W        W51609  13.793   3.010   3.944  0.1616 -0.1741  0.4137
42810W        W51610   0.510   4.170  23.162 -0.0889  0.2091  0.0391
42811W        W51611   7.349   3.325  13.188 -0.0322 -0.1056 -0.0263
42812W        W51612   0.675   2.694  11.678 -0.3060  0.0527 -0.2709
42813W        W51613  23.893   1.904  10.924  0.0712  0.1712 -0.1003
42814W        W51614  15.812   2.941  24.158 -0.3311  0.2747 -0.1875
42815W        W51615   5.807   4.516  14.276  0.2485  0.0204 -0.0482
42816W        W51616   6.889   4.692   8.114  0.0671 -0.2546 -0.1384
42817W        W51617  19.380   2.172  21.655  0.1752  0.0221  0.3207
42818W        W51618   5.149   5.950   2.469  0.3726  0.2482  0.0739
42819W        W51619   1.302   3.372  14.115  0.1271 -0.2725 -0.0662
42820W        W51620  18.072   1.239   1.522  0.0865  0.2304 -0.1023
42821W        W51621  15.345   0.061   8.419  0.3765  0.3403 -0.0468
42822W        W51622  25.531   1.176  14.916  0.4923  0.1677  0.1387
42823W        W51623  14.005   4.827  29.987  0.2334  0.1063  0.0769
42824W        W51624  21.076   5.034   7.691 -0.2146 -0.1605 -0.0802
42825W        W51625  14.968   1.100  27.091 -0.0492  0.1445  0.2905
42826W        W51626  13.768   4.814  31.205 -0.2202  0.1567 -0.0446
42827W        W51627  19.424   3.610   0.627  0.0386 -0.2447  0.0673
42828W        W51628  15.768   3.605  28.481  0.0636 -0.0019 -0.1912
42829W        W51629   6.962   6.048   7.900 -0.3109 -0.0687  0.0289
42830W        W51630   9.081   4.761   6.784  0.1878 -0.2616 -0.3396
42831W        W51631  19.758   2.818  32.940 -0.1211 -0.1533  0.2479
42832W        W51632   2.802   5.715  24.388 -0.1141  0.3970  0.1397
42833W        W51633  10.882   4.604   1.791  0.0669 -0.1192 -0.1889
42834W        W51634  10.133   4.124  13.970  0.0702 -0.1353  0.0891
42835W        W51635  16.107   1.325  31.888 -0.1311  0.0922  0.0163
42836W        W51636  10.577   0.986  28.895 -0.1467 -0.0538 -0.0519
42837W        W51637  19.836   0.719   8.701  0.0967 -0.0102  0.1941
42838W        W51638  13.508   3.118  24.287 -0.4084 -0.2564 -0.2092
42839W        W51639  18.279   6.276   8.122  0.1043  0.2830 -0.3274
42840W        W51640  25.736   3.197   6.367  0.0875  0.3049  0.1212
42841W        W51641  10.656   4.161  31.398  0.2394 -0.1307  0.0443
42842W        W51642  12.432   5.837  12.860  0.4093  0.0651 -0.1641
42843W        W51643  24.996   1.401  12.493 -0.1091  0.1247  0.1792
42844W        W51644  10.347   4.756   0.359 -0.1358  0.3637  0.2497
42845W        W51645  16.624   1.887   7.259  0.1071  0.1772  0.0647
42846W        W51646  22.998   4.872  33.638 -0.1433  0.1367 -0.0326
42847W        W51647   1.841   3.208  11.225 -0.1810  0.2121 -0.0703
42848W        W51648  11.412   5.180   3.693 -0.1131 -0.1697  0.2451
42849W        W51649  14.684   1.312  28.610  0.2319  0.3009  0.1127
42850W        W51650  20.225   0.324  25.054 -0.1031  0.0376 -0.2040
42851W        W51651   1.328   3.605  29.253  0.0164  0.1331 -0.0698
42852W        W51652   2.509   3.187  29.518  0.2164 -0.2177  0.1839
42853W        W51653   0.352   5.109  13.782  0.2623 -0.0763 -0.1199
42854W        W51654  18.261   4.813   4.397 -0.0797  0.1127  0.1495
42855W        W51655  12.313   1.920  31.639 -0.0337  0.2198 -0.0831
42856W        W51656   6.038   1.033  11.290  0.3309  0.4183 -0.4104
42857W        W51657   5.612   6.282  10.501  0.0575  0.1086 -0.0791
42858W        W51658  20.350   0.677   5.109 -0.2854  0.3233 -0.1929
42859W        W51659  21.849   5.903  33.618 -0.0027 -0.0522 -0.0468
42860W        W51660  19.839   4.543  11.988  0.0050  0.1226 -0.0691
42861W        W51661   0.320   3.817  31.460  0.1206 -0.3524 -0.3380
42862W        W51662   4.571   2.834  30.113 -0.0479 -0.1264  0.1808
42863W        W51663  19.168   5.936   5.013 -0.1046  0.1418 -0.0560
42864W        W51664   9.049   0.327  25.103 -0.2446  0.0897 -0.0335
42865W        W51665   8.762   2.219  12.777 -0.2390 -0.2288 -0.2488
42866W        W51666  19.595   4.208   7.671  0.2535  0.3209 -0.1562
42867W        W51667  23.448   6.108   5.962  0.1762 -0.0283  0.0605
42868W        W51668   2.169   6.120  13.828 -0.0422  0.1243 -0.3009
42869W        W51669   3.868   3.969  35.892  0.2737  0.1982  0.1903
42870W        W51670   1.449   0.053   1.569 -0.2177 -0.0287 -0.0869
42871W        W51671  12.711   2.658  26.603  0.0067  0.0566  0.2536
42872W        W51672  13.713   1.633  24.242 -0.0354  0.1550 -0.0922
42873W        W51673  13.516   2.048   3.985  0.0287 -0.1377  0.0892
42874W        W51674   2.656   4.949  25.815  0.3529  0.0811 -0.2118
42875W        W51675  17.193   5.553  35.463  0.2143  0.0480  0.0397
42876W        W51676  24.425   6.414  12.053  0.3716 -0.0994  0.1087
42877W        W51677  18.713   5.655   7.355  0.2056 -0.1830 -0.1308
42878W        W51678   9.869   3.758  26.574 -0.2700  0.0793  0.0740
42879W        W51679  20.191   3.516  13.393  0.0213 -0.0447 -0.0053
42880W        W51680  25.989   2.197  21.158 -0.1674 -0.2434  0.1557
42881W        W51681  22.149   4.401  10.145 -0.0220  0.1104 -0.0406
42882W        W51682   6.558   1.690   7.094 -0.1570 -0.1570 -0.1128
42883W        W51683  25.033   0.023  28.728 -0.2419  0.1938 -0.2055
42884W        W51684  16.731   6.074   7.844  0.0713  0.1802 -0.2899
42885W        W51685  18.516   3.534  11.155 -0.0238 -0.2560  0.0131
42886W        W51686  15.380   3.549  26.239  0.1098  0.1529  0.2455
42887W        W51687   1.695   4.992  35.523 -0.1221 -0.0041 -0.0111
42888W        W51688  18.085   1.588  11.795  0.1401  0.0918  0.1344
42889W        W51689   5.001   3.409  12.882  0.0166  0.2023  0.1791
42890W        W51690   6.691   0.189  12.118 -0.0363  0.2991 -0.1799
42891W        W51691   9.044   1.934  13.200 -0.1365 -0.1941 -0.0188
42892W        W51692  24.677   4.605   4.463 -0.3286  0.1325 -0.0135
42893W        W51693  18.710   6.108   8.018  0.3375 -0.0726 -0.0016
42894W        W51694  19.634   2.119  15.231 -0.2155 -0.0175 -0.0280
42895W        W51695  20.941   4.274  31.015  0.0719 -0.0550 -0.0023
42896W        W51696   0.082   5.767  21.670 -0.4472  0.0283  0.0847
42897W        W51697  22.814   0.341  28.415  0.2464  0.3101 -0.0709
42898W        W51698  23.742   4.016  27.824 -0.1304  0.1736 -0.1693
42899W        W51699  17.640   0.545  27.970  0.0961  0.0905  0.2409
42900W        W51700  23.355   1.121  36.008 -0.5119  0.1189  0.0754
42901W        W51701   0.400   2.167   6.946 -0.0940  0.0904 -0.0736
42902W        W51702  12.986   2.485   6.966 -0.1608  0.1674 -0.0730
42903W        W51703  14.604   2.791  29.384 -0.2010  0.2658  0.0410
42904W        W51704  16.859   5.224  24.693 -0.0839 -0.1703  0.0545
42905W        W51705   6.098   4.280  27.386  0.1270  0.4449 -0.0443
42906W        W51706  23.835   5.560   8.764 -0.0864  0.0707 -0.0008
42907W        W51707  12.919   3.282  34.115  0.1251  0.3704  0.3683
42908W        W51708  22.496   3.145   8.049 -0.0510 -0.1832  0.1414
42909W        W51709  20.849   4.354  32.269  0.0033  0.0031  0.1581
42910W        W51710  13.447   5.668   9.947  0.0490 -0.1007 -0.0343
42911W        W51711   3.971   4.616   4.183  0.1303 -0.2364 -0.0903
42912W        W51712  20.698   3.395  26.460 -0.0402  0.0499 -0.0007
42913W        W51713  14.410   0.765  13.884  0.1410 -0.0402 -0.1738
42914W        W51714  10.309   5.260  32.292  0.0140 -0.1077  0.2068
42915W        W51715  13.507   6.214   3.382 -0.1170  0.1662  0.2027
42916W        W51716  12.832   2.054  29.367  0.2157  0.0592 -0.1124
42917W        W51717   6.105   0.372  13.881 -0.0997 -0.0909 -0.3270
42918W        W51718  26.326   6.088   3.580  0.0806 -0.1282 -0.0262
42919W        W51719   3.977   6.014   2.889 -0.0673  0.0847 -0.1574
42920W        W51720   5.735   0.466   0.878  0.1157 -0.3982  0.0082
42921W        W51721   4.340   3.739   6.161 -0.0705  0.2375  0.1500
42922W        W51722  18.495   1.850  25.414 -0.0722  0.0917 -0.1011
42923W        W51723  19.888   1.473  28.513 -0.2499  0.4087 -0.0062
42924W        W51724  20.482   4.155  14.529 -0.2303 -0.0934  0.0116
42925W        W51725  10.532   4.637  29.621  0.0917 -0.1261 -0.1526
42926W        W51726  17.219   6.203  22.239 -0.0344  0.0819  0.1117
42927W        W51727  10.967   1.947  21.901  0.2397 -0.2814  0.1528
42928W        W51728  18.761   3.824   2.660  0.1502 -0.2187 -0.0658
42929W        W51729  21.546   5.240  13.528 -0.0530 -0.0848 -0.0310
42930W        W51730   4.171   0.146  23.892 -0.0559  0.1337 -0.2890
42931W        W51731  14.604   1.960  34.085  0.2878 -0.0967  0.0123
42932W        W51732   7.377   1.289  14.954 -0.2237  0.1406  0.3881
42933W        W51733   2.241   0.574   2.030 -0.1047 -0.2638 -0.3373
42934W        W51734  22.576   1.407   8.127 -0.0767 -0.1167 -0.0148
42935W        W51735   9.231   1.233  26.827 -0.2045 -0.3148 -0.1978
42936W        W51736   3.912   3.525  23.781  0.1456 -0.1863 -0.1466
42937W        W51737  23.975   2.264   7.919 -0.0175 -0.1135  0.0702
42938W        W51738  12.039   6.471   8.572  0.1862  0.2786  0.0794
42939W        W51739  11.505   6.074  14.850 -0.1001  0.1991  0.0633
42940W        W51740   1.951   3.115  34.134  0.2146 -0.1939 -0.2124
42941W        W51741  12.165   4.026  30.480  0.1051  0.2284 -0.0452
42942W        W51742   2.435   5.658  35.884  0.0979  0.1208  0.1255
42943W        W51743   4.547   5.750  32.191  0.0596  0.1899  0.0266
42944W        W51744  21.901   1.190  11.663  0.3077  0.0587 -0.1744
42945W        W51745  16.281   2.569  11.935  0.3152  0.0975  0.1112
42946W        W51746   2.388   1.406   1.630 -0.2637 -0.1048  0.1136
42947W        W51747  26.119   6.315  27.265  0.0879 -0.2339  0.0301
42948W        W51748  24.574   0.203  29.402  0.2394 -0.0952 -0.1145
42949W        W51749  11.339   0.300  27.424  0.1585  0.1061 -0.1820
42950W        W51750  19.672   5.637  33.711 -0.0278  0.3507  0.1431
42951W        W51751  15.737   6.035   4.306  0.0846 -0.0507 -0.0504
42952W        W51752  15.550   6.380  25.657 -0.0229 -0.1136 -0.2549
42953W        W51753  11.469   5.069  11.766 -0.0927 -0.0317 -0.0364
42954W        W51754   5.623   4.234  24.066  0.1647  0.0193  0.3266
42955W        W51755  13.382   0.063   8.557 -0.1584 -0.0273 -0.0235
42956W        W51756  25.847   0.570  26.072  0.2879 -0.4166  0.0572
42957W        W51757   9.694   4.497  24.944  0.0852 -0.2285 -0.0521
42958W        W51758  15.664   5.279   0.969 -0.0787 -0.0352  0.4038
42959W        W51759  20.883   2.851  26.659 -0.2245  0.2648 -0.0426
42960W        W51760  22.452   2.360  13.992 -0.1828  0.0406 -0.3366
42961W        W51761  18.496   5.172  24.794  0.1030  0.1551 -0.1676
42962W        W51762  13.718   1.481  12.674 -0.0794  0.0105 -0.3535
42963W        W51763   3.409   2.161  32.673  0.1140  0.0516 -0.0437
42964W        W51764  16.569   3.523   3.219 -0.0751 -0.0870 -0.1448
42965W        W51765  16.179   0.589   8.403 -0.0043 -0.1346 -0.2491
42966W        W51766   7.609   0.678  10.901 -0.0220  0.0252 -0.2196
42967W        W51767   7.377   0.226  28.388 -0.1108  0.0833  0.0255
42968W        W51768   8.793   4.758   5.535  0.0490 -0.2608 -0.1177
42969W        W51769   1.381   4.718  25.364  0.1944  0.1848 -0.3231
42970W        W51770  19.373   5.040  22.312 -0.0712  0.0326  0.1487
42971W        W51771   1.869   1.535  32.026  0.1412 -0.0812  0.0930
42972W        W51772   4.548   2.230   5.197 -0.0020  0.2796  0.0918
42973W        W51773   8.241   0.126   0.402  0.0189  0.2664 -0.0016
42974W        W51774  16.587   4.107  24.527  0.0218  0.1018  0.1958
42975W        W51775   8.833   5.842  29.834 -0.1592 -0.3050  0.0772
42976W        W51776  24.306   1.014   9.425  0.0797 -0.1411  0.0217
42977W        W51777  25.192   5.939  30.143  0.1655 -0.0880  0.1296
42978W        W51778  11.258   0.109  25.344 -0.0142  0.0386 -0.1707
42979W        W51779   5.807   0.831  13.006 -0.1007 -0.1752 -0.2057
42980W        W51780  18.699   6.274   6.743  0.1491 -0.0750  0.0120
42981W        W51781  20.407   0.142  35.859 -0.1763 -0.1932  0.0136
42982W        W51782   1.412   2.452  23.865 -0.0924 -0.1077 -0.3271
42983W        W51783  14.980   2.240   5.582  0.0783 -0.1681 -0.3538
42984W        W51784  17.629   5.714  15.209 -0.0235  0.3431  0.2894
42985W        W51785  25.461   5.603   3.783 -0.3085  0.0006 -0.1935
42986W        W51786   3.444   5.293   2.276  0.3045  0.2165  0.2301
42987W        W51787   2.953   4.492   7.898  0.0314 -0.2944  0.1043
42988W        W51788  13.293   0.159  14.356 -0.0725 -0.0147 -0.1521
42989W        W51789   5.823   1.933  11.456  0.2781 -0.1969  0.1438
42990W        W51790  12.167   3.755   7.972  0.4129 -0.0960 -0.4176
42991W        W51791  26.057   5.302   1.450 -0.1717  0.2306 -0.1483
42992W        W51792  14.459   1.399  32.947  0.0269  0.0308 -0.3820
42993W        W51793   6.757   2.557  15.832  0.3052 -0.1121 -0.1655
42994W        W51794  10.193   5.225  25.666  0.0192  0.0501 -0.0146
42995W        W51795  17.542   2.685   9.847  0.2262  0.2431 -0.2260
42996W        W51796   9.891   2.540   5.637  0.2170 -0.1842 -0.1074
42997W        W51797  15.782   0.779  21.737  0.0197 -0.1504  0.0641
42998W        W51798   5.044   3.595   0.204  0.0307  0.2150 -0.0945
42999W        W51799  16.309   1.933  28.904 -0.0932  0.3106  0.1024
43000W        W51800  13.387   2.647  10.968  0.1635  0.0567 -0.0662
43001W        W51801  20.504   5.899  27.457  0.0504 -0.4601 -0.0533
43002W        W51802   2.815   6.233   7.214 -0.0967  0.0476  0.0015
43003W        W51803  11.401   3.334  25.547 -0.1859  0.1898 -0.2182
43004W        W51804  21.655   4.115  35.939 -0.1027 -0.4412  0.3417
43005W        W51805   7.177   2.261  32.615 -0.2512  0.1690  0.0643
43006W        W51806  21.480   6.352   2.892  0.0662  0.0153  0.0006
43007W        W51807   3.957   4.747  34.101  0.0899  0.1053 -0.0594
43008W        W51808  16.473   0.924  11.098  0.0943 -0.2881  0.0177
43009W        W51809  10.416   2.422  11.833 -0.2194 -0.0801  0.3420
43010W        W51810  11.367   1.095   4.289 -0.3091  0.2796 -0.1429
43011W        W51811  15.107   1.069  28.636 -0.1132  0.0538 -0.0315
43012W        W51812  25.611   5.164  11.489 -0.2051 -0.0081  0.0530
43013W        W51813   9.203   3.011  35.176  0.0072 -0.0488  0.1239
43014W        W51814  13.927   2.393  30.079 -0.1704 -0.0020  0.2520
43015W        W51815   0.480   2.763  14.176 -0.0895  0.1923  0.3216
43016W        W51816  15.791   2.051  21.605 -0.1324 -0.0662 -0.1900
43017W        W51817  14.641   2.307  29.410 -0.0572 -0.1326 -0.0855
43018W        W51818   0.463   2.585  27.593 -0.0584 -0.1021  0.3463
43019W        W51819  15.452   0.445  11.510 -0.2046 -0.1450 -0.0799
43020W        W51820  19.213   2.976  14.745 -0.0838 -0.2480 -0.2060
43021W        W51821  17.691   6.447  28.995  0.1520  0.0238  0.2520
43022W        W51822   8.394   0.996  31.776 -0.0601  0.3264 -0.2867
43023W        W51823  10.594   3.137  30.555 -0.0864  0.4722 -0.2829
43024W        W51824  17.810   5.842   0.561  0.3091  0.1692  0.2215
43025W        W51825  20.852   4.516  14.845  0.1506 -0.1710  0.1998
43026W        W51826  25.096   3.666  26.642 -0.1805  0.1492  0.0227
43027W        W51827  18.355   2.608  12.067  0.0313 -0.1650  0.3756
43028W        W51828   9.686   6.584  23.295  0.2195 -0.0078  0.0823
43029W        W51829  16.601   1.369  15.859 -0.1515 -0.2264  0.3179
43030W        W51830  18.293   4.789  20.825 -0.0969 -0.0842  0.1357
43031W        W51831  18.053   2.840  31.162 -0.2309  0.0574  0.0792
43032W        W51832  14.408   4.547  10.868  0.0009 -0.3612 -0.0074
43033W        W51833   6.009   6.148   1.684 -0.1016 -0.1563 -0.0541
43034W        W51834   9.592   6.130  26.265 -0.1947  0.0445 -0.2320
43035W        W51835   9.211   2.173  22.278 -0.0336  0.1084 -0.3877
43036W        W51836  26.118   4.032  13.671 -0.1427  0.0711 -0.0672
43037W        W51837   2.793   4.824  35.048 -0.1482 -0.2447 -0.0003
43038W        W51838  25.420   1.819  14.937  0.1890  0.0631  0.0920
43039W        W51839  21.805   0.276  26.358  0.0470  0.1749 -0.1620
43040W        W51840  24.677   5.550   8.559  0.2247  0.2203 -0.3328
43041W        W51841  23.109   6.241   2.548  0.1426 -0.3240 -0.0701
43042W        W51842   0.041   4.290  33.156  0.4369  0.2677  0.1437
43043W        W51843  16.520   6.234  23.153  0.1465 -0.0623 -0.0235
43044W        W51844   8.188   2.974  29.103  0.2755 -0.1848  0.1288
43045W        W51845  21.878   1.267   6.066 -0.0624 -0.3250 -0.1463
43046W        W51846  22.007   4.585  25.959  0.3339 -0.3704 -0.0548
43047W        W51847   6.469   0.023  10.414 -0.1536  0.0771  0.1473
43048W        W51848  22.195   3.585  13.641  0.2159  0.0166  0.0015
43049W        W51849  10.208   4.035  16.056 -0.4291  0.3416  0.0930
43050W        W51850  12.781   0.431  13.633 -0.2194 -0.0488 -0.1424
43051W        W51851   7.851   5.756  35.852  0.2947  0.1544  0.3258
43052W        W51852  14.356   0.635  25.431  0.1727  0.1757 -0.1793
43053W        W51853   3.103   3.377  28.242  0.1727  0.3876 -0.1100
43054W        W51854   7.880   2.449  12.250 -0.0281  0.1445  0.1595
43055W        W51855  22.943   3.049  24.220 -0.0205  0.3735 -0.0597
43056W        W51856   9.373   5.953  32.977  0.1311  0.1621  0.1024
43057W        W51857   6.777   2.498  14.741  0.0725  0.1439  0.1537
43058W        W51858  20.157   3.663   9.909 -0.1688  0.1840  0.0346
43059W        W51859  13.348   0.030  27.596 -0.4262  0.0479  0.1422
43060W        W51860  23.605   0.666   8.333 -0.1146 -0.1172 -0.1001
43061W        W51861  18.696   0.225  14.297  0.0485 -0.2029  0.0802
43062W        W51862   6.004   0.097  14.871 -0.1228 -0.2078  0.0411
43063W        W51863  24.424   3.612   2.663  0.0855  0.0405 -0.3536
43064W        W51864  23.308   1.255   6.374 -0.2193  0.1952  0.0783
43065W        W51865  22.591   6.362  29.850  0.1377  0.1668 -0.0814
43066W        W51866   1.135   1.849   1.455 -0.0708  0.2341 -0.0146
43067W        W51867  24.845   4.776  29.587 -0.0366 -0.0275  0.2466
43068W        W51868   0.618   0.977  31.765 -0.0978  0.0451  0.0875
43069W        W51869  17.998   4.096   9.045 -0.1816  0.1845  0.1508
43070W        W51870  15.857   5.796  32.699 -0.0610  0.2427 -0.0326
43071W        W51871  18.474   3.018  21.170 -0.0671 -0.0342  0.0759
43072W        W51872  22.843   5.634  24.509  0.1947  0.2226 -0.1674
43073W        W51873   2.059   0.047  30.770  0.3283  0.1292  0.3580
43074W        W51874  17.776   3.545   2.688  0.0182 -0.0352 -0.1343
43075W        W51875   1.504   1.439  30.745 -0.0594  0.0434  0.1514
43076W        W51876  13.275   2.563  35.384  0.0187 -0.3005 -0.3087
43077W        W51877   8.166   5.015  30.544  0.2022 -0.0648 -0.0422
43078W        W51878   5.090   2.378  34.619 -0.3813  0.0396  0.1182
43079W        W51879   8.604   0.049  11.430 -0.1813 -0.1249  0.1756
43080W        W51880   6.275   4.843  32.664  0.0303  0.0323 -0.2135
43081W        W51881  13.404   2.207   1.320  0.0098  0.3410 -0.1303
43082W        W51882   8.377   3.871  30.440 -0.1981 -0.3073 -0.0452
43083W        W51883   8.207   4.691   2.527  0.1718 -0.1872 -0.0112
43084W        W51884  23.894   6.197  24.213  0.0807 -0.0999  0.1277
43085W        W51885   8.548   2.203   9.115 -0.0157 -0.0313 -0.2389
43086W        W51886   3.911   1.957   2.177 -0.1921 -0.0820  0.2672
43087W        W51887  26.376   0.833  28.796  0.0880 -0.1081  0.1584
43088W        W51888  19.604   5.034  10.939  0.0256 -0.1251 -0.0355
43089W        W51889   5.919   3.790   2.877  0.0348 -0.0098  0.0250
43090W        W51890  18.422   2.090  32.881 -0.2456  0.2991  0.0466
43091W        W51891  10.164   0.163   0.008 -0.0597 -0.2447  0.0111
43092W        W51892  24.691   2.673  26.922  0.1362  0.0383 -0.1397
43093W        W51893  15.681   3.688  25.814  0.0524 -0.1757 -0.1576
43094W        W51894  21.938   3.600  25.547 -0.1720  0.0372 -0.1651
43095W        W51895   1.997   5.470   0.967  0.0188  0.2976 -0.2897
43096W        W51896  21.372   2.011  13.972  0.2439 -0.0845  0.0677
43097W        W51897   4.494   5.165  24.590 -0.0808 -0.0404  0.1234
43098W        W51898  13.934   6.221   1.933  0.2335 -0.0924 -0.1841
43099W        W51899   6.108   0.769  29.830  0.0744  0.1939  0.0451
43100W        W51900  16.879   4.615  24.416  0.0597 -0.2377 -0.0724
43101W        W51901  24.272   3.298  35.297  0.2137 -0.1734 -0.2228
43102W        W51902  17.891   1.717  22.653  0.2371 -0.3339  0.1849
43103W        W51903  12.040   4.156  10.243 -0.2739  0.0453 -0.1224
43104W        W51904   2.369   5.368  20.555 -0.1408  0.1944 -0.0303
43105W        W51905   0.448   6.265   0.833  0.2821 -0.1082  0.1917
43106W        W51906  10.155   6.345  27.010 -0.0396  0.0280 -0.1870
43107W        W51907  14.510   5.293  32.470  0.2747  0.0212  0.1321
43108W        W51908   8.509   5.614  29.583  0.1083 -0.0633 -0.2538
43109W        W51909   8.824   0.983  34.133 -0.1650 -0.0567  0.0090
43110W        W51910  20.392   2.839  30.976 -0.3878  0.3567  0.0929
43111W        W51911   6.433   0.523  21.688  0.1172  0.3520  0.1846
43112W        W51912  17.919   4.851  23.477  0.4769  0.0600 -0.2421
43113W        W51913  24.024   4.328   1.035 -0.1435 -0.2124  0.0824
43114W        W51914  15.266   0.406   2.823  0.0809 -0.3720 -0.1261
43115W        W51915   4.847   2.825   9.818  0.1724  0.0328 -0.0193
43116W        W51916  14.227   5.390   3.311 -0.1490  0.0686  0.3178
43117W        W51917   1.179   0.911  23.550 -0.0077 -0.2891 -0.2099
43118W        W51918  13.589   5.594   5.696 -0.2455  0.1501  0.1921
43119W        W51919   4.165   0.848  30.344 -0.0066 -0.2417 -0.1968
43120W        W51920   2.364   5.877   7.431 -0.0497  0.0306 -0.1256
43121W        W51921   8.891   5.769  10.357  0.2944  0.1305  0.0112
43122W        W51922  19.037   3.964   1.668 -0.0598 -0.1964  0.1077
43123W        W51923  22.707   1.891   7.894  0.1062  0.2466 -0.0429
43124W        W51924   7.930   0.101  20.864 -0.0728  0.0329  0.0922
43125W        W51925   9.472   5.969  13.067 -0.1970 -0.1881 -0.1533
43126W        W51926  10.922   4.567  22.523  0.0003 -0.3110  0.1910
43127W        W51927   4.003   0.216  29.036 -0.0096  0.3383  0.3891
43128W        W51928  25.052   3.434   5.011  0.3566 -0.2489  0.1072
43129W        W51929   0.288   3.438  22.765 -0.1421  0.2067 -0.2297
43130W        W51930   6.676   4.146   0.978  0.2066 -0.1814 -0.1899
43131W        W51931   0.043   1.021   5.038 -0.2272 -0.0266  0.2112
43132W        W51932  25.154   5.706   5.868  0.0459  0.0552  0.3733
43133W        W51933   1.567   0.829  30.172  0.2260  0.0983 -0.0791
43134W        W51934  14.263   4.070  28.641  0.2481 -0.2325 -0.0959
43135W        W51935  24.261   0.648  25.579 -0.2422 -0.0266 -0.1329
43136W        W51936  23.561   4.922  11.924 -0.0249 -0.2571  0.3248
43137W        W51937  18.731   1.447  27.403 -0.1930 -0.4027 -0.0033
43138W        W51938  21.643   1.071  28.195  0.1917  0.2216 -0.1464
43139W        W51939   1.058   3.231  30.172 -0.0616  0.1686 -0.0878
43140W        W51940   1.479   5.228   1.073 -0.2705 -0.1046 -0.0682
43141W        W51941  20.947   0.554   1.320  0.0894  0.0402 -0.0228
43142W        W51942  18.461   3.231  32.932 -0.1947  0.2803 -0.2165
43143W        W51943   4.537   1.240  29.517 -0.2371 -0.1032 -0.0635
43144W        W51944   0.360   2.849   9.205  0.0567  0.0678 -0.0152
43145W        W51945   9.820   5.993  26.753  0.1683  0.2059 -0.0442
43146W        W51946  21.161   4.518   5.301 -0.1064  0.1417 -0.0123
43147W        W51947  20.627   2.264   5.077 -0.1104  0.2908 -0.3014
43148W        W51948  24.623   3.264  12.522 -0.0994  0.2093  0.0254
43149W        W51949   0.606   4.469   5.654 -0.1527  0.1698  0.1837
43150W        W51950  12.184   4.129   0.910  0.0208 -0.3469  0.2503
43151W        W51951  24.868   1.282  22.538 -0.3089 -0.1504  0.1250
43152W        W51952  17.783   3.247   6.359  0.2075 -0.1944 -0.1339
43153W        W51953  15.741   2.619  21.496  0.1027  0.0370 -0.0573
43154W        W51954   1.932   2.204  30.040 -0.2417 -0.2256 -0.0048
43155W        W51955   4.641   4.069   4.486  0.0801 -0.1247 -0.1341
43156W        W51956  22.554   3.516  26.264  0.0458  0.0358 -0.2140
43157W        W51957  24.176   6.153   4.510 -0.0468  0.1246  0.1539
43158W        W51958  19.637   5.914   6.624 -0.1332 -0.1974  0.0945
43159W        W51959   4.769   3.822   3.963  0.0717  0.2842 -0.0397
43160W        W51960  22.881   4.329  20.316  0.1534 -0.3254  0.2260
43161W        W51961  24.765   0.722  10.680 -0.0165  0.1116  0.2124
43162W        W51962  15.567   1.489   0.818 -0.2036  0.2263  0.1825
43163W        W51963   9.087   6.320   6.236 -0.0734  0.1070  0.0145
43164W        W51964  22.641   4.778  25.798 -0.2409  0.1573  0.0762
43165W        W51965   0.013   5.308   0.970  0.1157 -0.3310 -0.1724
43166W        W51966   0.285   5.602   6.566 -0.5280 -0.2017  0.0179
43167W        W51967   1.096   5.182  30.353  0.0446 -0.1184 -0.0429
43168W        W51968   1.395   4.248  34.961  0.2856  0.3872 -0.1333
43169W        W51969  13.919   5.928   6.547 -0.0055 -0.0194 -0.2015
43170W        W51970   9.459   4.397  20.435  0.1001  0.3802  0.3512
43171W        W51971   6.187   2.124   3.136 -0.1042 -0.3889 -0.1046
43172W        W51972  21.081   2.990  28.806  0.1810 -0.1776  0.1355
43173W        W51973  20.235   6.579   1.820 -0.1746  0.1766 -0.1235
43174W        W51974  19.754   0.806  26.563  0.0139  0.0836  0.2011
43175W        W51975   4.363   3.987  14.841 -0.0067  0.0250  0.1501
43176W        W51976  10.734   3.869  28.952 -0.0499  0.0279  0.0610
43177W        W51977  25.614   0.951   2.398 -0.0754  0.1845  0.0712
43178W        W51978  25.989   5.264  30.806 -0.0896 -0.0252  0.2999
43179W        W51979   7.686   4.822   1.404 -0.0496 -0.0772  0.0508
43180W        W51980   7.120   4.001  27.499  0.1118  0.3307 -0.0736
43181W        W51981   7.739   4.988  26.054 -0.2694  0.2080  0.1536
43182W        W51982   9.114   1.994   6.729 -0.1598  0.0049  0.0119
43183W        W51983  15.735   3.325  24.851  0.0102 -0.1283 -0.0019
43184W        W51984  13.848   2.500  10.794  0.1854 -0.2443 -0.0790
43185W        W51985  14.788   0.636   6.346 -0.1827 -0.0007  0.0954
43186W        W51986   6.321   0.876  35.624  0.3272 -0.1943 -0.1248
43187W        W51987  19.410   1.197  30.786 -0.2038  0.0912 -0.0580
43188W        W51988  23.473   5.667  33.461 -0.1947 -0.2905 -0.1706
43189W        W51989   9.305   0.581  25.464 -0.0669 -0.1449  0.2444
43190W        W51990  23.377   3.944  11.902 -0.3462  0.0360  0.2761
43191W        W51991  12.527   2.731  23.257  0.2320 -0.1738 -0.1388
43192W        W51992   5.339   4.362  11.872 -0.1487 -0.1157  0.1014
43193W        W51993  22.436   3.749  23.383  0.1545 -0.2441  0.1113
43194W        W51994  19.639   4.248  33.335 -0.0295 -0.1144  0.0060
43195W        W51995  10.479   1.048  27.911 -0.0408  0.1929 -0.0177
43196W        W51996  13.506   3.902  27.391 -0.3368  0.0069  0.4662
43197W        W51997  21.367   5.335  31.544 -0.1808  0.3378  0.2706
43198W        W51998   1.507   0.104  13.416 -0.0846 -0.2466 -0.0724
43199W        W51999  18.430   0.324  33.978  0.3198 -0.0121  0.2331
43200W        W52000  22.375   4.007  10.403  0.1137  0.1870  0.0568
43201W        W52001  18.426   5.217  26.567  0.2526  0.1220 -0.1626
43202W        W52002  10.959   0.897  11.957 -0.2238 -0.1465 -0.1869
43203W        W52003  15.733   3.574   5.177 -0.0491  0.1893  0.1194
43204W        W52004  25.829   4.885  21.639  0.1361 -0.1062  0.0569
43205W        W52005  18.248   5.717  26.522 -0.0168  0.0655 -0.3426
43206W        W52006  15.796   4.088   1.803 -0.1571  0.1339  0.3180
43207W        W52007  10.416   0.394  24.667  0.1383 -0.3723  0.3129
43208W        W52008   6.141   1.319  30.240  0.1057 -0.2156 -0.2283
43209W        W52009  14.129   3.467  23.194  0.0269  0.2411  0.3461
43210W        W52010  12.550   1.516  33.472 -0.2178  0.0738  0.0264
43211W        W52011  12.747   1.575   4.034  0.0434  0.1511 -0.2776
43212W        W52012  10.116   1.797  14.221 -0.1278  0.0238  0.3593
43213W        W52013  22.588   5.293  23.522  0.0603  0.0428 -0.0064
43214W        W52014   2.701   5.961  13.466 -0.3643 -0.4235  0.2243
43215W        W52015   9.017   5.320   4.076 -0.1678  0.0150 -0.1179
43216W        W52016   8.423   5.011  15.080 -0.1489  0.2136  0.0410
43217W        W52017  14.841   4.847   9.966  0.0339 -0.2354 -0.2021
43218W        W52018  14.000   2.699   5.482 -0.0219 -0.1018 -0.1085
43219W        W52019  14.677   3.705  26.701 -0.1862 -0.4331 -0.2494
43220W        W52020  22.941   5.064  29.773 -0.1210 -0.2234  0.2455
43221W        W52021  22.436   5.805   9.735 -0.0237 -0.0986 -0.1371
43222W        W52022  20.035   1.653  33.946  0.2852  0.1519 -0.0917
43223W        W52023  15.745   0.261  21.498  0.1045 -0.0119 -0.1230
43224W        W52024   5.553   5.200   4.784 -0.4746  0.2064  0.1247
43225W        W52025  11.703   0.569   9.912 -0.1750 -0.2512  0.1495
43226W        W52026   6.262   5.157  33.638  0.2464 -0.0454  0.1190
43227W        W52027  13.980   3.116  12.612 -0.1834  0.2083  0.0166
43228W        W52028   6.286   3.137  31.070  0.0077 -0.1325 -0.1206
43229W        W52029   3.031   5.075  29.335 -0.0009 -0.1226  0.2321
43230W        W52030   4.719   2.350   8.554 -0.0254 -0.0000  0.1902
43231W        W52031  12.083   3.973  24.101  0.2482  0.0374  0.0483
43232W        W52032   4.958   2.675  35.841 -0.0203 -0.1451 -0.1929
43233W        W52033  10.701   4.390   9.122  0.1064  0.1107 -0.0363
43234W        W52034   2.359   3.833  32.745  0.1580  0.0549  0.0676
43235W        W52035   0.207   4.756  31.432 -0.0547  0.1646  0.2016
43236W        W52036  17.536   0.973  10.392  0.1258  0.1568 -0.1974
43237W        W52037   1.761   0.215  21.249 -0.1048 -0.1079 -0.1989
43238W        W52038   9.631   0.985  13.717  0.2244  0.0134 -0.0733
43239W        W52039  14.378   4.504   5.300 -0.0231 -0.0163  0.0415
43240W        W52040  24.872   2.777  29.565  0.1556  0.0307 -0.0897
43241W        W52041   1.517   3.854   4.924 -0.1684  0.1870 -0.0566
43242W        W52042  11.134   5.253  21.399 -0.2946 -0.0580 -0.0847
43243W        W52043   6.122   3.233  29.602  0.1819  0.2091 -0.1585
43244W        W52044   0.064   0.482  22.230  0.2206 -0.1455  0.1377
43245W        W52045   6.155   6.035  27.115 -0.0234  0.3371 -0.0981
43246W        W52046   6.278   0.147  34.459  0.4342 -0.3521  0.1386
43247W        W52047   3.572   6.247  13.955 -0.0196  0.1301  0.1490
43248W        W52048  26.066   2.958  27.369 -0.0527  0.1161  0.1947
43249W        W52049  19.298   3.822  35.690 -0.1062  0.1880  0.1347
43250W        W52050   7.968   0.982  28.829 -0.3732 -0.0844  0.2677
43251W        W52051  23.010   1.576  25.611  0.0364  0.0324 -0.0737
43252W        W52052   0.178   4.277  29.327  0.2082  0.2895  0.2110
43253W        W52053  16.798   2.057  11.298  0.0616 -0.1882  0.2695
43254W        W52054  17.822   1.277  20.873 -0.1875  0.0437 -0.2000
43255W        W52055  25.724   2.687   5.032 -0.1153  0.0321 -0.0368
43256W        W52056   6.232   3.161   4.087  0.2676 -0.2446  0.1586
43257W        W52057  23.989   5.141  31.784  0.0545  0.1433 -0.2275
43258W        W52058  23.630   2.372  32.152 -0.1617  0.1346  0.3025
43259W        W52059   7.089   1.271   0.301 -0.1495  0.3743 -0.1117
43260W        W52060   0.503   3.068   1.730  0.0733  0.1324  0.2421
43261W        W52061  15.661   3.764  35.847 -0.0551 -0.2130  0.0043
43262W        W52062  22.061   1.318  29.664 -0.0181  0.2245 -0.5153
43263W        W52063   6.506   1.192  30.660  0.1273 -0.0876 -0.1160
43264W        W52064  18.217   3.935   3.235  0.0667  0.0529 -0.0728
43265W        W52065   9.672   6.266  24.291 -0.0574 -0.0006 -0.0973
43266W        W52066   9.327   0.995  34.243 -0.0709 -0.0361 -0.0937
43267W        W52067   8.312   5.494  23.114  0.0605  0.2440  0.0521
43268W        W52068  11.822   4.114   0.297  0.1118  0.3097 -0.0869
43269W        W52069   8.480   0.257   3.420 -0.1074 -0.1025 -0.1153
43270W        W52070  21.617   0.464  29.271  0.1651  0.1867 -0.1472
43271W        W52071  11.480   2.522  13.448  0.1390  0.3311  0.2541
43272W        W52072  22.332   0.955  34.257 -0.2558  0.1991 -0.0092
43273W        W52073  18.126   4.668   9.471  0.0367 -0.0215  0.0644
43274W        W52074  11.575   0.500   5.795  0.0010  0.2146 -0.1859
43275W        W52075  10.963   4.962   6.848 -0.0652  0.1947 -0.1021
43276W        W52076   1.264   2.812   4.242 -0.3058 -0.0770 -0.0916
43277W        W52077  18.349   5.612  11.513 -0.2370 -0.0166  0.0364
43278W        W52078  21.063   1.425  27.198  0.0336 -0.0103 -0.1504
43279W        W52079   7.758   2.240   0.841  0.5140 -0.1568  0.1584
43280W        W52080  26.290   3.070   7.983 -0.2392  0.0824  0.1909
43281W        W52081   7.553   3.075   1.266 -0.1080 -0.0134  0.0631
43282W        W52082  22.444   0.091  10.874 -0.0738 -0.0094 -0.1479
43283W        W52083  25.393   0.602  30.727 -0.0727 -0.0777 -0.3559
43284W        W52084  14.711   4.845  11.222 -0.1051 -0.2219 -0.2138
43285W        W52085   9.350   1.858  23.605  0.0728  0.0182 -0.2209
43286W        W52086  14.825   0.581   6.879  0.1202 -0.1842 -0.1075
43287W        W52087  15.191   5.923  30.941 -0.0740 -0.3277 -0.1371
43288W        W52088   3.660   3.369   0.292 -0.0721  0.2874  0.0004
43289W        W52089  16.812   0.337  23.832  0.1241  0.1206 -0.0975
43290W        W52090   1.724   5.875  30.400 -0.2177  0.2160  0.1368
43291W        W52091   2.038   5.927  27.806  0.0556  0.0194  0.2197
43292W        W52092   3.273   4.746  29.639 -0.0405  0.0292  0.0060
43293W        W52093   4.299   0.042   5.065 -0.0564 -0.1872  0.0717
43294W        W52094  13.961   0.997   6.814  0.1308  0.2466 -0.1011
43295W        W52095  20.302   0.425   5.687 -0.1375  0.4267  0.0802
43296W        W52096  23.271   2.845   7.572  0.2929  0.1185 -0.3083
43297W        W52097  25.225   2.185  21.675  0.1202 -0.2267  0.2260
43298W        W52098  19.376   0.096   5.377 -0.1505 -0.1824 -0.1169
43299W        W52099  10.002   5.796   7.485 -0.2768  0.0603 -0.1445
43300W        W52100  21.894   1.604   1.252 -0.0171  0.0712  0.0216
43301W        W52101  21.350   3.170  23.630  0.2035 -0.0403  0.0577
43302W        W52102  22.484   4.191  32.915  0.1345 -0.0585 -0.0330
43303W        W52103  11.029   4.405  25.169  0.2546  0.1123 -0.1721
43304W        W52104   1.228   3.738  28.778  0.4219  0.0855  0.3299
43305W        W52105   3.317   1.876  25.466 -0.1249 -0.0945  0.1692
43306W        W52106   7.131   5.894  11.270  0.0204  0.0012  0.1322
43307W        W52107  24.868   1.809  29.169  0.1539  0.0783 -0.0878
43308W        W52108  22.939   3.058  35.565  0.0736  0.1813  0.0916
43309W        W52109   2.719   2.575  13.234 -0.1365 -0.0077 -0.1395
43310W        W52110  15.634   2.843   6.667  0.0105 -0.0588  0.0360
43311W        W52111  24.414   2.189   0.831 -0.1546 -0.0356 -0.0612
43312W        W52112  25.733   4.668  35.210  0.1971 -0.1810 -0.0881
43313W        W52113   2.553   0.976   2.515  0.0819  0.4870 -0.0142
43314W        W52114   2.732   3.685  29.651  0.0839  0.3718 -0.1063
43315W        W52115  12.758   6.509  28.835  0.0018 -0.1432 -0.2606
43316W        W52116  25.278   2.762   1.524 -0.1509 -0.1534  0.4576
43317W        W52117  10.636   0.433   9.129 -0.3713 -0.0739  0.0928
43318W        W52118   5.439   2.273   6.667 -0.4906  0.0149 -0.1776
43319W        W52119  23.649   5.787  14.053 -0.2106  0.0183  0.1230
43320W        W52120   8.374   3.265  20.733 -0.0653  0.1266 -0.0897
43321W        W52121  25.884   1.744  14.132  0.0559 -0.3127 -0.3805
43322W        W52122   4.291   4.192   0.772  0.0176  0.2714  0.0224
43323W        W52123   5.919   3.624  33.634  0.0661 -0.0720  0.1489
43324W        W52124   0.753   2.457  34.524  0.1606 -0.2190  0.3636
43325W        W52125  23.108   4.258   1.008  0.2682  0.1356  0.1422
43326W        W52126  16.218   2.033  26.129 -0.0525 -0.3329  0.1698
43327W        W52127  24.381   2.712  30.176  0.0946 -0.0679  0.1040
43328W        W52128  16.582   3.363   4.176 -0.1253  0.0421 -0.0826
43329W        W52129   6.713   0.459  35.474 -0.1018 -0.4449 -0.0444
43330W        W52130  17.847   5.790  27.043 -0.0844 -0.0741 -0.1709
43331W        W52131   0.409   0.784   1.823 -0.0722  0.1630 -0.3029
43332W        W52132  19.471   2.224   4.171  0.1850 -0.1781 -0.2263
43333W        W52133  12.558   6.028   9.771  0.0991 -0.1881  0.1968
43334W        W52134   8.168   4.778   7.184 -0.0506  0.2463  0.2471
43335W        W52135  26.354   5.054   2.544 -0.1858 -0.0536 -0.0436
43336W        W52136  15.285   2.945  27.798  0.1104  0.1187  0.0013
43337W        W52137   6.617   6.084  30.714  0.1347 -0.1280  0.0888
43338W        W52138   5.816   3.374  34.100  0.0417  0.1287 -0.0713
43339W        W52139  18.078   1.083   7.532  0.2017  0.3625 -0.1608
43340W        W52140  18.226   5.256  23.151 -0.1485 -0.0996 -0.1701
43341W        W52141  12.812   2.151  21.534 -0.1524 -0.2844  0.1062
43342W        W52142   2.814   0.493   4.571  0.0830 -0.0617 -0.2088
43343W        W52143  13.818   2.511   7.625 -0.0700  0.0096  0.0467
43344W        W52144  24.576   1.361   4.981  0.2500 -0.1823 -0.2068
43345W        W52145   7.579   5.205  33.990 -0.1006 -0.0584  0.0333
43346W        W52146   4.405   2.239  33.834  0.0763 -0.1490  0.1521
43347W        W52147  14.632   4.307  35.337  0.0134 -0.2246  0.0166
43348W        W52148   3.975   1.756  11.637 -0.1740 -0.0125 -0.0728
43349W        W52149  11.061   4.002  28.140 -0.1312  0.0690 -0.0599
43350W        W52150  11.830   4.496  10.631 -0.1146 -0.0563 -0.0659
43351W        W52151  17.880   4.909   0.326  0.0065 -0.0948  0.3679
43352W        W52152   5.474   2.984  32.310 -0.3115  0.2086 -0.0139
43353W        W52153   1.141   3.375  15.503  0.1546  0.1127 -0.3025
43354W        W52154   5.258   4.279   4.977  0.1211 -0.2317 -0.1471
43355W        W52155  11.736   1.491  31.084  0.0756 -0.0908  0.1728
43356W        W52156  11.088   3.145  11.401 -0.0327  0.0253 -0.3154
43357W        W52157  13.479   4.467  14.125 -0.0283 -0.2026 -0.1485
43358W        W52158   5.052   5.582   1.046  0.1074 -0.1300 -0.0279
43359W        W52159   6.379   5.364   6.039  0.0823 -0.3264 -0.1480
43360W        W52160   1.600   5.343   2.310 -0.1381 -0.0176 -0.2558
43361W        W52161  17.057   0.874  10.003 -0.0944  0.1209  0.0189
43362W        W52162  17.057   5.718  33.551 -0.3985 -0.0892  0.2011
43363W        W52163   2.433   0.701   1.108  0.0098  0.0693  0.0038
43364W        W52164  19.911   3.148   8.654  0.0111 -0.1739  0.0346
43365W        W52165  19.016   1.562  12.885  0.0519  0.0887 -0.0512
43366W        W52166  21.681   0.155   8.229 -0.0063 -0.2004  0.1072
43367W        W52167  12.624   1.418   3.190 -0.1078 -0.0503  0.0868
43368W        W52168  14.768   0.945  25.479  0.2711 -0.0166  0.0618
43369W        W52169  12.742   2.047  34.143  0.0052 -0.1946 -0.2862
43370W        W52170  10.309   6.326  32.394 -0.1407 -0.1219  0.0939
43371W        W52171   2.398   0.748  14.667  0.1078  0.4075 -0.2721
43372W        W52172  17.497   2.615  31.315 -0.0435 -0.0554 -0.2636
43373W        W52173   3.941   6.468  14.306  0.2357 -0.1204  0.1973
43374W        W52174  11.210   3.275   8.908  0.1069 -0.0475  0.1756
43375W        W52175  13.758   6.570   1.651 -0.3058  0.1457 -0.1141
43376W        W52176   1.393   0.463  27.282 -0.0329  0.4342  0.0246
43377W        W52177  26.242   1.373   1.360  0.2984 -0.1406 -0.2381
43378W        W52178  13.022   6.242  16.354 -0.4761 -0.3953 -0.0479
43379W        W52179  20.335   4.327  21.643 -0.0005 -0.0686 -0.0912
43380W        W52180  16.922   2.316  20.878  0.0272  0.2728  0.3572
43381W        W52181  15.944   3.347  12.423  0.0346 -0.0269 -0.0655
43382W        W52182   7.518   2.986  23.370  0.0175 -0.1504 -0.1028
43383W        W52183  16.034   0.285   6.032  0.1454  0.0691  0.2889
43384W        W52184  21.087   0.200   5.855 -0.3001 -0.2257 -0.1369
43385W        W52185   8.606   2.012  31.151  0.0251  0.0482 -0.0931
43386W        W52186  23.218   5.682   9.589 -0.1238 -0.3044  0.1975
43387W        W52187   4.406   0.290  29.243 -0.1504  0.1070 -0.0561
43388W        W52188  21.093   3.988  24.297 -0.2104 -0.0652  0.2477
43389W        W52189   1.095   1.961  32.013 -0.0635 -0.0757 -0.0154
43390W        W52190   3.385   1.178   6.295 -0.0131  0.4490  0.0782
43391W        W52191  17.225   2.328   4.493 -0.2414 -0.1731 -0.1499
43392W        W52192  18.660   5.390  32.384  0.3649 -0.1355 -0.0775
43393W        W52193   3.094   0.062  30.726 -0.3118 -0.0437 -0.1981
43394W        W52194  24.442   2.033  10.327  0.0556 -0.2243  0.2167
43395W        W52195   5.124   4.757  10.010 -0.2379 -0.1908 -0.2663
43396W        W52196   3.010   1.049  24.558  0.0154  0.0218  0.1107
43397W        W52197  26.143   2.549   5.853 -0.4477 -0.2332 -0.0287
43398W        W52198   3.120   4.953   6.624  0.1807 -0.1607  0.2304
43399W        W52199   7.758   1.182   6.340 -0.0997 -0.2568  0.0051
43400W        W52200  22.840   3.750  26.615  0.2021 -0.0934  0.3279
43401W        W52201  21.081   4.327  23.356 -0.4025 -0.0244 -0.0129
43402W        W52202  21.865   4.116   3.443  0.2056  0.0920 -0.2513
43403W        W52203  15.824   2.584  23.226  0.0993 -0.3252 -0.1002
43404W        W52204  22.862   4.018  35.289  0.1172 -0.1892  0.1929
43405W        W52205   9.130   2.646  33.399 -0.0646  0.3353 -0.0556
43406W        W52206  19.650   2.551  20.389 -0.0934  0.3372  0.1939
43407W        W52207   2.387   3.473   0.028  0.1242  0.1000  0.4494
43408W        W52208  23.570   0.770  26.228 -0.2486 -0.2796 -0.0431
43409W        W52209  25.652   4.641  11.515  0.1660  0.0171  0.1066
43410W        W52210  15.328   2.572  25.503 -0.1554  0.3193 -0.3095
43411W        W52211   1.032   1.386  34.128  0.0531 -0.0900 -0.2386
43412W        W52212  16.753   1.255   7.606  0.0363  0.0807  0.2891
43413W        W52213  15.841   0.642   5.009  0.1594  0.0648  0.1299
43414W        W52214   6.201   2.216  35.003  0.2094 -0.0399 -0.0886
43415W        W52215   6.987   2.869  12.341  0.1425  0.0512 -0.3363
43416W        W52216  23.348   1.871  20.735  0.0355 -0.3094  0.0582
43417W        W52217  16.513   5.161  28.044  0.0302 -0.1153 -0.0597
43418W        W52218   2.273   1.885   5.007  0.3177  0.0301  0.0053
43419W        W52219   4.424   6.319   6.942  0.0410 -0.2266 -0.0725
43420W        W52220  19.174   5.451   4.754 -0.0607 -0.2294  0.1944
43421W        W52221   5.075   4.657  23.511  0.1362  0.0416  0.2182
43422W        W52222  12.834   4.467  34.897 -0.4108 -0.2187  0.3191
43423W        W52223   1.870   6.038   5.283  0.0647 -0.1745 -0.0207
43424W        W52224  11.604   1.232  21.570 -0.1857 -0.0047  0.2310
43425W        W52225  16.004   4.938  13.190 -0.2437  0.1613  0.0417
43426W        W52226   6.975   6.578  28.116 -0.4654  0.1917 -0.0042
43427W        W52227  14.198   2.643   5.917 -0.1780  0.2134 -0.1262
43428W        W52228   0.469   2.363  13.286  0.0900 -0.0192  0.0224
43429W        W52229  23.045   4.247  32.099  0.1422 -0.2202 -0.2517
43430W        W52230  14.644   3.102  12.763  0.0263  0.0769 -0.1107
43431W        W52231   1.261   1.693   3.773  0.3254 -0.2413  0.2709
43432W        W52232   8.622   3.229  24.286  0.0917 -0.2116  0.1499
43433W        W52233   1.464   5.826   2.309 -0.1269  0.2519 -0.0081
43434W        W52234  18.676   1.891   3.496  0.0804  0.0851  0.2145
43435W        W52235  12.986   3.333   5.767 -0.3829  0.0781  0.1906
43436W        W52236  14.754   0.946  12.494  0.1291  0.1268  0.0606
43437W        W52237  16.594   6.291   4.616 -0.0392  0.1283 -0.0392
43438W        W52238  12.643   2.143   7.006 -0.1291 -0.3337  0.0424
43439W        W52239   0.102   5.473  12.698  0.0718 -0.2125  0.0655
43440W        W52240   4.455   2.721  25.377  0.2009  0.2044  0.0413
43441W        W52241  24.339   6.201   2.859 -0.0651  0.0196  0.0099
43442W        W52242  16.778   3.818  31.695 -0.4053  0.0618 -0.1183
43443W        W52243  18.770   0.401   1.980 -0.1258  0.1226 -0.4502
43444W        W52244  14.960   3.048  15.012 -0.3675  0.0096 -0.0014
43445W        W52245  12.093   1.805  30.138 -0.0794 -0.1427  0.0515
43446W        W52246  14.556   3.735  24.403 -0.1694 -0.2655  0.0916
43447W        W52247   4.311   2.735   5.771  0.1940  0.0543  0.2327
43448W        W52248   8.337   4.026  27.202 -0.1944 -0.0530  0.0783
43449W        W52249   4.430   1.778  30.640  0.2138 -0.0009  0.2441
43450W        W52250   4.819   5.421  25.564 -0.1208 -0.3820 -0.1341
43451W        W52251  18.197   2.632  30.014  0.1229 -0.1019 -0.1584
43452W        W52252   6.210   1.817  30.146  0.1115  0.1428  0.3490
43453W        W52253   9.790   1.893  22.604  0.0419 -0.0983  0.1353
43454W        W52254  25.827   5.987   3.286 -0.3000  0.0470  0.0539
43455W        W52255  17.946   5.251  33.032 -0.0449 -0.4679  0.0720
43456W        W52256   9.388   0.611   0.150 -0.0277  0.0474 -0.2168
43457W        W52257  13.375   4.496   6.594 -0.1083 -0.1355 -0.1889
43458W        W52258  11.695   1.057  31.287 -0.0429  0.0066 -0.2286
43459W        W52259   6.239   4.200   5.063 -0.0157 -0.0198  0.0228
43460W        W52260  23.391   3.638   0.866 -0.0220 -0.2154 -0.0330
43461W        W52261  23.761   3.679   6.361 -0.0134 -0.1899  0.0106
43462W        W52262   0.504   5.012   2.370 -0.0108  0.1287 -0.0122
43463W        W52263   7.718   4.382  29.887  0.0892  0.0531 -0.2965
43464W        W52264   8.967   3.850  31.642 -0.0500 -0.1942  0.1349
43465W        W52265  25.690   3.875  14.889  0.0527  0.0415  0.1786
43466W        W52266  22.712   1.547  12.453 -0.0639  0.1505 -0.1162
43467W        W52267  10.026   2.269   1.031 -0.3108 -0.1122 -0.0114
43468W        W52268  13.004   0.398  26.632 -0.0596  0.1984  0.1480
43469W        W52269   2.393   3.036  33.252 -0.0797  0.0059  0.1540
43470W        W52270   2.125   3.425   7.485 -0.1418 -0.2691  0.1226
43471W        W52271  22.238   5.326  35.881  0.2226 -0.4199 -0.0469
43472W        W52272   0.419   3.926  13.156 -0.3540 -0.2131  0.2721
43473W        W52273  11.744   1.179  32.293  0.1156  0.0282 -0.0197
43474W        W52274  11.688   1.639   8.953  0.0228  0.0516  0.0314
43475W        W52275   5.657   2.027  10.920 -0.0278 -0.0245  0.2028
43476W        W52276   9.491   3.906  31.413 -0.0863  0.2154 -0.0404
43477W        W52277   1.898   4.567  14.192  0.1142 -0.1643 -0.0338
43478W        W52278  17.172   0.480   9.010 -0.0864 -0.1260 -0.0988
43479W        W52279   4.102   0.981   7.996 -0.0033 -0.0152 -0.1881
43480W        W52280   2.295   3.093  10.110  0.2142  0.0804  0.0719
43481W        W52281  20.169   1.525  23.788  0.1805 -0.0105  0.1157
43482W        W52282  19.175   3.566  12.420  0.0719  0.1784  0.1954
43483W        W52283  21.841   3.942  25.905  0.0117 -0.0403 -0.0817
43484W        W52284   9.049   2.042   7.884 -0.0817 -0.1401 -0.3639
43485W        W52285  17.266   4.987  32.237  0.1470 -0.0157 -0.0806
43486W        W52286   4.315   0.006  22.009  0.1072 -0.1544  0.0120
43487W        W52287  14.864   4.267   3.039  0.0550  0.2715 -0.1107
43488W        W52288  13.956   2.665  24.841  0.4333  0.1694  0.0398
43489W        W52289  13.001   3.560  14.833  0.2432  0.1196 -0.1757
43490W        W52290  20.222   1.424  32.100  0.0726  0.1541 -0.1184
43491W        W52291  20.421   1.718  14.925  0.1254 -0.2783  0.1782
43492W        W52292  25.532   4.561   9.556 -0.1686  0.2096  0.2947
43493W        W52293  14.281   2.975  10.765 -0.3730  0.1673  0.2166
43494W        W52294  20.252   3.198  30.610 -0.0448  0.4423 -0.0068
43495W        W52295  23.378   2.363  28.390  0.0883 -0.0549  0.1577
43496W        W52296   3.631   6.379  24.727  0.1718 -0.2542  0.0728
43497W        W52297   9.140   6.260  12.921 -0.0025  0.1737 -0.0162
43498W        W52298  19.337   1.268   7.251  0.0989 -0.2420 -0.0427
43499W        W52299   6.118   3.692  28.086  0.1259 -0.2165  0.2228
43500W        W52300  24.059   5.794  31.515  0.1670  0.1034 -0.2634
43501W        W52301  15.779   1.033   2.190 -0.0352  0.2496 -0.2305
43502W        W52302  22.522   0.154  31.078  0.1743 -0.0852  0.0267
43503W        W52303   4.674   3.371  12.477  0.0960 -0.0719  0.1796
43504W        W52304  14.303   1.251   7.054 -0.0430  0.0367 -0.0141
43505W        W52305  10.002   4.399   0.563  0.1249  0.2803  0.1111
43506W        W52306  26.069   1.850   0.157 -0.1915 -0.0077 -0.2518
43507W        W52307   9.672   0.990  10.713  0.0394  0.0031  0.0896
43508W        W52308   7.906   1.909  11.951  0.1927 -0.0598  0.0673
43509W        W52309   3.864   1.475  29.282 -0.0043 -0.1613 -0.0323
43510W        W52310  14.841   3.725  32.457 -0.1050 -0.0003 -0.0915
43511W        W52311   2.620   2.367  33.992 -0.2538 -0.0425  0.6767
43512W        W52312  10.706   6.526  28.087  0.1115  0.0672 -0.1665
43513W        W52313  22.896   0.674  20.466  0.0539  0.1017 -0.2988
43514W        W52314  17.672   3.912  31.266 -0.4006 -0.1017  0.1726
43515W        W52315   2.506   2.617  26.940 -0.0512  0.2071 -0.4308
43516W        W52316   1.689   6.386   7.587  0.5161  0.2250  0.1925
43517W        W52317   3.443   0.395  14.451  0.0130  0.0414 -0.0015
43518W        W52318   6.563   4.239  23.532 -0.0839 -0.1720  0.2282
43519W        W52319   2.214   2.559   3.681  0.0601 -0.1447  0.1682
43520W        W52320   4.782   3.697  12.073  0.0657 -0.0777 -0.2065
43521W        W52321  10.326   2.457  27.226 -0.3976 -0.1203  0.0523
43522W        W52322   9.117   3.367  35.595 -0.0289 -0.2655 -0.3738
43523W        W52323   3.901   5.737  12.624 -0.0325  0.2638 -0.0484
43524W        W52324   4.156   1.244   9.679  0.0271  0.0589  0.1970
43525W        W52325  25.803   0.520  21.376  0.2388 -0.2410  0.2009
43526W        W52326  14.950   1.438  32.769 -0.2956 -0.0843 -0.3032
43527W        W52327  12.506   4.962   0.950  0.2538 -0.1111  0.0714
43528W        W52328  10.313   1.155  28.489 -0.1640  0.0556  0.1360
43529W        W52329  25.930   1.071   8.632 -0.1144 -0.0625 -0.1771
43530W        W52330  17.317   0.974  30.240  0.1276 -0.3051  0.3058
43531W        W52331  21.159   6.304  24.584  0.4238  0.0036  0.1957
43532W        W52332   7.362   1.289  24.566  0.2251  0.2506  0.1406
43533W        W52333  11.405   0.726  27.958 -0.1301  0.1456  0.0358
43534W        W52334  19.837   5.738  13.685  0.1510 -0.0688 -0.3096
43535W        W52335  12.449   1.838  26.782  0.2373  0.1077 -0.1374
43536W        W52336   6.909   0.458  28.102  0.1813  0.0305  0.1017
43537W        W52337   4.884   3.814   7.612 -0.2151 -0.0426  0.0260
43538W        W52338  24.045   1.642  26.863 -0.1024 -0.3535 -0.4651
43539W        W52339  18.270   4.159  14.732  0.0717 -0.1175  0.1760
43540W        W52340  14.900   5.557   2.400 -0.1168 -0.0226 -0.1468
43541W        W52341  17.738   4.738  21.091  0.0112  0.2789 -0.1256
43542W        W52342   3.687   6.226  33.136 -0.1534  0.2307  0.1227
43543W        W52343   0.925   0.236  22.103 -0.2191 -0.1510 -0.0505
43544W        W52344   1.087   5.900  35.736 -0.0569  0.2193 -0.2844
43545W        W52345   7.249   0.839  11.742  0.0968 -0.1795 -0.1740
43546W        W52346   7.032   2.367  26.921 -0.1935  0.0175 -0.1663
43547W        W52347   1.566   6.427  25.006 -0.3246 -0.0726  0.2724
43548W        W52348  11.406   6.213   5.600  0.1319 -0.0274  0.0446
43549W        W52349  26.281   0.984  14.216 -0.0431  0.0785  0.0645
43550W        W52350  21.830   2.999  21.938  0.0774 -0.0119 -0.1951
43551W        W52351  14.647   6.530   7.630 -0.1079  0.0766 -0.0809
43552W        W52352  17.966   2.943   6.698 -0.1800  0.1142  0.2074
43553W        W52353   4.933   5.397  28.014  0.0660 -0.1878  0.3622
43554W        W52354  18.080   4.552   5.310  0.2299 -0.1670  0.0137
43555W        W52355  13.558   0.944  15.404 -0.0140  0.4026 -0.1309
43556W        W52356  21.553   0.659  36.026  0.0400 -0.2323 -0.3548
43557W        W52357  15.060   0.943  21.744 -0.0091 -0.1853 -0.1157
43558W        W52358   5.036   2.469  14.188  0.1357 -0.1309 -0.3462
43559W        W52359   0.324   6.359  31.010 -0.1816  0.2491 -0.0840
43560W        W52360  21.518   4.758  26.729 -0.0892  0.2807  0.0148
43561W        W52361  18.079   5.084   8.551 -0.1590 -0.1458  0.2398
43562W        W52362  15.587   4.454  11.697  0.2101 -0.0442 -0.2164
43563W        W52363  12.522   6.417   6.010 -0.3063 -0.0461  0.0564
43564W        W52364  14.203   3.669   0.890 -0.0911  0.3424  0.2714
43565W        W52365  25.774   3.174   5.303  0.2338  0.1003  0.0865
43566W        W52366  16.218   3.571   9.970 -0.0829 -0.2429  0.0646
43567W        W52367  22.594   5.312  27.298  0.2165  0.3805  0.0927
43568W        W52368   2.711   4.294  25.621 -0.4330  0.0230 -0.3163
43569W        W52369  16.303   6.476  28.966 -0.2465  0.2140  0.0327
43570W        W52370  23.837   5.100   4.270  0.1639 -0.0636  0.3444
43571W        W52371   8.690   3.306  29.772  0.2423 -0.1415  0.1379
43572W        W52372  23.792   0.703  13.985  0.0037  0.0728 -0.2781
43573W        W52373   0.795   3.080   9.041 -0.0223 -0.0296 -0.1855
43574W        W52374  24.815   5.733  28.861 -0.0955 -0.2049 -0.2974
43575W        W52375  11.846   6.108   9.006  0.1818 -0.1091  0.2374
43576W        W52376   9.340   0.759   5.718 -0.0774  0.1990 -0.0798
43577W        W52377  16.201   0.053   6.602 -0.0321 -0.1968  0.3333
43578W        W52378  17.149   5.652  23.493 -0.0309  0.0331 -0.1218
43579W        W52379  16.997   5.344   2.282 -0.0365 -0.0281  0.0963
43580W        W52380  13.085   0.505  24.664  0.0169 -0.0151  0.1253
43581W        W52381  12.262   1.401  11.106 -0.2518 -0.0566 -0.2008
43582W        W52382  20.313   3.678   7.851 -0.3708  0.1386  0.2328
43583W        W52383   4.325   4.439  25.778 -0.3150 -0.2446 -0.0671
43584W        W52384  14.342   0.371  31.624  0.1764  0.0142  0.1549
43585W        W52385  26.012   1.557  33.080 -0.0076  0.2081 -0.0368
43586W        W52386  12.472   3.597  34.051  0.1749  0.0554  0.2112
43587W        W52387  20.454   5.984  28.237 -0.1397 -0.2530  0.0781
43588W        W52388  20.013   0.256  31.774 -0.2162 -0.2104 -0.2692
43589W        W52389  17.532   6.514   7.656 -0.0887  0.2599 -0.2271
43590W        W52390  21.113   0.913  28.401 -0.1874  0.0247 -0.0417
43591W        W52391  12.374   3.793   9.978 -0.1085  0.4245  0.1210
43592W        W52392  20.208   2.051  23.843  0.0512 -0.1335 -0.3191
43593W        W52393   0.833   3.890  12.378 -0.0634 -0.3830 -0.0889
43594W        W52394  21.218   3.345   7.487 -0.4004  0.2891  0.1789
43595W        W52395  12.853   2.264  12.589  0.0497  0.0722  0.3741
43596W        W52396   3.209   4.885   0.619 -0.2468  0.0849  0.3908
43597W        W52397   9.070   1.055  25.445 -0.1090  0.0011 -0.1484
43598W        W52398   1.312   2.155  24.422  0.0031  0.2314  0.1371
43599W        W52399   3.955   0.894  26.059 -0.2781  0.1903  0.1555
43600W        W52400  21.857   2.038  25.175 -0.3383  0.2311 -0.0342
43601W        W52401   0.087   2.472  21.275  0.5439 -0.0868  0.0582
43602W        W52402  23.299   1.021  14.232  0.0308  0.2447  0.0304
43603W        W52403  22.895   3.225   7.308 -0.1359  0.0820  0.0468
43604W        W52404  25.399   4.462  25.600 -0.0859  0.0669 -0.1716
43605W        W52405   3.241   1.716  32.816  0.2384  0.0814  0.0970
43606W        W52406  24.604   4.853  11.638 -0.0976 -0.0380 -0.0218
43607W        W52407   6.574   3.124   5.447 -0.1516  0.1588  0.1572
43608W        W52408   1.677   6.246   3.252 -0.1150 -0.0541  0.3034
43609W        W52409  25.509   2.888  11.044 -0.1416  0.1796  0.0113
43610W        W52410  25.556   4.860  25.424  0.0358 -0.2003  0.3127
43611W        W52411   3.016   4.742   1.212  0.1202  0.1609 -0.1589
43612W        W52412   5.515   4.118  30.455 -0.2559 -0.0716 -0.2856
43613W        W52413   8.809   1.702  28.000  0.0588 -0.2270 -0.1522
43614W        W52414   5.275   1.382  23.954 -0.0116 -0.0706  0.2397
43615W        W52415  24.332   1.024   7.720  0.0728 -0.1587 -0.1189
43616W        W52416   9.881   3.687  35.542 -0.0795  0.1922  0.2411
43617W        W52417   9.631   6.025   2.068 -0.2655  0.2335 -0.0909
43618W        W52418  19.541   4.627  15.169 -0.1132 -0.0202  0.0540
43619W        W52419   8.846   3.777   2.575  0.0515 -0.4543  0.0183
43620W        W52420  18.011   0.536  30.006  0.0599  0.1220 -0.2707
43621W        W52421  22.748   4.480  11.596  0.3591 -0.0825  0.2291
43622W        W52422  10.234   0.068   7.423 -0.3289 -0.0877  0.3766
43623W        W52423   4.956   0.516  30.547  0.1119 -0.3552 -0.0257
43624W        W52424  21.893   4.763  33.087 -0.0425  0.2550 -0.1563
43625W        W52425  26.250   4.823  23.221  0.0049  0.0066 -0.1622
43626W        W52426   5.216   0.504  29.697  0.0212 -0.0160 -0.0669
43627W        W52427  13.728   1.126   8.652 -0.1836  0.2382 -0.1754
43628W        W52428  18.317   4.578   8.481  0.0215  0.0673 -0.0278
43629W        W52429  19.673   1.274  14.593 -0.1066  0.0851 -0.1039
43630W        W52430   4.740   0.047  14.580  0.1449 -0.1409 -0.0744
43631W        W52431   8.732   1.716   7.313  0.2473  0.0959 -0.1176
43632W        W52432  15.048   1.423  10.827  0.1052  0.0941  0.0544
43633W        W52433  14.825   2.465   0.145 -0.1330  0.1998 -0.1545
43634W        W52434  15.071   6.428  28.677  0.1455 -0.0675  0.0008
43635W        W52435  17.188   5.166  27.339  0.1026 -0.1774 -0.0107
43636W        W52436   9.258   3.794  24.629  0.1684 -0.1240  0.1676
43637W        W52437   1.218   3.947  10.395  0.1202  0.1638  0.0965
43638W        W52438   6.753   3.121  35.307  0.4210 -0.0149 -0.1499
43639W        W52439   0.336   6.106  20.756  0.0105 -0.0115  0.1207
43640W        W52440  11.299   2.568   9.740 -0.0197  0.1486 -0.2125
43641W        W52441  14.476   2.720  33.053  0.1029  0.1446  0.2140
43642W        W52442  22.227   3.696   5.049 -0.0598 -0.1559 -0.2001
43643W        W52443  26.112   3.659   1.643  0.0160 -0.1262  0.3139
43644W        W52444  24.222   4.073  24.671  0.2653  0.2194 -0.1799
43645W        W52445  19.454   1.679  35.744 -0.1110  0.1309  0.1647
43646W        W52446  18.209   6.599  14.386 -0.0268 -0.0273  0.1633
43647W        W52447  14.989   5.257  27.319  0.0030 -0.0340  0.1674
43648W        W52448  21.625   2.200  29.402  0.0851  0.0528  0.0108
43649W        W52449  21.282   0.173   3.155  0.3003  0.0296 -0.1212
43650W        W52450  19.408   1.522  29.290 -0.1855  0.2087  0.0890
43651W        W52451  13.708   0.206  11.533 -0.0569 -0.5563  0.0345
43652W        W52452   3.901   0.241  22.667  0.1409  0.2039 -0.1121
43653W        W52453  17.000   4.279   6.286  0.0998  0.0527 -0.3137
43654W        W52454  20.556   3.310  14.244 -0.0380 -0.0440 -0.2427
43655W        W52455  13.753   5.339   5.199 -0.1572 -0.0711  0.0163
43656W        W52456   5.907   0.645  32.656 -0.0766 -0.0803  0.1974
43657W        W52457  22.673   0.209   4.217  0.1204 -0.0505  0.0073
43658W        W52458  17.436   0.351  15.486 -0.2004 -0.0458 -0.1131
43659W        W52459  19.418   6.080  28.296 -0.2166  0.2412  0.1634
43660W        W52460  22.405   5.509  13.678 -0.0023  0.2205  0.5458
43661W        W52461   9.059   1.289  28.771 -0.4721  0.0682  0.3486
43662W        W52462  16.550   2.375   1.927 -0.1131  0.0932 -0.3878
43663W        W52463   5.719   4.709  34.141 -0.2303 -0.1159 -0.0998
43664W        W52464  14.755   4.393  11.266  0.1648  0.1164  0.1745
43665W        W52465   4.444   1.743   5.214 -0.2296  0.0007 -0.2800
43666W        W52466   2.175   3.162   1.150 -0.2989  0.1069 -0.1265
43667W        W52467   8.223   5.946   4.326  0.1267 -0.2294 -0.0589
43668W        W52468   4.514   0.099   6.590  0.6689  0.0041  0.0102
43669W        W52469  19.139   4.108  30.364 -0.3309  0.0995  0.0832
43670W        W52470   1.183   0.476   6.515 -0.4655 -0.0272  0.0064
43671W        W52471  21.764   3.570  14.477 -0.0333  0.0888  0.2738
43672W        W52472   3.904   3.465  25.328 -0.2969 -0.0902 -0.1661
43673W        W52473  11.617   6.589   6.133 -0.2347  0.3224 -0.2502
43674W        W52474  18.538   4.671  14.611  0.0068 -0.1037  0.0417
43675W        W52475  19.491   0.792  14.360 -0.2448 -0.1009  0.0433
43676W        W52476  25.645   4.052  29.840  0.0008 -0.1247 -0.1052
43677W        W52477  24.316   1.978  12.317  0.0816 -0.1794  0.0193
43678W        W52478  21.695   4.363   9.942 -0.2514  0.0796  0.1493
43679W        W52479   3.084   3.685  12.505 -0.0064 -0.2244  0.1112
43680W        W52480   6.792   2.807   1.729 -0.3433  0.0857 -0.2810
43681W        W52481  17.974   5.237   1.902  0.0457 -0.1696 -0.4533
43682W        W52482  25.853   5.808  31.340 -0.2525  0.0108 -0.2694
43683W        W52483  19.553   4.516  28.001 -0.1671 -0.1179  0.2979
43684W        W52484   5.903   1.303  25.798  0.0030  0.2246  0.0892
43685W        W52485  21.588   3.318  29.552 -0.0251  0.2250  0.1925
43686W        W52486  17.666   4.989  27.353  0.0749 -0.0396 -0.1906
43687W        W52487   2.288   3.843  24.908 -0.1294 -0.0875 -0.1478
43688W        W52488  24.169   6.274  31.333  0.0064  0.1682 -0.0112
43689W        W52489  20.766   4.496   9.018 -0.2396  0.1354  0.0862
43690W        W52490  17.630   1.949  23.055 -0.2835  0.2444  0.1683
43691W        W52491  15.529   5.265   6.833 -0.1254  0.2432 -0.1701
43692W        W52492  26.132   3.312  26.048 -0.1289 -0.1804 -0.1368
43693W        W52493  15.291   4.132  21.845 -0.2457  0.0233 -0.1660
43694W        W52494   6.736   5.801   6.899 -0.0733  0.3082  0.0842
43695W        W52495  12.480   4.661  15.490  0.1467 -0.0170  0.0967
43696W        W52496  15.524   3.399  25.364  0.1707  0.1361  0.1088
43697W        W52497  24.282   2.241   5.612 -0.1649 -0.0038 -0.0851
43698W        W52498  12.512   2.391  35.161 -0.2324  0.2751  0.1312
43699W        W52499  22.506   5.788  14.033 -0.1305 -0.0431 -0.0500
43700W        W52500   9.859   3.173  15.905 -0.0927  0.0728 -0.1312
43701W        W52501  13.730   6.462   2.339  0.2047 -0.1532 -0.3417
43702W        W52502   7.894   3.710  35.243 -0.0191  0.1871  0.1497
43703W        W52503  25.747   1.957  25.085  0.2823  0.0315 -0.1907
43704W        W52504  16.454   0.553  25.316  0.0801  0.1578  0.0901
43705W        W52505  26.089   1.512   5.646  0.1687  0.1022 -0.1043
43706W        W52506   7.974   1.032   4.430 -0.1063  0.2334 -0.1022
43707W        W52507   2.429   2.577  27.441 -0.0979  0.1895  0.0989
43708W        W52508   8.510   4.626  21.337 -0.0076  0.0117 -0.1126
43709W        W52509  12.142   5.611  22.319  0.0565 -0.1507 -0.1167
43710W        W52510  21.863   1.495   0.272 -0.1015  0.3438 -0.1336
43711W        W52511  11.584   0.966   0.170 -0.2007  0.1784 -0.2572
43712W        W52512   8.120   5.099  21.324 -0.2641  0.3607  0.0738
43713W        W52513   5.072   5.934   3.494 -0.0287 -0.1826  0.0511
43714W        W52514  18.095   1.350  34.962 -0.0869 -0.1284  0.3013
43715W        W52515  23.549   1.046  28.552 -0.3149  0.1288  0.1417
43716W        W52516   2.233   6.198  33.204  0.0775  0.0165  0.0804
43717W        W52517  22.446   5.963  26.570  0.0288 -0.0107  0.0096
43718W        W52518   0.392   3.510  29.189 -0.0398 -0.2997  0.1609
43719W        W52519  23.830   2.903  33.127  0.0898 -0.0097 -0.0544
43720W        W52520   4.214   2.656  12.854  0.0766 -0.2604 -0.1190
43721W        W52521  25.075   2.593   6.141 -0.1446 -0.3669 -0.0620
43722W        W52522  18.500   6.139   2.500 -0.0960  0.1143 -0.1174
43723W        W52523  25.402   5.840  10.367 -0.2885  0.0960 -0.2422
43724W        W52524   9.752   3.442  14.903 -0.1482 -0.1837 -0.2953
43725W        W52525  19.352   6.554   1.945  0.2276 -0.1505 -0.0944
43726W        W52526   7.995   1.893  10.669 -0.0187  0.1591 -0.0483
43727W        W52527   4.269   0.885   0.628  0.1128  0.0080 -0.0797
43728W        W52528   4.839   3.638   2.525  0.0088 -0.1226 -0.1748
43729W        W52529   3.594   5.362   8.718  0.0158 -0.1229 -0.1687
43730W        W52530  10.138   3.753  25.722  0.0053  0.1280  0.0463
43731W        W52531   0.683   0.485  21.177 -0.0155  0.2672  0.1496
43732W        W52532  20.150   1.743   7.165  0.3847  0.0656 -0.1008
43733W        W52533  18.125   2.649  34.610 -0.0269 -0.1343 -0.0561
43734W        W52534   7.806   4.521   9.649  0.3531  0.0848  0.1831
43735W        W52535  12.373   6.202  26.271  0.0473  0.0580  0.0374
43736W        W52536   0.047   4.827  13.979 -0.1260 -0.0664 -0.0378
43737W        W52537  26.005   2.684  11.223  0.2621 -0.3506 -0.1522
43738W        W52538  12.312   1.506  27.225 -0.0538 -0.0872  0.0493
43739W        W52539  12.056   3.716  21.605 -0.0623  0.0241  0.0738
43740W        W52540  19.072   1.071   6.515  0.0402 -0.1770 -0.3010
43741W        W52541   5.625   2.070  25.118  0.0314 -0.0004  0.0325
43742W        W52542   5.169   0.461  25.635  0.0011  0.1042 -0.1664
43743W        W52543   0.625   2.786   1.338  0.1173 -0.0539  0.3870
43744W        W52544  19.186   4.843  14.430  0.1348 -0.1429  0.1907
43745W        W52545   0.604   0.030  33.009 -0.0827  0.0983  0.0392
43746W        W52546  23.359   2.670  11.814 -0.1874 -0.1848 -0.2440
43747W        W52547  15.228   3.191   3.705  0.1367 -0.1529 -0.0163
43748W        W52548   9.809   2.786  24.817  0.1862 -0.0108 -0.2049
43749W        W52549  13.734   5.139  22.574 -0.0669  0.3711 -0.2218
43750W        W52550  22.215   4.005  10.855 -0.0713 -0.0648  0.0815
43751W        W52551   5.017   5.824  13.339 -0.2834  0.1558  0.0905
43752W        W52552   1.540   4.672   3.168  0.2233 -0.3006  0.0878
43753W        W52553   2.791   4.132  21.199  0.2775 -0.0300  0.1292
43754W        W52554  16.481   0.257  32.357 -0.2018 -0.0816  0.1272
43755W        W52555   7.823   2.882  32.749 -0.2619 -0.1437 -0.0491
43756W        W52556  20.604   2.822  12.110  0.0804  0.0079  0.1297
43757W        W52557  24.600   4.100  22.486  0.1010  0.6251  0.2632
43758W        W52558  24.147   1.526   0.270  0.1630 -0.0010  0.2040
43759W        W52559  16.208   4.002   4.421 -0.0175  0.3093 -0.2089
43760W        W52560   7.864   1.345  24.226 -0.1302  0.2343 -0.0022
43761W        W52561  18.998   4.641   9.217  0.0832 -0.1208  0.1693
43762W        W52562  16.499   3.829  28.707 -0.2570 -0.0776  0.3378
43763W        W52563  10.341   3.841  13.035 -0.0628 -0.0385 -0.0159
43764W        W52564  12.082   1.125   7.739 -0.0200  0.2240  0.0189
43765W        W52565   4.805   3.870  24.028 -0.0817 -0.1426 -0.1038
43766W        W52566  19.025   2.470   8.587  0.0021  0.2230  0.1074
43767W        W52567   3.808   2.463  27.569  0.0146 -0.1222  0.0612
43768W        W52568  18.398   1.239  11.539 -0.0371  0.1473 -0.1656
43769W        W52569   2.412   2.521   4.190 -0.0177  0.2863  0.1373
43770W        W52570   6.398   6.331  10.937 -0.0913 -0.0451 -0.3401
43771W        W52571   2.432   6.188   2.972  0.1094 -0.1541  0.1192
43772W        W52572  12.047   4.858  26.219  0.0781  0.0812 -0.0223
43773W        W52573   8.990   3.638  10.534 -0.4486 -0.1896  0.0674
43774W        W52574   4.092   5.098  21.311  0.1562 -0.1516  0.1450
43775W        W52575  14.004   2.439   0.445 -0.1640 -0.1481  0.3941
43776W        W52576  15.304   0.548  29.123 -0.0025  0.1230  0.2041
43777W        W52577  15.496   1.301  23.595 -0.3081 -0.0172  0.2538
43778W        W52578   0.149   0.358  10.273  0.0270 -0.0283  0.0159
43779W        W52579   4.345   0.757   3.324  0.0360  0.0395  0.3444
43780W        W52580  12.214   3.893  25.711  0.1900 -0.0893  0.0300
43781W        W52581  19.712   1.740  23.798  0.1501 -0.1369 -0.0193
43782W        W52582  24.905   1.994   4.973  0.0798 -0.0250  0.0424
43783W        W52583  23.448   3.448  33.745  0.2803  0.1534  0.0790
43784W        W52584  11.192   2.967  33.640  0.0913  0.0734 -0.0972
43785W        W52585   4.957   2.769  26.058 -0.1547  0.0526 -0.0045
43786W        W52586  16.613   4.162   6.555  0.1495 -0.0745 -0.3060
43787W        W52587  16.137   4.175  26.130 -0.0666 -0.1178 -0.0432
43788W        W52588  10.172   5.954   4.446  0.0254  0.2328  0.2534
43789W        W52589  25.479   3.971  27.712 -0.3442  0.1893  0.1139
43790W        W52590  19.458   3.269  24.258  0.2342  0.0143 -0.1252
43791W        W52591   9.512   4.824  23.050  0.1380  0.0529  0.3233
43792W        W52592   9.036   6.357   3.919  0.3093 -0.3222  0.1076
43793W        W52593  26.266   1.617  15.120 -0.1465  0.0506 -0.0141
43794W        W52594   7.821   1.458  12.117 -0.1775  0.0892 -0.0862
43795W        W52595   0.733   5.650  10.354  0.1462  0.2396 -0.1619
43796W        W52596  12.843   1.704  24.575  0.0228  0.3548 -0.2364
43797W        W52597  19.190   4.561   3.894  0.1097  0.4692  0.2717
43798W        W52598  10.297   4.733   2.476 -0.0988 -0.2077 -0.2809
43799W        W52599   1.894   3.058   0.269  0.3394 -0.0351  0.0968
43800W        W52600  17.637   0.685   6.271 -0.0488 -0.0229  0.2979
43801W        W52601  22.334   1.480  10.757  0.1872 -0.0555  0.0709
43802W        W52602  11.210   6.083  25.673  0.0801 -0.2030 -0.2168
43803W        W52603  22.861   1.555   4.948 -0.2990 -0.0965  0.1006
43804W        W52604   8.966   0.418  14.917  0.3868  0.0292 -0.1146
43805W        W52605  14.129   4.810  22.315 -0.1726 -0.0723 -0.1344
43806W        W52606  18.192   4.959  10.479 -0.2131 -0.1807 -0.2581
43807W        W52607   8.833   2.506   4.542  0.0152 -0.1162 -0.1315
43808W        W52608   9.021   2.048  26.342 -0.0346  0.1481  0.1666
43809W        W52609   2.545   0.197   1.085 -0.0654 -0.1035 -0.0232
43810W        W52610  18.555   6.544  12.708  0.0692 -0.0073 -0.3825
43811W        W52611  15.069   2.318   8.294  0.1024 -0.0565 -0.0601
43812W        W52612  12.401   4.892  29.625 -0.0568 -0.1736 -0.2580
43813W        W52613  18.864   2.300   5.795  0.0329 -0.0995  0.0913
43814W        W52614   3.160   5.062  31.134 -0.0745  0.0250  0.1859
43815W        W52615  25.222   3.447  33.946  0.2017  0.0364  0.0145
43816W        W52616   4.416   1.294   4.322 -0.1526 -0.2601  0.2010
43817W        W52617   2.670   3.559  12.898 -0.5332  0.0646 -0.2433
43818W        W52618  21.715   1.154  34.944  0.1785 -0.1321  0.0834
43819W        W52619  21.216   1.277  30.244 -0.0210  0.1293  0.0931
43820W        W52620  22.902   3.849   8.899  0.2387 -0.0653  0.0555
43821W        W52621   3.086   0.623  33.540 -0.3582  0.0168  0.0729
43822W        W52622  18.643   4.515   2.549 -0.0318 -0.1175 -0.0424
43823W        W52623  16.453   3.586  35.799  0.0002 -0.2727 -0.1738
43824W        W52624   6.177   2.385  11.350  0.0505 -0.0669  0.0902
43825W        W52625  16.006   0.634  24.383  0.1045  0.0286  0.1314
43826W        W52626   9.074   2.389  14.817 -0.2974  0.0611 -0.1927
43827W        W52627   5.520   2.066  12.499 -0.0135 -0.1426  0.5380
43828W        W52628  11.417   5.542   7.763 -0.2335 -0.0903  0.1081
43829W        W52629   0.432   1.277  30.909  0.1164  0.1065  0.0725
43830W        W52630   3.926   4.827   8.695  0.0660  0.1264  0.1271
43831W        W52631  18.561   6.439  11.802  0.2946  0.0192  0.0370
43832W        W52632  21.246   0.423  22.410 -0.1211 -0.2154  0.1063
43833W        W52633  25.715   1.486   2.233  0.0729 -0.1349 -0.1087
43834W        W52634   0.321   0.824  29.351  0.0642  0.2970  0.0599
43835W        W52635  13.730   5.546   7.158 -0.2890 -0.0128  0.3190
43836W        W52636  19.779   3.710  34.643 -0.0714  0.0232  0.0467
43837W        W52637  16.401   2.102   5.836  0.2299  0.2977  0.1676
43838W        W52638  24.463   1.270  26.680  0.0028 -0.3369 -0.1506
43839W        W52639   8.740   5.687  15.558 -0.0639  0.1952 -0.1908
43840W        W52640  18.252   3.829   1.390 -0.0503 -0.2179  0.3699
43841W        W52641  24.266   1.038   5.222  0.1240  0.0942  0.2196
43842W        W52642   2.961   4.113  30.757  0.3884  0.0232 -0.1513
43843W        W52643   4.018   3.151  23.082 -0.2058 -0.0298 -0.3634
43844W        W52644  22.991   2.353  21.423  0.2671  0.0171  0.0548
43845W        W52645  17.887   0.922  25.648 -0.1598  0.3204  0.1172
43846W        W52646  17.484   2.793  15.095 -0.1887  0.0114  0.1973
43847W        W52647   7.168   3.933   7.800 -0.0459  0.1078 -0.0621
43848W        W52648   9.361   4.569  29.072 -0.0795 -0.2252  0.1154
43849W        W52649  18.898   2.043  33.483 -0.1106 -0.0661  0.0698
43850W        W52650   0.298   5.514  35.712  0.4359 -0.0933 -0.0108
43851W        W52651   3.874   5.227   1.931  0.0752  0.2867  0.0561
43852W        W52652  24.122   4.343  24.137 -0.1697  0.0505  0.0091
43853W        W52653  20.520   5.151  23.798  0.1219 -0.0832 -0.1647
43854W        W52654   3.477   6.235  10.780 -0.0789  0.0281 -0.1347
43855W        W52655   1.785   4.736  29.621  0.0798  0.0734  0.2244
43856W        W52656   2.226   3.760  24.344  0.0184 -0.1743 -0.1789
43857W        W52657  21.080   2.478   4.099  0.3011  0.2409  0.0670
43858W        W52658  11.339   0.863  34.228  0.3442 -0.3942  0.0114
43859W        W52659  11.475   3.627  10.421  0.1136  0.1424  0.1940
43860W        W52660  18.669   4.865  13.160  0.3250  0.1003 -0.1261
43861W        W52661   4.246   5.021   1.023 -0.3687  0.0603  0.0665
43862W        W52662   5.664   6.425  13.247  0.3033 -0.2081  0.0524
43863W        W52663  19.082   3.557  11.488 -0.1018 -0.0701 -0.0529
43864W        W52664   1.116   4.012   3.522  0.0367  0.3182  0.3190
43865W        W52665   9.844   0.535   1.953  0.0776  0.0662  0.0975
43866W        W52666   2.725   3.957  10.250 -0.3151 -0.2809 -0.1447
43867W        W52667  11.742   1.644   0.474 -0.1216 -0.0072 -0.1838
43868W        W52668  21.459   6.321  21.848  0.0435 -0.1154 -0.2646
43869W        W52669  10.969   6.032  12.427  0.0896  0.1852 -0.1127
43870W        W52670   9.575   1.071  29.875 -0.0457  0.1336  0.1777
43871W        W52671  17.485   3.389  34.938  0.0806 -0.2185  0.0939
43872W        W52672  11.922   4.594   4.082  0.0705  0.1213 -0.0736
43873W        W52673  14.542   1.602   6.115 -0.0097  0.0078 -0.0047
43874W        W52674  24.418   4.050  11.107  0.0891 -0.1011 -0.2048
43875W        W52675   8.263   5.602  35.032  0.2123 -0.0346 -0.0431
43876W        W52676  11.884   5.646   7.531  0.2656  0.3023  0.1056
43877W        W52677  21.231   0.035  33.769 -0.0257 -0.1013  0.3185
43878W        W52678   3.917   1.080  34.102 -0.1966 -0.0469 -0.2190
43879W        W52679  16.825   3.506  12.427 -0.1971  0.1868  0.0018
43880W        W52680  20.946   5.051  31.629  0.2247 -0.2946 -0.1126
43881W        W52681  14.939   6.267  24.127 -0.0852  0.1214 -0.1902
43882W        W52682  22.724   2.511   5.459  0.0057 -0.0024 -0.2763
43883W        W52683  13.474   3.329  27.333  0.0247 -0.1346 -0.0694
43884W        W52684  23.252   3.773  33.348  0.1544  0.2621 -0.2389
43885W        W52685  21.316   4.459  25.258  0.1078 -0.0889 -0.1135
43886W        W52686  26.251   5.249  12.288  0.0950  0.1274  0.1307
43887W        W52687   7.896   4.860  27.635  0.1395 -0.1720 -0.0503
43888W        W52688  22.106   1.026  25.595 -0.0389  0.0621 -0.3078
43889W        W52689  23.074   1.473   8.066  0.3633 -0.1558  0.3643
43890W        W52690  16.146   6.152  21.369 -0.1497  0.0431  0.0302
43891W        W52691  10.682   4.889   8.064  0.1430 -0.0008 -0.1175
43892W        W52692  11.738   3.915  30.163  0.2178 -0.2065 -0.2850
43893W        W52693  25.580   2.003  30.888  0.3526  0.3152 -0.2277
43894W        W52694   1.225   4.797  22.846 -0.0708  0.1100  0.1662
43895W        W52695  20.099   4.231  26.069 -0.3450 -0.0142 -0.2803
43896W        W52696   3.113   1.551   5.803  0.0526 -0.0402 -0.0844
43897W        W52697   0.581   6.328  26.413 -0.4045 -0.0051  0.0498
43898W        W52698  11.470   2.803  13.877 -0.2069  0.0343  0.1646
43899W        W52699  24.457   5.541   2.743  0.0357 -0.0299 -0.2637
43900W        W52700  18.287   5.551   5.353 -0.2990 -0.1074 -0.0989
43901W        W52701   0.642   3.016  32.711  0.2288  0.0016 -0.0753
43902W        W52702  11.023   4.985  11.511  0.0776 -0.1045 -0.0195
43903W        W52703  20.720   4.366   0.071  0.0186 -0.1360  0.1818
43904W        W52704  23.343   2.054   4.005 -0.0966  0.2101  0.1014
43905W        W52705  23.283   0.011  14.298 -0.1852  0.2760 -0.1247
43906W        W52706  22.561   3.597   3.816  0.1307 -0.3446  0.2889
43907W        W52707  17.244   1.816  29.297  0.1231  0.1673 -0.0569
43908W        W52708  14.245   0.384  21.536 -0.0285  0.0678  0.0868
43909W        W52709   4.006   6.444  21.033  0.0674  0.2748 -0.5280
43910W        W52710  20.690   2.913   5.660  0.1415  0.2186  0.2005
43911W        W52711  11.942   3.275  25.556 -0.0817 -0.0168  0.1525
43912W        W52712   1.646   5.980  23.912 -0.0010  0.1720  0.0155
43913W        W52713  13.111   3.177   0.104 -0.1594  0.4761 -0.0822
43914W        W52714  21.834   5.421  29.150  0.0528 -0.0588 -0.0430
43915W        W52715  16.881   2.740   1.454 -0.3162  0.3233 -0.1649
43916W        W52716   8.310   3.965   8.445  0.0048 -0.0212 -0.2125
43917W        W52717  11.858   4.893  13.350 -0.0498  0.0294  0.1980
43918W        W52718  23.501   5.523  26.941 -0.0766 -0.2578  0.0068
43919W        W52719  18.477   1.470   1.226 -0.1236 -0.2820 -0.3581
43920W        W52720   0.069   0.177  14.684 -0.0312  0.1052 -0.0518
43921W        W52721  16.682   1.195   5.981  0.3014  0.2415 -0.0388
43922W        W52722  14.139   3.404  10.481 -0.0047 -0.0399 -0.1160
43923W        W52723  19.092   1.136  14.376  0.1804  0.0479 -0.1377
43924W        W52724  14.443   5.187  27.287  0.3749  0.3636  0.1384
43925W        W52725   3.480   0.913  28.490 -0.0423 -0.0343  0.2622
43926W        W52726  23.473   5.871  27.586  0.2080  0.0255 -0.0649
43927W        W52727   7.159   3.115  29.617  0.0796 -0.1401  0.1379
43928W        W52728   2.123   2.755  21.048 -0.3120 -0.0811 -0.0576
43929W        W52729  16.401   1.738  23.625 -0.1354  0.0632  0.1273
43930W        W52730  19.178   2.174  26.570  0.1720 -0.0694  0.0852
43931W        W52731  19.368   2.437  29.338 -0.4721  0.2576  0.2540
43932W        W52732   6.162   3.678  26.397 -0.1522  0.1364 -0.2065
43933W        W52733   7.055   4.970   4.653  0.0469  0.0322  0.1612
43934W        W52734  14.395   0.280  31.085 -0.0429 -0.0639 -0.2473
43935W        W52735   9.307   1.667  21.385 -0.4139  0.0322 -0.2619
43936W        W52736  24.898   4.372   2.967 -0.1729  0.0238 -0.1902
43937W        W52737  15.024   0.945  30.525  0.0285  0.2013 -0.0841
43938W        W52738   0.632   0.199  28.426 -0.0097  0.0033  0.0800
43939W        W52739  13.747   2.576  23.579 -0.0091 -0.0502 -0.0319
43940W        W52740  10.211   3.383  25.337 -0.2362  0.0492 -0.1308
43941W        W52741  15.316   2.842  13.474  0.0383 -0.2779 -0.1027
43942W        W52742  12.694   1.436  15.044  0.0082 -0.1020 -0.1717
43943W        W52743  10.615   0.044   4.934 -0.1334  0.2963 -0.2622
43944W        W52744  18.498   5.678   4.449 -0.1923 -0.0661 -0.1475
43945W        W52745   9.825   3.800  27.445 -0.1724 -0.0831 -0.0645
43946W        W52746  16.542   4.945  33.979 -0.2525  0.3707 -0.0189
43947W        W52747  15.709   4.541  13.078 -0.2290 -0.0157 -0.1313
43948W        W52748  19.216   2.290  31.363  0.0291 -0.0960 -0.0663
43949W        W52749  19.066   0.698  28.338  0.1880 -0.1838  0.2871
43950W        W52750  24.285   0.581  34.812  0.0968 -0.3228 -0.3820
43951W        W52751   8.913   2.882  10.650 -0.4084  0.1799  0.2802
43952W        W52752  21.093   3.919  21.008  0.1221 -0.1651  0.1311
43953W        W52753  15.321   1.598   4.599 -0.0566  0.2611 -0.4437
43954W        W52754  19.593   3.859  30.520  0.0331 -0.0613 -0.1099
43955W        W52755   8.200   4.461  13.182 -0.0542 -0.1566  0.2475
43956W        W52756   5.477   6.053  22.087  0.1278  0.0113 -0.0072
43957W        W52757  23.531   4.163   5.646  0.0355  0.0743  0.4453
43958W        W52758   8.776   1.445  32.212  0.1473 -0.3221 -0.0088
43959W        W52759  15.610   2.077   2.281  0.1061 -0.3556  0.3405
43960W        W52760  25.797   3.103  32.101  0.0683  0.1990  0.2008
43961W        W52761  23.440   2.372  35.503 -0.2005  0.1876  0.0379
43962W        W52762  19.131   5.771   4.381  0.0599  0.0600 -0.0943
43963W        W52763  23.041   2.628  30.638  0.0332 -0.2278 -0.0655
43964W        W52764  11.018   1.162   4.790 -0.0133  0.0105  0.1639
43965W        W52765   8.740   1.559   2.571 -0.0235 -0.1351  0.2680
43966W        W52766  23.581   1.510  22.406 -0.2493  0.0099  0.1486
43967W        W52767  24.119   2.375  22.509  0.1371  0.2759  0.0737
43968W        W52768  24.575   5.202   7.908  0.1014  0.1603 -0.2775
43969W        W52769  19.855   4.746   7.408  0.0055 -0.0642 -0.1551
43970W        W52770  17.287   4.245   0.019  0.2712 -0.2007 -0.0664
43971W        W52771   4.862   1.948   1.731  0.0271 -0.0760  0.0049
43972W        W52772   8.908   1.101  27.264  0.0197 -0.1720 -0.0479
43973W        W52773  16.820   2.171   1.042 -0.0804  0.2507 -0.0062
43974W        W52774  20.215   3.051   5.556 -0.1521 -0.2754  0.0256
43975W        W52775  18.989   6.318   3.613  0.3148  0.0861  0.2020
43976W        W52776  13.105   3.666  30.663 -0.1081  0.1318 -0.2666
43977W        W52777  16.018   0.708  30.236 -0.0398  0.1568  0.1297
43978W        W52778  20.274   4.415  14.925 -0.1104  0.0896  0.1412
43979W        W52779   3.987   4.030   1.924  0.1689  0.1688 -0.2090
43980W        W52780  16.617   0.688   9.821 -0.2723  0.0272 -0.2385
43981W        W52781  17.743   4.383  23.089 -0.4397  0.1645  0.1228
43982W        W52782  11.462   2.682   2.475 -0.0434  0.1072  0.0460
43983W        W52783  16.919   6.329   1.456 -0.1386 -0.1847 -0.0475
43984W        W52784   7.467   4.396  12.837  0.0349  0.1062 -0.2274
43985W        W52785   7.065   4.931  14.928 -0.0493  0.2606  0.1749
43986W        W52786  26.275   0.750   9.435  0.1135  0.0662  0.0440
43987W        W52787  21.145   0.734  31.111  0.0348  0.2099 -0.0109
43988W        W52788   0.005   2.535  26.321 -0.1672 -0.0568  0.0029
43989W        W52789   9.760   5.195   4.768 -0.0845  0.0507 -0.3246
43990W        W52790  18.150   5.256  23.693  0.1859 -0.2657  0.0301
43991W        W52791  17.899   2.754  24.355  0.0175  0.2100 -0.1319
43992W        W52792  17.804   4.815   2.823  0.2279 -0.0248  0.0581
43993W        W52793  14.388   0.452   6.626 -0.0043 -0.3764  0.0113
43994W        W52794   5.902   0.611  31.476  0.0911 -0.0897 -0.0987
43995W        W52795   4.669   2.627   4.353  0.2094 -0.2658  0.1969
43996W        W52796   8.829   2.212  35.371 -0.1075 -0.3254 -0.0835
43997W        W52797   8.901   0.100  35.665 -0.2155 -0.0022 -0.1223
43998W        W52798  25.785   1.696  13.675  0.2117  0.2391  0.3596
43999W        W52799   4.919   0.570  26.096  0.2237 -0.2750 -0.1566
44000W        W52800   2.275   5.016   4.345 -0.2572 -0.0394 -0.1716
44001W        W52801  20.818   1.980  31.917 -0.0375 -0.0435 -0.1531
44002W        W52802  24.803   4.172   9.644  0.0080  0.1890 -0.2461
44003W        W52803   0.431   2.063   8.205  0.1426 -0.3210  0.2098
44004W        W52804  19.627   4.688  12.841 -0.0582  0.2412  0.0636
44005W        W52805   6.020   3.112  25.132  0.2668  0.1083  0.0091
44006W        W52806   4.019   4.935  24.465  0.1668 -0.0072  0.1094
44007W        W52807  24.488   1.232  22.133 -0.1387 -0.2314  0.1786
44008W        W52808  20.330   1.268   4.805  0.1467  0.1044  0.0111
44009W        W52809   9.723   4.146  11.882  0.1638  0.3531  0.0154
44010W        W52810  17.101   4.583  29.120 -0.1437 -0.0898 -0.2741
44011W        W52811  19.384   6.541  11.198  0.2055 -0.2754 -0.0554
44012W        W52812   0.213   5.265  23.367 -0.3169 -0.1152 -0.0501
44013W        W52813  17.879   5.025   5.377 -0.0704  0.0323 -0.2653
44014W        W52814  17.132   2.226   8.302  0.0783 -0.2559 -0.2173
44015W        W52815   8.241   0.054   8.373  0.1958  0.1318 -0.3113
44016W        W52816  19.468   2.708  32.348 -0.1681 -0.3100  0.0926
44017W        W52817  14.803   1.996   6.207  0.1573 -0.0448 -0.0126
44018W        W52818   5.693   0.516  31.010  0.3804 -0.0620 -0.1690
44019W        W52819  23.375   6.454  31.483 -0.0191 -0.0398  0.0660
44020W        W52820   5.344   2.393  23.990 -0.4663  0.1226  0.0235
44021W        W52821  15.329   1.110  25.708 -0.0844  0.2092 -0.2273
44022W        W52822  15.659   1.344  24.121  0.0281 -0.0171 -0.0692
44023W        W52823   5.624   4.560  33.333 -0.0299 -0.1540  0.0429
44024W        W52824  23.951   5.060  28.000 -0.0608  0.2169 -0.0123
44025W        W52825  21.335   4.362   2.929  0.1807 -0.4056  0.0800
44026W        W52826  23.517   4.165  32.031 -0.0737  0.2774  0.0042
44027W        W52827  17.537   6.309   0.072  0.0077  0.0206  0.2242
44028W        W52828   2.834   5.348  22.892  0.0745 -0.2419 -0.2413
44029W        W52829  15.661   1.209  14.409  0.0188  0.0303 -0.1713
44030W        W52830  16.480   1.635   4.021 -0.1977 -0.2841  0.0450
44031W        W52831  10.607   3.441   8.795 -0.0885 -0.3624 -0.0106
44032W        W52832  11.587   2.575   6.820  0.2964 -0.4410 -0.2975
44033W        W52833  15.135   2.451  31.384 -0.1068  0.0463  0.1919
44034W        W52834  21.938   5.598  13.335 -0.0375  0.3102 -0.1463
44035W        W52835  24.116   1.278  24.831  0.1848  0.0702 -0.0651
44036W        W52836   7.581   3.980  14.104  0.0779 -0.1367  0.2016
44037W        W52837  15.821   3.923  10.015 -0.0872 -0.2186 -0.1834
44038W        W52838   1.616   0.564  23.432 -0.1505 -0.1882 -0.2945
44039W        W52839   8.003   2.100  21.678  0.2991  0.0196 -0.2608
44040W        W52840  11.141   1.364  32.104 -0.1624 -0.0331 -0.0462
44041W        W52841  21.564   0.056  10.772  0.2030 -0.0114  0.0915
44042W        W52842   8.348   6.380  31.959 -0.0789  0.0009  0.1737
44043W        W52843   2.808   2.147  12.557  0.1240  0.0753 -0.1835
44044W        W52844  10.477   6.253  30.673 -0.0451  0.2635 -0.2892
44045W        W52845   4.917   5.785  30.089  0.0385  0.2248  0.3105
44046W        W52846  19.470   5.976   2.216  0.0045 -0.0912 -0.0745
44047W        W52847   1.436   6.016  29.467 -0.0084  0.0563 -0.0864
44048W        W52848  24.044   3.763  24.099 -0.0356  0.1922 -0.0903
44049W        W52849   9.368   0.439  35.111 -0.0557 -0.0852 -0.0037
44050W        W52850   5.530   2.052   5.432 -0.2202  0.0036  0.0291
44051W        W52851  19.644   1.260  22.158 -0.2142  0.1242 -0.0910
44052W        W52852   5.456   0.914  24.299 -0.2035 -0.0436  0.1136
44053W        W52853  25.155   1.459  13.470  0.0661 -0.0936  0.2771
44054W        W52854   9.799   2.496   0.195 -0.2189 -0.3253 -0.2313
44055W        W52855   5.074   4.345  30.303 -0.0226  0.1259  0.3299
44056W        W52856  16.697   4.627  25.905 -0.1902 -0.1220  0.1331
44057W        W52857   9.842   0.362   6.787 -0.2530  0.3201  0.2670
44058W        W52858   7.747   4.046  25.702  0.2969 -0.2633 -0.4327
44059W        W52859  24.693   0.047   5.565  0.2704 -0.2016 -0.1761
44060W        W52860   6.866   5.187  14.525 -0.0937  0.3018 -0.0325
44061W        W52861  15.595   0.683  23.612 -0.3184  0.1035  0.3678
44062W        W52862   0.568   2.461  35.545 -0.0285  0.0261 -0.0156
44063W        W52863   6.554   5.750  30.031 -0.0096  0.0451  0.0750
44064W        W52864  15.483   4.896  29.597 -0.0001  0.1832 -0.0055
44065W        W52865  23.485   4.980   9.764 -0.0447 -0.1914 -0.1584
44066W        W52866  18.213   6.085  22.433 -0.1616  0.0923 -0.2417
44067W        W52867  19.009   5.006   5.135  0.2626 -0.0634  0.1869
44068W        W52868  16.716   1.922  31.525 -0.1488 -0.0862  0.2513
44069W        W52869   5.535   4.236  11.342 -0.0005  0.1190 -0.3039
44070W        W52870  15.004   6.379   6.722 -0.2733 -0.2243 -0.1699
44071W        W52871  18.428   4.890  28.571  0.0104 -0.4512 -0.1579
44072W        W52872  17.735   1.045  23.873  0.1507  0.1292  0.1419
44073W        W52873  11.072   5.752  27.904  0.3194  0.2125 -0.0049
44074W        W52874  10.923   2.822  21.805  0.5782 -0.0959 -0.0603
44075W        W52875   6.638   1.896  31.076 -0.2641  0.1449  0.4193
44076W        W52876   7.512   4.166  34.044  0.2428 -0.1331  0.0894
44077W        W52877  17.438   5.565   5.873  0.1297 -0.2137 -0.1751
44078W        W52878  24.225   2.464  24.476 -0.2135  0.3193  0.2905
44079W        W52879  20.275   6.142  11.447 -0.3694 -0.0731 -0.1360
44080W        W52880  14.112   3.896   6.808 -0.1400  0.3594 -0.0160
44081W        W52881   2.761   1.258  10.529 -0.0964 -0.0609 -0.1108
44082W        W52882  16.153   0.465  14.592  0.0751  0.2950  0.4093
44083W        W52883  11.277   0.572   0.835  0.0101  0.2619 -0.1535
44084W        W52884  25.345   6.442   7.170 -0.0241  0.0337  0.0865
44085W        W52885   0.405   1.322   4.719  0.0244  0.0062  0.1165
44086W        W52886  15.464   5.322   0.290 -0.0953 -0.0229  0.4820
44087W        W52887  16.444   4.453   2.965 -0.1097  0.2578  0.1037
44088W        W52888  19.076   4.532  31.186 -0.1871 -0.0946 -0.2642
44089W        W52889  16.130   5.705  34.746  0.1596  0.2444  0.0819
44090W        W52890   5.530   1.426  21.059  0.1311 -0.1154  0.0568
44091W        W52891   0.812   6.075  12.893  0.0306 -0.1474  0.1725
44092W        W52892   5.499   3.636  25.474 -0.0757  0.1031  0.2090
44093W        W52893   9.902   4.926   3.553 -0.1963 -0.3617 -0.0779
44094W        W52894  25.467   1.544  30.662 -0.3464 -0.2177  0.1482
44095W        W52895  25.711   5.270  29.416 -0.1117 -0.0320 -0.0026
44096W        W52896  15.048   1.695  24.884  0.3048  0.2013  0.1145
44097W        W52897  23.271   2.786  13.354  0.1040  0.0426  0.2819
44098W        W52898   6.976   0.741  27.688 -0.1428 -0.4807  0.1801
44099W        W52899   0.270   0.901  32.977 -0.2717  0.0698  0.3277
44100W        W52900  19.862   4.176  22.399 -0.2095  0.1929 -0.1033
44101W        W52901  13.484   1.609  13.654 -0.2052 -0.0253  0.0654
44102W        W52902   5.609   5.918   7.352  0.1709 -0.1087 -0.0162
44103W        W52903  18.205   3.092   0.633 -0.0532 -0.2622  0.0782
44104W        W52904  21.707   0.534  15.315 -0.0190  0.0655 -0.1864
44105W        W52905  17.544   3.747  21.910 -0.1636  0.2054 -0.0957
44106W        W52906  23.774   0.937  12.923  0.2276 -0.4106 -0.2566
44107W        W52907  14.771   0.077  32.919  0.3525 -0.3567  0.0121
44108W        W52908  17.960   2.829  11.030 -0.0814  0.2686 -0.0227
44109W        W52909  14.249   6.441   5.096 -0.0199 -0.2060 -0.0352
44110W        W52910  24.237   4.328  13.552 -0.0450  0.2150  0.2162
44111W        W52911   8.711   4.173   1.197 -0.0393  0.1132  0.1593
44112W        W52912  24.993   4.187  27.516 -0.0421  0.1662  0.0960
44113W        W52913  10.698   0.015  31.991 -0.1060  0.1304  0.1302
44114W        W52914   6.041   3.729  29.868 -0.0555  0.1355 -0.2285
44115W        W52915  11.686   6.446  26.884  0.0026 -0.2331  0.1282
44116W        W52916  25.066   2.420  22.127 -0.0185  0.0728 -0.2061
44117W        W52917  10.436   5.077  26.078  0.1932  0.0653 -0.2093
44118W        W52918   4.790   6.341  34.357 -0.0080  0.1745 -0.1588
44119W        W52919  10.210   0.466   5.726 -0.0338  0.1377 -0.1568
44120W        W52920  10.362   4.618  26.546  0.0535  0.0393 -0.0217
44121W        W52921  14.593   4.732   7.265  0.0589  0.1141 -0.0403
44122W        W52922   2.987   2.505  10.424  0.4108 -0.0604 -0.1305
44123W        W52923   0.997   4.749   9.266 -0.2808  0.0218  0.0050
44124W        W52924  19.984   2.449  12.613  0.0093 -0.0559  0.0883
44125W        W52925   1.002   0.176  32.765  0.1001  0.0074 -0.0206
44126W        W52926  17.056   4.788  22.436  0.1677  0.0649  0.1009
44127W        W52927  11.902   4.854  23.000  0.0818  0.1366 -0.1175
44128W        W52928   7.981   0.137  25.898 -0.2569 -0.0509 -0.0858
44129W        W52929   2.776   5.564  20.371  0.2007 -0.1908  0.1338
44130W        W52930  10.655   6.092  21.877 -0.2740  0.2764 -0.3310
44131W        W52931   6.021   2.302   4.307  0.0469 -0.0387 -0.2958
44132W        W52932   1.642   2.529   8.257  0.2212  0.1658 -0.0676
44133W        W52933   8.541   5.277  11.677 -0.1369 -0.2556 -0.2311
44134W        W52934  16.067   5.750  11.951 -0.2646  0.2570 -0.0106
44135W        W52935  13.117   5.555  11.156 -0.0930 -0.1430  0.0309
44136W        W52936   8.136   5.080  13.116  0.2531  0.1729 -0.3410
44137W        W52937  14.234   3.849   5.224  0.0970 -0.0666 -0.0732
44138W        W52938  26.315   4.073   3.908  0.3934 -0.0590  0.1802
44139W        W52939  22.484   4.481  27.914 -0.0069 -0.1698  0.1611
44140W        W52940  19.208   1.082  25.752  0.1702 -0.1473 -0.0828
44141W        W52941  23.398   3.969  13.340  0.0967 -0.2673  0.3301
44142W        W52942  24.886   2.223  26.832 -0.1366  0.0389  0.0428
44143W        W52943   8.031   5.904  14.206  0.2512 -0.1637  0.5405
44144W        W52944  25.050   1.376  30.332 -0.0646  0.0272 -0.0815
44145W        W52945   5.006   6.578  26.439 -0.1380  0.2950  0.0684
44146W        W52946  24.041   3.133   6.728 -0.1002 -0.1850  0.0266
44147W        W52947  15.652   2.373  31.325 -0.2852  0.1061  0.4197
44148W        W52948   9.239   0.304  11.518 -0.2308 -0.0068  0.0018
44149W        W52949  19.519   5.180  12.672  0.2216  0.0765 -0.1291
44150W        W52950   9.016   0.940  13.219  0.0467  0.0756 -0.2034
44151W        W52951  21.062   0.991  21.986  0.1162 -0.2161  0.2220
44152W        W52952  24.262   4.017  34.701  0.2083 -0.0259  0.0299
44153W        W52953   6.488   0.631  27.765  0.1507 -0.0059 -0.0171
44154W        W52954  22.685   5.567   8.966  0.2810 -0.0836  0.0509
44155W        W52955   1.292   2.018  23.923 -0.0303  0.0058  0.0585
44156W        W52956  16.717   5.031   5.694  0.0830 -0.0907 -0.1316
44157W        W52957  17.948   1.585  29.792 -0.0627  0.2250 -0.0572
44158W        W52958  22.774   1.377  21.591  0.0767 -0.0759  0.2439
44159W        W52959  18.214   0.770  29.389  0.1924  0.2709  0.0382
44160W        W52960   2.304   5.087   2.574 -0.1099 -0.0381 -0.0960
44161W        W52961  24.205   1.093  28.753 -0.0179  0.4398 -0.2763
44162W        W52962  23.893   1.536   2.941 -0.4303 -0.0529 -0.1652
44163W        W52963  20.937   4.716  27.855 -0.1567  0.0452  0.1961
44164W        W52964  19.250   1.613  26.468  0.1336  0.0514  0.2678
44165W        W52965   9.355   2.695  28.835 -0.0667 -0.0716  0.1814
44166W        W52966  18.002   2.646   7.558 -0.2851 -0.0782  0.0785
44167W        W52967  21.505   0.569  28.211  0.1929 -0.0109 -0.5409
44168W        W52968  12.770   3.249  29.157 -0.1702  0.0196  0.3511
44169W        W52969  15.907   0.312  24.785 -0.1365 -0.0979 -0.4427
44170W        W52970  20.376   5.934   9.450 -0.2066 -0.2973 -0.1778
44171W        W52971  26.274   4.856   5.848 -0.1840  0.4918 -0.1678
44172W        W52972  11.588   0.677   7.241  0.0423  0.0977 -0.0354
44173W        W52973  21.421   2.829   0.505 -0.0443  0.0389  0.0981
44174W        W52974  18.030   5.992  11.426 -0.3353 -0.0427  0.2461
44175W        W52975  21.281   6.171  29.276 -0.0872  0.1291  0.0587
44176W        W52976   4.663   0.663  24.777  0.0235 -0.0541  0.2044
44177W        W52977  18.335   2.183   6.830  0.0265 -0.0408  0.2544
44178W        W52978  15.276   3.006   1.394 -0.2499 -0.0752  0.4034
44179W        W52979  15.572   0.430   4.205 -0.0336 -0.1278 -0.1758
44180W        W52980  16.791   2.366   7.254 -0.1644 -0.1768 -0.1064
44181W        W52981   5.220   1.906  10.823 -0.0411 -0.1218 -0.0415
44182W        W52982  13.270   4.725  32.686  0.0380 -0.0436 -0.0055
44183W        W52983   0.703   2.951  28.967 -0.1461 -0.2053  0.0813
44184W        W52984   1.232   3.316  32.618 -0.2388  0.0637  0.0622
44185W        W52985   0.748   0.797   3.183 -0.0462  0.1402 -0.0628
44186W        W52986  15.692   3.396   0.162 -0.0757 -0.0461  0.0061
44187W        W52987  10.946   4.840   7.680 -0.2769 -0.0243 -0.1617
44188W        W52988   5.587   1.283  23.500  0.1348 -0.0611 -0.1124
44189W        W52989   0.693   5.504  22.674 -0.1553 -0.0932 -0.1685
44190W        W52990   7.721   1.637  26.921  0.1106 -0.1135 -0.1475
44191W        W52991  12.849   5.384   4.582 -0.2849 -0.0395  0.3157
44192W        W52992  16.688   2.465  35.779 -0.0420  0.0393  0.2178
44193W        W52993  25.667   2.455  13.619  0.0257  0.2525  0.0582
44194W        W52994   0.238   3.647  30.145  0.0330 -0.2764 -0.1169
44195W        W52995  19.023   4.689   2.160  0.2345 -0.0433  0.0711
44196W        W52996   2.450   2.709  10.489 -0.0821  0.1039  0.1305
44197W        W52997  14.666   2.937  11.526  0.1202 -0.2680 -0.2054
44198W        W52998  20.139   1.218  25.647 -0.2311 -0.1121  0.1086
44199W        W52999  22.947   1.284  24.607 -0.0297  0.2263  0.0202
44200W        W53000  13.413   4.298   0.829 -0.0537  0.0127  0.1744
44201W        W53001   5.054   4.307   8.082  0.1931 -0.1180 -0.0112
44202W        W53002   7.314   1.533  23.449  0.1142 -0.1176  0.0294
44203W        W53003  16.661   5.546   0.913 -0.0488  0.1061 -0.3090
44204W        W53004  17.485   2.590  24.075  0.0103  0.1778  0.1895
44205W        W53005   6.987   4.240   9.556  0.2126 -0.0514 -0.0378
44206W        W53006  20.491   3.354  11.071 -0.1529  0.2198  0.0920
44207W        W53007  12.716   2.915  32.764 -0.0077 -0.1517 -0.0637
44208W        W53008  12.252   0.662   3.502 -0.1513 -0.2507  0.3292
44209W        W53009  22.906   6.181  23.460 -0.2372  0.0691 -0.0200
44210W        W53010  21.197   5.880  21.730  0.1011  0.2942  0.1117
44211W        W53011   9.787   5.415  20.498 -0.0126 -0.4122  0.1022
44212W        W53012  14.106   0.585   0.148 -0.1191 -0.1351 -0.4175
44213W        W53013   5.647   2.438  11.346 -0.0650  0.2775  0.0260
44214W        W53014   0.408   5.618  26.468 -0.0131 -0.1619 -0.1353
44215W        W53015  23.362   5.845  10.109 -0.1741 -0.1135  0.0431
44216W        W53016   0.315   3.260   4.374  0.3263 -0.3046  0.0088
44217W        W53017  15.152   4.956  21.435 -0.1714 -0.2392 -0.0532
44218W        W53018  13.269   1.167  29.336 -0.1400 -0.0921  0.0025
44219W        W53019   1.659   0.082  31.066 -0.1872 -0.1046 -0.0915
44220W        W53020  22.914   0.576  11.422 -0.0513  0.1958  0.0010
44221W        W53021  26.228   2.401  21.650 -0.1662 -0.0539 -0.0545
44222W        W53022  20.355   0.579   8.765 -0.0325 -0.1311  0.0101
44223W        W53023   8.244   3.471  32.372 -0.2101  0.0251  0.1644
44224W        W53024   2.284   0.971   5.755  0.0427 -0.4253 -0.0036
44225W        W53025  12.795   5.931  29.960 -0.0220 -0.5447  0.0657
44226W        W53026  14.037   5.387  10.826  0.3336  0.3908  0.3968
44227W        W53027   6.739   0.374  28.986 -0.1337  0.2401 -0.2017
44228W        W53028   5.576   0.104  21.531 -0.0908 -0.1314  0.1120
44229W        W53029  26.104   2.061  13.756  0.1428  0.0542  0.2697
44230W        W53030  23.391   6.395  34.021  0.2100 -0.0765 -0.5108
44231W        W53031   9.584   3.931  25.698 -0.0686 -0.2082  0.0974
44232W        W53032  16.663   0.068  28.088 -0.0482 -0.2157  0.0764
44233W        W53033  24.256   5.433  24.755  0.0722  0.2715 -0.0158
44234W        W53034  25.071   2.377  12.616 -0.1384 -0.0376 -0.0971
44235W        W53035   8.832   3.066  31.735 -0.2869  0.0256 -0.1634
44236W        W53036  13.056   5.976   1.992 -0.2267  0.2158  0.0262
44237W        W53037   8.622   3.617   6.607  0.0198  0.1349 -0.1778
44238W        W53038  26.263   2.527  34.399  0.1467 -0.0889 -0.1809
44239W        W53039  13.100   3.875  21.711  0.0914 -0.1460 -0.4150
44240W        W53040  15.215   5.619  13.792 -0.2710  0.1525 -0.0631
44241W        W53041   1.515   4.321  13.909  0.0131 -0.2451 -0.2279
44242W        W53042  13.190   4.416  23.000  0.2708 -0.3372 -0.1472
44243W        W53043  22.317   2.109  29.134 -0.2094  0.1461  0.0104
44244W        W53044  15.464   4.357  26.966  0.1565  0.0153  0.0206
44245W        W53045   7.223   1.829   0.345 -0.0477 -0.5274 -0.0879
44246W        W53046  14.604   6.005   0.847 -0.0393  0.0090 -0.3207
44247W        W53047  23.467   1.877  30.354  0.0505  0.0373  0.3431
44248W        W53048  11.544   0.458  35.154  0.1414 -0.2323  0.0770
44249W        W53049   9.257   1.085  24.338 -0.1438  0.0442  0.0054
44250W        W53050  24.933   3.842  35.955 -0.1907 -0.0006 -0.0410
44251W        W53051  10.262   5.567  30.834  0.3833  0.3430  0.3131
44252W        W53052   3.392   1.478  15.642 -0.1501 -0.0259  0.1116
44253W        W53053   0.570   1.411   7.854 -0.2579  0.1004  0.1365
44254W        W53054   7.519   1.477   0.324 -0.1005 -0.2006 -0.1874
44255W        W53055  19.553   5.903  32.668  0.3398  0.0711  0.1254
44256W        W53056   8.280   4.351  22.646  0.0224 -0.0241 -0.0048
44257W        W53057   0.480   4.242  27.552 -0.1893  0.1528 -0.0251
44258W        W53058  12.725   5.031  22.679 -0.1110 -0.2544 -0.0663
44259W        W53059  19.476   1.853   8.994  0.2944  0.2332  0.1004
44260W        W53060   4.551   1.698  29.736 -0.1367 -0.4595  0.0323
44261W        W53061  13.532   0.505  14.022  0.0598 -0.0214  0.0681
44262W        W53062   5.073   2.643   9.444  0.2073  0.3376  0.0670
44263W        W53063  15.222   3.539  14.914  0.4149  0.2114 -0.1046
44264W        W53064   3.898   2.792  35.307 -0.0354  0.1318 -0.1069
44265W        W53065   1.698   2.437  27.480 -0.1400 -0.1235  0.0366
44266W        W53066  16.728   3.735  27.990  0.3469 -0.1112 -0.5847
44267W        W53067  26.298   0.064  13.997  0.1673 -0.0185 -0.4866
44268W        W53068  24.719   1.876  13.450 -0.0087 -0.0650  0.1269
44269W        W53069   9.645   3.176  31.495 -0.1300  0.1870 -0.1785
44270W        W53070  26.350   3.153  32.064 -0.0050 -0.0572  0.1020
44271W        W53071  22.877   4.181  33.357 -0.2634 -0.0177  0.0687
44272W        W53072   2.455   5.152  30.622  0.2695  0.0543  0.1520
44273W        W53073  13.823   0.154  31.751 -0.1752 -0.3336  0.1601
44274W        W53074  13.580   4.185  22.740  0.0441  0.2020  0.0224
44275W        W53075  26.192   4.756  13.227 -0.0158 -0.2340  0.1152
44276W        W53076  19.994   4.828  13.890 -0.0146 -0.1791 -0.1494
44277W        W53077  14.438   6.142  16.167 -0.0641  0.0254  0.0904
44278W        W53078  17.892   1.606  14.565 -0.2572 -0.1312  0.1835
44279W        W53079   3.895   1.155  34.660  0.1680  0.3387 -0.0930
44280W        W53080  11.825   6.486   6.716 -0.0466 -0.2135  0.2801
44281W        W53081  18.751   0.557  32.199 -0.0834 -0.0526  0.0259
44282W        W53082   8.187   1.359   7.829  0.1363  0.0112 -0.0952
44283W        W53083  19.692   4.699   0.663 -0.0326  0.1845 -0.1102
44284W        W53084  12.236   1.884  24.857 -0.0199 -0.0320  0.0275
44285W        W53085   6.021   0.820  13.513 -0.2606 -0.1795  0.0678
44286W        W53086  22.516   3.953   8.547 -0.0190  0.1364 -0.2090
44287W        W53087  24.906   3.982  11.447 -0.1469 -0.0971  0.0112
44288W        W53088  10.641   3.265  21.965  0.2208  0.0504  0.1682
44289W        W53089   3.762   6.478   0.090 -0.0347  0.0184  0.0704
44290W        W53090  15.938   1.665  12.224 -0.1774 -0.1414  0.0491
44291W        W53091  17.068   6.178   6.979 -0.0899 -0.1736 -0.0124
44292W        W53092  11.860   3.349   8.165 -0.0123 -0.3584  0.1442
44293W        W53093  13.506   4.395   2.132  0.0777  0.0778 -0.0562
44294W        W53094   6.926   0.799  32.978  0.0932  0.0934  0.2834
44295W        W53095  12.005   4.252  28.545 -0.1111 -0.1029  0.1317
44296W        W53096   4.909   2.354   9.842 -0.1728 -0.0384  0.1787
44297W        W53097  13.005   6.151  22.365  0.0165  0.0486 -0.0924
44298W        W53098  19.944   1.146  27.454  0.2749  0.1106  0.1060
44299W        W53099  22.726   1.592  11.187 -0.1261  0.0614 -0.0183
44300W        W53100  18.542   6.295  28.728  0.1479  0.0502  0.2382
44301W        W53101  25.982   5.564  12.510 -0.0087  0.1089 -0.2417
44302W        W53102  14.684   1.985  35.491  0.0130 -0.0859  0.2017
44303W        W53103  17.534   6.435  21.901  0.0059  0.0119  0.1223
44304W        W53104  20.439   3.687  28.378 -0.1512 -0.1493 -0.1487
44305W        W53105  19.558   6.364  32.536  0.1608 -0.1140  0.1307
44306W        W53106   3.035   4.992  22.580  0.0066 -0.0911  0.0373
44307W        W53107  20.662   4.659  24.052 -0.0562 -0.2257  0.1385
44308W        W53108  17.241   1.607  35.905 -0.2497 -0.1238 -0.0802
44309W        W53109   5.530   2.519   5.200 -0.2520 -0.2118  0.2033
44310W        W53110   5.953   2.636  33.927 -0.0143 -0.2932 -0.0181
44311W        W53111  19.324   2.283   1.954  0.0543  0.1178 -0.0157
44312W        W53112   6.502   3.184  12.970 -0.1712  0.2455  0.1923
44313W        W53113   7.264   4.841  23.995 -0.0315  0.4022  0.0113
44314W        W53114  13.671   5.465  10.346  0.0043  0.0970  0.0199
44315W        W53115  11.112   2.885  15.932 -0.1198  0.0151 -0.0754
44316W        W53116  22.145   1.321  34.959  0.1184 -0.2057 -0.1984
44317W        W53117  23.117   2.248  11.548  0.2859 -0.2431  0.1383
44318W        W53118  15.798   2.618   8.250 -0.1598  0.2486  0.0963
44319W        W53119  16.949   3.753  10.405  0.1961  0.1935 -0.2972
44320W        W53120   2.872   2.913  11.375 -0.0905 -0.0928 -0.1670
44321W        W53121  16.513   2.760   8.897 -0.1385 -0.1747 -0.4203
44322W        W53122  21.501   3.654  11.155 -0.0999 -0.0844 -0.2331
44323W        W53123   2.928   4.286   9.024 -0.2864 -0.0200 -0.1728
44324W        W53124   0.763   2.706  27.064  0.0967  0.0430 -0.0104
44325W        W53125   0.170   2.594   8.828  0.0118  0.0399 -0.2654
44326W        W53126  22.381   3.543  29.638 -0.1298 -0.1087  0.1155
44327W        W53127  15.078   3.848  12.003 -0.1439 -0.1076 -0.1701
44328W        W53128  20.313   4.952  29.284  0.2403  0.5570 -0.1850
44329W        W53129   7.653   6.384   9.273  0.3534 -0.0927 -0.1902
44330W        W53130  19.499   0.892   5.071  0.1655 -0.0280 -0.2008
44331W        W53131  23.892   0.531  14.878  0.0022 -0.0886  0.2357
44332W        W53132   2.414   0.944  23.258 -0.1159  0.1069 -0.0852
44333W        W53133  18.439   1.400  29.480 -0.3155 -0.1067  0.1132
44334W        W53134   8.294   2.863  35.396 -0.1919  0.1498 -0.0539
44335W        W53135  24.445   3.886   5.756 -0.1997 -0.1597  0.1016
44336W        W53136  14.098   2.444   1.377 -0.1794  0.0479 -0.0342
44337W        W53137  24.549   5.152  22.981  0.3420 -0.3037  0.1609
44338W        W53138  13.908   0.309  13.672  0.1661  0.0708 -0.0665
44339W        W53139   3.419   1.814   8.629  0.3582  0.0450 -0.0588
44340W        W53140  22.689   4.131   1.295 -0.0155  0.0405  0.2082
44341W        W53141  21.886   4.437   8.087 -0.1993  0.0720 -0.3927
44342W        W53142  11.134   3.174  29.650  0.1247 -0.2965  0.0381
44343W        W53143  19.060   4.740  29.896 -0.0817  0.0046 -0.0465
44344W        W53144  26.301   3.350  13.052  0.1050  0.0024 -0.0169
44345W        W53145   7.801   1.195  32.932  0.0047 -0.2484 -0.0263
44346W        W53146  22.026   4.103  28.536  0.0205 -0.2060 -0.1312
44347W        W53147  24.922   1.563   1.443 -0.0671  0.0903  0.1531
44348W        W53148   8.629   2.544   2.744  0.0971 -0.1431 -0.2474
44349W        W53149  20.488   0.521  23.173 -0.0999  0.1695  0.1274
44350W        W53150  16.636   1.480  30.201  0.2076  0.0321  0.0060
44351W        W53151   9.454   5.648   9.462  0.3451  0.0423  0.2448
44352W        W53152  12.649   3.093  25.140 -0.1594  0.0820 -0.1165
44353W        W53153  10.034   5.267  35.695  0.2114 -0.1053 -0.0386
44354W        W53154   5.037   6.452   5.417  0.2357 -0.1612  0.0313
44355W        W53155   9.616   3.016  30.621  0.0937 -0.2569 -0.1519
44356W        W53156  22.629   4.269  21.519  0.0254 -0.1659 -0.1130
44357W        W53157  13.345   3.590   7.459 -0.2076 -0.0216 -0.0987
44358W        W53158  24.448   3.456  14.237 -0.0227  0.2894 -0.3199
44359W        W53159  14.504   1.895  30.393 -0.0140  0.2614  0.1269
44360W        W53160   2.170   4.833   9.535  0.0765  0.0502  0.1869
44361W        W53161  20.731   2.686   4.653  0.0323  0.3011 -0.3657
44362W        W53162   2.537   0.583  29.046  0.1547 -0.1493  0.3058
44363W        W53163  13.022   0.368   7.006  0.1154  0.2520  0.0027
44364W        W53164  24.292   3.551   5.414  0.2160  0.2062 -0.0303
44365W        W53165  22.468   1.833   3.613 -0.3577 -0.0526 -0.0139
44366W        W53166  16.490   3.366  14.668  0.2475  0.2527 -0.1468
44367W        W53167   4.933   2.608  10.254  0.0798  0.0927  0.1675
44368W        W53168   7.798   5.677   7.729 -0.3401  0.0134  0.1676
44369W        W53169  13.908   0.567  33.318 -0.0651 -0.0656  0.2471
44370W        W53170   3.181   0.668   2.360 -0.0283  0.0157 -0.0552
44371W        W53171   9.562   4.416  22.831 -0.0592  0.1129  0.1963
44372W        W53172   0.681   6.070   3.090  0.0515 -0.2141  0.0373
44373W        W53173  15.026   0.248   7.311  0.3067  0.0234  0.1193
44374W        W53174   1.283   4.038  12.355  0.1954  0.2229 -0.0708
44375W        W53175   6.425   5.211  30.567 -0.0195  0.0213  0.2149
44376W        W53176  15.787   5.566  24.899  0.1754 -0.2504  0.0630
44377W        W53177  13.149   5.930   1.080  0.1086  0.2558 -0.1411
44378W        W53178  18.712   1.919  34.289 -0.4008 -0.0008  0.3637
44379W        W53179   2.196   0.614  34.350 -0.0339  0.0154  0.0784
44380W        W53180  25.216   6.281  31.061 -0.1731 -0.1171 -0.0114
44381W        W53181   2.472   0.449   6.902 -0.0759 -0.2546  0.0530
44382W        W53182  24.106   2.230  29.789  0.1974  0.1324  0.0904
44383W        W53183  22.714   3.476  26.995 -0.0265  0.0485  0.0653
44384W        W53184  16.922   4.853   3.555 -0.0853 -0.0878 -0.0674
44385W        W53185  22.484   2.277  11.539  0.0512 -0.0881  0.0333
44386W        W53186   6.906   5.739  11.737 -0.0470  0.2166  0.0255
44387W        W53187  20.772   3.419  28.693 -0.0123  0.0755  0.0792
44388W        W53188   1.888   2.417  34.432  0.0367  0.2335 -0.1439
44389W        W53189   1.619   3.554  33.375  0.0233 -0.2656  0.1257
44390W        W53190  10.863   1.031  21.234  0.1029  0.2222  0.0016
44391W        W53191  12.585   1.105   6.297 -0.1834 -0.0994 -0.1197
44392W        W53192   1.214   0.928   4.794  0.1746 -0.2115 -0.0348
44393W        W53193  12.222   2.819  31.952  0.0818  0.2179  0.1176
44394W        W53194  13.415   2.853  33.210  0.2565 -0.0194 -0.0167
44395W        W53195  19.390   3.162  35.948 -0.0513 -0.3104  0.3545
44396W        W53196   2.876   4.333   3.645 -0.1418 -0.1498 -0.0035
44397W        W53197   4.772   0.544   3.189  0.2064  0.0467 -0.2608
44398W        W53198   6.160   0.493   1.579  0.0127  0.0314  0.0501
44399W        W53199   3.975   2.033  10.241  0.0114  0.1105 -0.1743
44400W        W53200  13.996   5.996  28.115  0.3429  0.1318  0.0778
44401W        W53201   1.954   3.322  33.076  0.0679  0.1946 -0.0566
44402W        W53202  12.420   6.177  21.584 -0.0478  0.1999 -0.0198
44403W        W53203   8.278   3.888  15.464  0.0330  0.1508  0.2334
44404W        W53204  11.926   5.796  26.746  0.0312 -0.0188  0.1277
44405W        W53205  26.014   3.779  24.870  0.0149  0.1843 -0.1423
44406W        W53206   1.468   4.909   4.579  0.1345 -0.2211  0.3053
44407W        W53207  19.489   4.052   5.983  0.0839 -0.0884 -0.1278
44408W        W53208   8.116   4.025  29.071  0.3663  0.2134  0.0008
44409W        W53209   0.007   5.513   2.770 -0.0301  0.0586  0.1791
44410W        W53210   0.403   5.361   1.253  0.1387 -0.1218 -0.1341
44411W        W53211  10.036   4.943   6.577 -0.1885 -0.0017 -0.1056
44412W        W53212  10.441   0.177  11.804  0.0226 -0.1041 -0.0107
44413W        W53213   1.108   3.855  14.518  0.1720  0.1637  0.0175
44414W        W53214   8.913   3.990   3.074 -0.1517 -0.0173 -0.0821
44415W        W53215   6.287   5.124  31.423  0.1759  0.1010  0.2380
44416W        W53216   8.855   4.398   3.339 -0.1695 -0.0629  0.0385
44417W        W53217  11.547   4.778  12.157  0.1122 -0.0515 -0.0804
44418W        W53218  18.786   1.923  21.497 -0.0647  0.5999 -0.4241
44419W        W53219  15.706   2.677  29.419 -0.3219  0.1302 -0.3885
44420W        W53220   8.947   0.271   1.914 -0.1775  0.0459 -0.1132
44421W        W53221  15.805   0.443  20.449  0.0805  0.0767 -0.0658
44422W        W53222  11.680   1.931   8.082 -0.2168  0.2891 -0.3309
44423W        W53223   4.727   3.779   6.450 -0.1287 -0.0546  0.0601
44424W        W53224   8.450   0.226  20.951 -0.0228  0.1534  0.0758
44425W        W53225  25.545   5.523  12.315  0.2436  0.3847  0.3068
44426W        W53226  26.067   6.050   0.894  0.1096 -0.2291 -0.0302
44427W        W53227  14.280   5.314   8.109 -0.0757 -0.0459  0.0467
44428W        W53228  16.316   1.543  10.765 -0.1766  0.0949  0.2482
44429W        W53229  18.993   0.718  26.884  0.2265  0.0550 -0.2560
44430W        W53230   8.937   0.087  32.307 -0.1040  0.0009  0.3490
44431W        W53231  22.818   6.260   3.255 -0.0539  0.0391  0.0159
44432W        W53232  15.362   2.189  28.985 -0.0833  0.3320 -0.1114
44433W        W53233   5.274   5.244   1.489 -0.1698 -0.0510 -0.1792
44434W        W53234   2.254   4.462  13.180 -0.2631 -0.4668 -0.1621
44435W        W53235   1.931   2.296  12.744  0.2090 -0.0474  0.2717
44436W        W53236  20.521   4.374   7.500  0.1872  0.4619  0.0396
44437W        W53237  22.721   4.353   6.793  0.3879 -0.0166  0.1113
44438W        W53238  26.080   4.512  35.571 -0.0989  0.0211 -0.0139
44439W        W53239  25.070   4.671  12.814  0.0009  0.1284 -0.3495
44440W        W53240  14.257   1.673  21.557  0.0700 -0.2787  0.0673
44441W        W53241  26.213   2.514   8.037 -0.0667  0.1155  0.1779
44442W        W53242   8.552   3.193  11.927  0.0183  0.0334  0.2105
44443W        W53243  14.367   6.407  12.847  0.0440  0.1738  0.0320
44444W        W53244  13.518   3.555   6.519  0.0982 -0.0987 -0.1596
44445W        W53245  21.001   3.346   3.668  0.2568  0.2802 -0.0639
44446W        W53246   9.602   5.275   0.122  0.0686 -0.0281 -0.1239
44447W        W53247   6.145   5.709   8.093  0.1642 -0.0271 -0.1403
44448W        W53248  13.767   1.090  29.523 -0.1045 -0.1119  0.2344
44449W        W53249   0.587   2.668  14.640  0.0972  0.0194  0.1067
44450W        W53250   6.170   0.400   0.612 -0.0867 -0.0494  0.1547
44451W        W53251  15.194   1.140   0.526 -0.2949  0.0029 -0.2313
44452W        W53252  16.540   0.049  35.870  0.0711  0.2820  0.2396
44453W        W53253  24.618   1.712  34.966  0.0165  0.1907  0.2123
44454W        W53254  20.475   2.718  34.626 -0.0794 -0.0285  0.2785
44455W        W53255  24.131   5.428  23.685  0.1543 -0.2560 -0.3096
44456W        W53256  16.475   3.636  33.175 -0.1136 -0.2281  0.0900
44457W        W53257  15.466   3.403   2.436  0.0793 -0.1469 -0.2165
44458W        W53258   5.259   3.314  21.621 -0.0057 -0.0565 -0.0755
44459W        W53259  12.020   0.530   4.197  0.4097  0.2016  0.1659
44460W        W53260  17.345   4.429  15.820 -0.0971 -0.0736 -0.1806
44461W        W53261   8.624   1.436  31.744 -0.3901 -0.1825 -0.0103
44462W        W53262  18.908   5.089   3.287  0.0285  0.2359  0.0875
44463W        W53263  19.323   5.919  12.058  0.1600  0.0231 -0.0631
44464W        W53264  23.430   2.923   5.015 -0.2804  0.2951  0.0016
44465W        W53265   0.834   4.532  23.512  0.0526 -0.0722  0.0952
44466W        W53266  23.231   1.286   0.410  0.2073  0.2745 -0.2773
44467W        W53267  21.415   4.974  14.490  0.0123 -0.3338 -0.0584
44468W        W53268  26.074   1.594   4.448 -0.1402  0.1396 -0.1013
44469W        W53269  14.979   1.090  22.214  0.0559 -0.2606  0.0738
44470W        W53270  16.342   4.962   6.078  0.0984 -0.0475  0.2975
44471W        W53271  26.185   2.071  13.085  0.0973 -0.0561 -0.1427
44472W        W53272   8.624   1.748  23.954  0.0634 -0.1672 -0.0009
44473W        W53273  20.926   1.322  23.188 -0.0476  0.1451  0.1276
44474W        W53274  21.562   2.973  21.077  0.0250  0.1475  0.0425
44475W        W53275   4.873   4.743  26.298 -0.2968  0.3470  0.1870
44476W        W53276  12.944   0.772  16.026 -0.3049 -0.2103 -0.2887
44477W        W53277  21.776   0.027   9.919  0.2445 -0.0637  0.2189
44478W        W53278   9.052   6.169  23.875 -0.0264  0.1249  0.0142
44479W        W53279   1.358   5.743  24.351  0.0911  0.3336  0.2133
44480W        W53280   9.991   4.472  24.540 -0.0271  0.0708 -0.3611
44481W        W53281   4.784   6.211  29.285 -0.1287  0.0638  0.1113
44482W        W53282  23.434   1.397  30.129  0.0104  0.1421  0.3363
44483W        W53283   5.497   6.556   0.977  0.3419 -0.0829  0.2203
44484W        W53284  23.663   3.279  11.771  0.0412  0.0708  0.0808
44485W        W53285  18.784   1.414  21.759 -0.2612  0.2778 -0.1131
44486W        W53286  25.299   5.542  29.770 -0.1224  0.1359 -0.1791
44487W        W53287  14.991   4.718  31.284 -0.1777 -0.1001  0.0914
44488W        W53288  20.173   1.725   5.192 -0.1248  0.1414 -0.0847
44489W        W53289  16.468   5.131  23.510 -0.0063  0.0785  0.0081
44490W        W53290  13.257   1.912  12.877 -0.0209 -0.0072  0.1792
44491W        W53291  18.580   4.548  21.196 -0.2451 -0.0596  0.3214
44492W        W53292  23.758   5.218   3.282 -0.1392  0.1177  0.2543
44493W        W53293   6.318   4.692   4.376 -0.1036 -0.1424  0.0689
44494W        W53294  24.504   3.035   8.387 -0.0985  0.0698 -0.1281
44495W        W53295   6.286   6.590   6.704  0.1769 -0.0349  0.0164
44496W        W53296  21.244   6.011  29.795  0.1239 -0.0962 -0.0597
44497W        W53297   9.953   1.200  23.654  0.0237  0.2701 -0.0184
44498W        W53298  12.425   5.595  14.569 -0.0826 -0.0012 -0.0767
44499W        W53299   8.488   2.651  14.625  0.2798  0.2995  0.1183
44500W        W53300  25.844   1.941  26.631  0.1867  0.2630  0.0842
44501W        W53301  16.000   2.400   2.040 -0.2334  0.0804  0.2946
44502W        W53302  25.127   5.944   0.387  0.1242 -0.2715 -0.0036
44503W        W53303  13.651   2.808  12.388  0.0945 -0.0434 -0.3409
44504W        W53304   3.757   0.100  10.151  0.1626 -0.0183 -0.1375
44505W        W53305  16.965   1.203  26.665 -0.1626 -0.0699  0.2506
44506W        W53306  24.380   5.751   2.272 -0.3202 -0.1494  0.0172
44507W        W53307  24.021   6.140  32.975 -0.0006 -0.0635 -0.1554
44508W        W53308   2.264   3.879   4.258 -0.3182  0.2656  0.0260
44509W        W53309   8.045   6.437  27.198 -0.0813  0.1716  0.0560
44510W        W53310   3.777   3.717  35.479  0.3132  0.2058 -0.2254
44511W        W53311   6.908   2.860  22.805  0.0196 -0.1796 -0.0516
44512W        W53312  16.046   2.781  34.310  0.2311 -0.3156  0.0715
44513W        W53313   2.531   1.885  28.688 -0.1446 -0.1637 -0.0282
44514W        W53314  16.684   5.326  29.826  0.0297  0.0722 -0.0867
44515W        W53315  21.739   1.336  20.715  0.0514  0.0769  0.1636
44516W        W53316   0.416   2.751  34.221  0.2524  0.1386  0.2743
44517W        W53317   5.275   0.696   1.559 -0.1195  0.0301 -0.0366
44518W        W53318  12.181   0.678  29.132 -0.0133 -0.0500  0.2530
44519W        W53319   0.472   2.391   9.375  0.1959 -0.3021 -0.1998
44520W        W53320  13.942   1.542  25.271 -0.1974 -0.0844  0.1656
44521W        W53321   1.580   4.225  27.640 -0.2031 -0.0207  0.2647
44522W        W53322  25.222   3.819  33.568  0.1313  0.2148 -0.0741
44523W        W53323   3.263   4.840   5.253 -0.0335 -0.3141  0.2351
44524W        W53324  11.758   2.308  10.499 -0.0818  0.0537  0.0523
44525W        W53325  23.762   6.282  14.761  0.1073  0.0526 -0.3533
44526W        W53326  25.646   0.149   1.027  0.2206  0.0684 -0.1579
44527W        W53327  25.511   4.796  22.799 -0.4891  0.1313 -0.1404
44528W        W53328   4.694   3.511   5.335 -0.1211 -0.0752 -0.2200
44529W        W53329   9.501   4.314  14.743 -0.0403  0.0604  0.0277
44530W        W53330   0.596   6.514  28.836  0.0921  0.0905  0.0367
44531W        W53331  24.551   4.315   7.051  0.2243  0.2857 -0.0851
44532W        W53332   7.980   5.504  30.509  0.1256 -0.3037 -0.1056
44533W        W53333  14.695   5.270   7.222  0.1783 -0.1019 -0.1030
44534W        W53334  18.511   4.429  31.876 -0.2550  0.0032 -0.2828
44535W        W53335  16.134   4.448   4.794 -0.2023  0.0556  0.1378
44536W        W53336  24.830   3.936  22.097 -0.2438 -0.1245 -0.0521
44537W        W53337  13.215   4.789  12.335  0.1916  0.1800 -0.0309
44538W        W53338   7.534   3.718   1.427  0.0436  0.2148  0.2163
44539W        W53339  15.076   3.900  15.263  0.1352 -0.1611 -0.2408
44540W        W53340  24.181   0.151   3.837  0.4395 -0.1589  0.2094
44541W        W53341  19.447   3.078   2.741 -0.0084 -0.0555  0.0553
44542W        W53342  23.569   0.473   2.654  0.0305  0.0586 -0.3087
44543W        W53343  12.096   4.918  10.765  0.2331 -0.4469  0.0945
44544W        W53344  25.803   2.569  27.675  0.1161  0.1538  0.0969
44545W        W53345  11.713   3.213  30.452  0.0297  0.0111 -0.1312
44546W        W53346  18.900   3.543  33.193  0.1046  0.1508 -0.3359
44547W        W53347  24.087   3.569  27.010  0.1434  0.1315 -0.0044
44548W        W53348  16.129   1.899  10.467 -0.1994  0.0770 -0.0624
44549W        W53349   1.638   4.440   5.063  0.0574  0.2864 -0.2192
44550W        W53350  22.055   0.706  14.728  0.1501 -0.0692 -0.0213
44551W        W53351  18.278   1.540  13.469  0.4037  0.0257 -0.0215
44552W        W53352   8.535   4.962  32.829 -0.1936 -0.0154 -0.0756
44553W        W53353   9.962   2.357  28.621  0.1328  0.0948  0.1557
44554W        W53354  18.637   0.143   0.261  0.0209  0.0261  0.2714
44555W        W53355   3.750   3.273  35.152 -0.1876  0.0593 -0.2255
44556W        W53356  16.052   4.935  24.478  0.2213 -0.0507  0.0943
44557W        W53357  21.606   4.345  35.134  0.2989 -0.3691 -0.2490
44558W        W53358   7.474   3.818  32.056  0.0523 -0.0821 -0.2057
44559W        W53359  22.081   1.293  27.248 -0.1666  0.0909 -0.0102
44560W        W53360  22.250   6.375  25.282 -0.1576 -0.1118  0.2476
44561W        W53361  15.077   3.705  32.926 -0.0140  0.1261  0.1496
44562W        W53362   4.537   3.070  29.135  0.2404  0.1803 -0.0907
44563W        W53363  24.726   2.878  13.862  0.0993 -0.0861  0.2663
44564W        W53364  12.751   1.965  10.432 -0.0049 -0.2414 -0.0512
44565W        W53365  21.200   2.334  24.159 -0.0020 -0.0706 -0.2624
44566W        W53366  23.468   1.874  14.827 -0.1727  0.3483 -0.0561
44567W        W53367   4.946   1.083   5.532  0.4172  0.1586  0.2314
44568W        W53368   4.968   1.289  28.570 -0.0021  0.1249  0.0356
44569W        W53369  14.681   4.163  24.700  0.2159 -0.3027  0.0133
44570W        W53370  19.305   4.343   5.485  0.0956  0.0345  0.1443
44571W        W53371   9.242   2.015  35.165 -0.0845  0.0226 -0.2417
44572W        W53372  13.738   2.884   0.623  0.4117  0.0536 -0.0725
44573W        W53373  16.928   2.430  34.068 -0.1175  0.0335  0.1154
44574W        W53374  13.708   1.632  10.705  0.1115 -0.0156 -0.0514
44575W        W53375   9.554   4.704   7.041 -0.1665  0.2236  0.0697
44576W        W53376   2.958   2.371  24.230  0.1854  0.1095  0.0275
44577W        W53377  15.574   3.656  24.475 -0.1036 -0.0335 -0.1149
44578W        W53378  18.097   2.815   1.020 -0.0452 -0.0381  0.0938
44579W        W53379  10.754   1.652   9.993  0.2188  0.0488 -0.4465
44580W        W53380  23.986   0.263  10.680 -0.0109  0.1789  0.0872
44581W        W53381  17.397   5.341  11.858  0.1784  0.2281  0.0776
44582W        W53382  24.076   4.402   1.974  0.2307  0.0287 -0.0801
44583W        W53383  25.975   4.487  22.923 -0.2571 -0.0680  0.0126
44584W        W53384   6.181   5.051  34.755  0.2512 -0.2016  0.1351
44585W        W53385   7.655   3.115  26.040  0.1162 -0.0379 -0.1654
44586W        W53386   4.623   2.502  34.448  0.3120  0.0244 -0.2386
44587W        W53387  16.546   1.080  31.914 -0.5315 -0.0210 -0.3287
44588W        W53388  24.057   1.452  12.081  0.3115  0.2234  0.2012
44589W        W53389   4.325   5.166  28.889  0.0011 -0.0822  0.1746
44590W        W53390   1.877   2.368  35.602  0.0173  0.0297  0.3131
44591W        W53391  22.872   2.893  32.237  0.0175 -0.2808  0.1122
44592W        W53392   9.021   1.910   3.330 -0.2094 -0.1749  0.0635
44593W        W53393  23.648   0.459  27.025  0.0924 -0.2476  0.0586
44594W        W53394   9.216   6.451  34.340  0.1167 -0.0609 -0.0939
44595W        W53395  24.260   0.936   6.586  0.0659  0.0602  0.0688
44596W        W53396  19.077   4.159  32.668  0.1524  0.1445  0.2187
44597W        W53397  24.708   2.928  30.478 -0.1630 -0.0279 -0.1380
44598W        W53398   6.336   0.077  35.432 -0.2380 -0.2500  0.1001
44599W        W53399   0.072   1.436  34.157 -0.3689 -0.2377 -0.0340
44600W        W53400  11.454   5.801  12.464  0.3268 -0.0107  0.2290
44601W        W53401  19.626   3.261   7.436  0.2166  0.1011 -0.0734
44602W        W53402  23.124   5.150  23.615 -0.1120  0.0241 -0.0584
44603W        W53403  11.689   6.002  23.953 -0.0736  0.0289  0.1796
44604W        W53404   7.846   0.929  25.726  0.3112  0.1973  0.3989
44605W        W53405  13.833   5.487   7.954  0.0917 -0.0560 -0.0071
44606W        W53406   5.482   3.133   2.130 -0.3459  0.0897  0.0485
44607W        W53407  13.018   1.051   1.400 -0.4217 -0.0460  0.4859
44608W        W53408  14.596   4.271   0.436 -0.0752  0.1916  0.1280
44609W        W53409  20.338   6.124  31.507  0.3315  0.0311  0.1840
44610W        W53410   2.149   0.290  26.879  0.0797  0.1953 -0.3587
44611W        W53411   6.493   4.027   9.711  0.1464  0.2341 -0.0456
44612W        W53412  24.386   5.587  24.243  0.2324 -0.1591  0.2304
44613W        W53413  24.295   5.354  27.177  0.0253  0.1405  0.0536
44614W        W53414  10.455   4.747   9.373 -0.0995  0.0699 -0.0596
44615W        W53415  15.696   6.579  13.917 -0.2635  0.0335  0.1692
44616W        W53416   1.517   4.148  25.238 -0.1934 -0.0183  0.1774
44617W        W53417  11.767   2.076   5.322 -0.2877  0.0995  0.0139
44618W        W53418  24.678   5.472  34.638  0.0919 -0.0502 -0.1312
44619W        W53419  18.108   0.772  14.999  0.1017  0.2942  0.1033
44620W        W53420  16.316   0.171  12.670 -0.2512  0.1294 -0.2705
44621W        W53421  10.162   4.039  14.431  0.0391 -0.2262  0.1804
44622W        W53422  13.950   0.145  26.430  0.2818 -0.0492 -0.1733
44623W        W53423  11.842   1.580  26.989 -0.0426  0.1550  0.1032
44624W        W53424  16.319   2.482  28.801 -0.0618  0.1397  0.0033
44625W        W53425  25.826   2.773  34.278  0.0842 -0.1121  0.1393
44626W        W53426  18.880   3.705  21.522 -0.1202 -0.1970 -0.2684
44627W        W53427   9.471   3.514  35.250  0.2755  0.1319 -0.3877
44628W        W53428   7.199   3.886  33.750 -0.1331  0.1138  0.1188
44629W        W53429  11.777   3.473   6.765 -0.1619  0.2169  0.1292
44630W        W53430   4.580   0.223  26.163 -0.1148 -0.0970  0.1331
44631W        W53431  26.330   6.196  10.846  0.0594  0.0459 -0.0476
44632W        W53432  24.643   6.292  31.199  0.0391  0.0542  0.1791
44633W        W53433  14.851   2.008   3.896 -0.0053  0.1308 -0.3413
44634W        W53434   9.222   5.172  21.833  0.0697 -0.2695  0.2045
44635W        W53435  21.401   5.743   8.928 -0.1028 -0.0387  0.2246
44636W        W53436   7.923   5.281  23.426 -0.0232  0.0045 -0.2301
44637W        W53437  11.573   5.802  35.156  0.0003 -0.0848 -0.0118
44638W        W53438  22.712   0.020   0.580  0.0723  0.0522 -0.3145
44639W        W53439   0.693   1.941  13.493 -0.0120  0.1525 -0.2790
44640W        W53440  24.176   0.989   2.988 -0.2006 -0.1917 -0.0224
44641W        W53441  13.813   4.274  30.792  0.0672  0.3106  0.0918
44642W        W53442  24.760   6.202  24.584 -0.0472  0.0260 -0.5113
44643W        W53443   2.003   5.444  28.169  0.1975  0.0083  0.2800
44644W        W53444   5.724   5.062   6.034  0.1811 -0.1278  0.1423
44645W        W53445  15.374   0.377  35.658  0.0281  0.2486 -0.1613
44646W        W53446   4.151   5.270   1.492 -0.1160  0.1247 -0.0954
44647W        W53447   2.866   6.464  25.477  0.0645 -0.1294 -0.0324
44648W        W53448  17.256   4.732  24.159 -0.0026 -0.0598  0.2389
44649W        W53449  24.320   4.324   9.547  0.0761 -0.3139  0.0310
44650W        W53450  15.846   0.843   3.561  0.1096  0.1257 -0.1065
44651W        W53451   0.453   6.595  11.553  0.3042 -0.2822 -0.0245
44652W        W53452   0.743   4.395  28.684 -0.0587 -0.0545 -0.1721
44653W        W53453   8.762   1.501  30.191 -0.1554 -0.3543 -0.2604
44654W        W53454  24.212   6.100   7.734  0.1448 -0.0285 -0.4397
44655W        W53455   8.679   0.461  32.613 -0.1077 -0.0186  0.2543
44656W        W53456  23.496   4.927   5.975  0.1744 -0.0148 -0.0659
44657W        W53457   1.123   4.806  14.904  0.2176 -0.0898 -0.1228
44658W        W53458  22.477   5.442   3.749  0.0468  0.0512  0.1540
44659W        W53459   7.737   6.285  30.634  0.0713 -0.1946  0.3821
44660W        W53460   0.625   5.961  13.325  0.0578 -0.1143  0.1752
44661W        W53461  21.666   5.326  35.219  0.1246  0.0464  0.2907
44662W        W53462  20.364   5.614   6.080  0.3996  0.0810  0.2588
44663W        W53463  23.125   4.412  20.747  0.2455 -0.0755  0.0258
44664W        W53464  17.692   2.113  23.850 -0.0197  0.0892  0.0835
44665W        W53465  24.263   3.581  28.683  0.0405  0.0603 -0.3286
44666W        W53466   8.406   2.461   7.723  0.0756 -0.0799  0.1715
44667W        W53467   4.898   0.867   7.287  0.0947 -0.0204 -0.1206
44668W        W53468   1.387   3.738  24.510 -0.2341  0.1528  0.0146
44669W        W53469  11.721   0.305  26.681 -0.3101  0.0789 -0.0267
44670W        W53470  13.622   1.543  29.621  0.0231 -0.1876 -0.1205
44671W        W53471  16.582   4.953  33.452  0.0215  0.2922  0.1237
44672W        W53472  15.200   5.909  31.576  0.2359  0.1429 -0.0119
44673W        W53473   5.733   4.723  24.298  0.0630  0.0587 -0.0656
44674W        W53474   2.287   3.624   2.353 -0.1836 -0.1052 -0.0540
44675W        W53475   1.823   0.920  28.809  0.2895 -0.3639 -0.1059
44676W        W53476  18.115   0.935  34.685 -0.0990 -0.3120 -0.3862
44677W        W53477   3.985   5.434  11.301 -0.0890 -0.3049  0.0935
44678W        W53478   3.028   1.847   2.695 -0.0942 -0.1560  0.1322
44679W        W53479  16.166   3.600   4.098  0.1586  0.1222  0.0138
44680W        W53480   2.153   0.503  27.909 -0.4178 -0.1396  0.1220
44681W        W53481  25.304   0.965  28.599  0.1152  0.2466 -0.1430
44682W        W53482  11.582   1.558   4.343 -0.1481  0.0295 -0.2300
44683W        W53483  18.229   0.756  26.709 -0.1495 -0.2992  0.0935
44684W        W53484  25.238   3.712  29.715 -0.0120 -0.0325  0.0220
44685W        W53485   3.482   3.070   9.653 -0.2315  0.1584  0.1278
44686W        W53486  18.666   1.124   3.092 -0.2341 -0.0797  0.1244
44687W        W53487   0.481   0.687  24.892  0.0781 -0.1464 -0.4090
44688W        W53488   3.824   2.251  13.906 -0.3141  0.1159  0.0698
44689W        W53489  25.186   0.990  21.611  0.3144 -0.1126  0.2228
44690W        W53490  20.027   1.233  14.211  0.0167 -0.3628 -0.1559
44691W        W53491  12.798   6.409  21.524  0.0653 -0.1535  0.0685
44692W        W53492  23.945   2.398  11.611  0.0588  0.1656 -0.3759
44693W        W53493  19.424   4.133   6.791 -0.0690 -0.1301 -0.0232
44694W        W53494   1.480   3.705   0.600 -0.2331 -0.2967 -0.0710
44695W        W53495  16.075   1.944   7.520  0.0608 -0.1001  0.1028
44696W        W53496  15.315   5.130   4.524  0.1635 -0.0536  0.0306
44697W        W53497  24.248   5.826   6.543  0.2075 -0.3086 -0.1197
44698W        W53498   3.298   6.229  36.039  0.1898  0.2100 -0.2615
44699W        W53499   2.491   3.328  30.418  0.0705 -0.0473  0.2366
44700W        W53500   5.767   3.981   4.251  0.0459 -0.0365 -0.0081
44701W        W53501  16.584   0.254  13.647  0.0836 -0.0201  0.0550
44702W        W53502  21.517   0.086  32.917  0.0882 -0.2086 -0.1561
44703W        W53503  24.745   3.118  27.219 -0.5322 -0.0773 -0.3239
44704W        W53504   1.339   6.366  13.796 -0.1237  0.0263 -0.5637
44705W        W53505   9.248   5.734   7.545  0.1101  0.0703  0.0018
44706W        W53506  26.114   0.017  22.132 -0.2677 -0.1451  0.2297
44707W        W53507  20.094   4.597  12.669  0.0841 -0.0031 -0.1194
44708W        W53508  18.810   0.935  11.302  0.3335  0.5014 -0.0419
44709W        W53509   4.632   2.999  28.673  0.2214 -0.0169  0.2140
44710W        W53510  21.090   3.741  15.404  0.1416 -0.4184  0.2263
44711W        W53511   6.936   0.502  22.178 -0.0582 -0.2628  0.0308
44712W        W53512   5.905   1.327  10.065  0.1594  0.0688  0.1091
44713W        W53513  11.076   2.591  32.621  0.3245  0.3869  0.2670
44714W        W53514   5.209   2.166  22.076 -0.3254 -0.2873 -0.2268
44715W        W53515   0.797   4.261   0.247 -0.2432 -0.0088 -0.0326
44716W        W53516  19.623   2.737  22.966 -0.0184 -0.0777  0.1188
44717W        W53517  15.986   5.759   3.060 -0.2460  0.2478 -0.1239
44718W        W53518  20.364   4.810  10.519 -0.0634 -0.0141 -0.1165
44719W        W53519   9.243   4.920   9.936  0.0774  0.0598 -0.1424
44720W        W53520  18.826   4.529  32.896  0.1932  0.1723 -0.1449
44721W        W53521  23.678   1.305  33.337  0.0628 -0.1552 -0.0123
44722W        W53522  10.268   3.979  35.817  0.2091 -0.0741 -0.3753
44723W        W53523  20.160   4.796  35.197  0.1232  0.1485 -0.0231
44724W        W53524  14.545   1.381  12.409  0.1665  0.2734  0.0913
44725W        W53525  24.006   2.926   8.221 -0.0519 -0.2702  0.2064
44726W        W53526  25.881   0.683  31.940 -0.2105  0.0113 -0.1142
44727W        W53527  12.948   1.079  14.658  0.3632  0.1630  0.1915
44728W        W53528  10.104   3.414  24.838 -0.0011  0.1285 -0.0381
44729W        W53529  20.213   4.949  33.895 -0.0288  0.0468 -0.0866
44730W        W53530   6.132   3.303  22.801  0.1229  0.1961 -0.2625
44731W        W53531   0.439   4.820   8.888  0.1127 -0.4544  0.2057
44732W        W53532  11.560   4.858  10.834  0.0725 -0.0157  0.4589
44733W        W53533   9.747   4.583  12.483 -0.2661 -0.3042 -0.2690
44734W        W53534  21.790   6.372  33.777 -0.1844  0.1621 -0.2191
44735W        W53535  11.918   3.042   7.641 -0.0649  0.1349 -0.2948
44736W        W53536  25.252   0.654   3.446  0.1994  0.2028  0.0043
44737W        W53537  23.173   5.596   9.110  0.0288 -0.2174  0.1218
44738W        W53538  20.597   5.916   3.775  0.2234  0.3753 -0.0632
44739W        W53539  15.406   4.354   4.905 -0.1231  0.0573 -0.2071
44740W        W53540  22.290   5.181   0.315  0.0598 -0.1220 -0.1153
44741W        W53541  21.027   2.442  21.155 -0.2130  0.1742  0.3152
44742W        W53542   5.074   6.166  21.183 -0.1074 -0.2579 -0.0571
44743W        W53543   5.171   1.746  21.773 -0.0941 -0.3117 -0.0784
44744W        W53544   0.574   2.417   5.607  0.1054  0.0648  0.1761
44745W        W53545   0.781   2.529  36.041  0.0994  0.0338  0.0539
44746W        W53546  17.410   5.940  34.523 -0.0485  0.2273  0.2420
44747W        W53547   2.855   2.554   5.563  0.2041 -0.0550  0.0009
44748W        W53548  22.710   5.444  31.697 -0.3045 -0.2512  0.4563
44749W        W53549   7.722   4.985   0.909  0.0857  0.0584  0.0212
44750W        W53550  26.407   0.231  13.345 -0.1514  0.1344 -0.0829
44751W        W53551  15.618   3.030  10.651 -0.0336 -0.3248 -0.0330
44752W        W53552   1.326   3.659   2.568  0.1006  0.0953 -0.2412
44753W        W53553  20.962   5.061   7.222 -0.1097  0.0264  0.0468
44754W        W53554  25.961   3.775  13.124  0.0768 -0.0992 -0.1879
44755W        W53555  14.747   1.110  14.397 -0.4748  0.3011  0.0010
44756W        W53556   7.436   1.301  31.196 -0.1293  0.1170 -0.1143
44757W        W53557  22.827   4.614  27.002 -0.0410  0.2067  0.0517
44758W        W53558  23.089   3.434  11.104 -0.0938  0.1157 -0.0186
44759W        W53559   2.480   3.478   1.931 -0.1654  0.1937  0.1497
44760W        W53560   2.367   1.144  34.438 -0.1197  0.1575 -0.1370
44761W        W53561  15.950   5.907   8.277  0.4489  0.1397  0.1314
44762W        W53562  20.791   1.167  24.121 -0.1526 -0.1385 -0.3534
44763W        W53563   5.710   0.956  10.828 -0.0070  0.2668  0.0776
44764W        W53564   3.639   4.160   0.285  0.0009 -0.1506  0.0826
44765W        W53565  14.869   2.027  26.554  0.2290 -0.0299  0.1672
44766W        W53566   9.785   4.810   2.662  0.0326  0.3736  0.3247
44767W        W53567   2.137   4.914   1.694 -0.0077 -0.2586 -0.1339
44768W        W53568  25.182   2.286  14.638 -0.2077  0.0470 -0.1729
44769W        W53569  23.936   4.654  25.757  0.2512  0.0933  0.1023
44770W        W53570   7.988   3.390   5.473  0.1300  0.1220  0.0032
44771W        W53571  17.975   3.640  29.077 -0.3083  0.0837 -0.3317
44772W        W53572  25.820   1.793  22.206  0.3703 -0.1579 -0.0485
44773W        W53573  13.631   3.821  26.561 -0.0517  0.4160  0.0910
44774W        W53574   7.509   2.831  15.083  0.1518  0.0717 -0.2020
44775W        W53575   7.641   2.466  29.877  0.1851  0.3869 -0.3117
44776W        W53576  11.781   0.634   9.070 -0.1102 -0.0378 -0.0508
44777W        W53577  16.660   0.025  24.734 -0.1076  0.0572 -0.1369
44778W        W53578   2.295   3.546  34.076  0.3080 -0.2697 -0.1209
44779W        W53579  10.819   0.856   2.593 -0.1196  0.0109 -0.1520
44780W        W53580   3.306   0.591   8.994 -0.3464 -0.1562 -0.0662
44781W        W53581  22.598   4.536  22.770  0.3517  0.4384 -0.0121
44782W        W53582   1.623   2.005  27.171 -0.4282 -0.0006 -0.1275
44783W        W53583  14.029   4.243   1.881 -0.3416 -0.0400 -0.5033
44784W        W53584  17.801   5.075  30.231 -0.2063  0.0084 -0.0524
44785W        W53585  25.327   1.036  12.547  0.1629  0.5291  0.0008
44786W        W53586   2.894   2.050  35.924 -0.1855 -0.0969  0.0573
44787W        W53587   2.419   6.292  11.815  0.1088 -0.2066  0.3633
44788W        W53588  14.034   5.873   4.642  0.1753 -0.1033 -0.1918
44789W        W53589   4.411   0.604   7.342  0.0972  0.3147 -0.1061
44790W        W53590   6.415   4.244  33.084  0.2123  0.2325  0.2377
44791W        W53591  24.032   2.820   9.523  0.2096 -0.2239  0.1710
44792W        W53592  23.954   1.082  33.806 -0.3350  0.2387 -0.1667
44793W        W53593  26.119   0.966  22.972  0.0578 -0.1274 -0.1566
44794W        W53594  20.284   4.520   9.669  0.0856  0.2219 -0.1148
44795W        W53595  25.549   2.279  35.926  0.0341  0.0719  0.1665
44796W        W53596  11.778   5.827   8.039 -0.0007 -0.0822  0.0038
44797W        W53597  24.528   2.568  28.475  0.1574  0.2370 -0.0128
44798W        W53598   1.893   3.051  14.037 -0.0735 -0.3323  0.0285
44799W        W53599   1.672   0.918  30.731 -0.1480  0.2096 -0.1026
44800W        W53600   8.484   3.656  21.482 -0.0980 -0.1116 -0.0912
44801W        W53601  21.159   4.723  26.023  0.2147 -0.2271  0.0808
44802W        W53602   8.397   4.068  24.577 -0.0608  0.2878  0.3583
44803W        W53603  23.005   0.219  30.478 -0.0212  0.0470  0.0201
44804W        W53604   2.125   1.974   0.128 -0.2710  0.0437  0.2826
44805W        W53605  16.944   5.429  14.746  0.2177  0.0695 -0.1794
44806W        W53606  18.340   1.045  10.434  0.3938  0.1264  0.0544
44807W        W53607  23.893   3.833  23.472  0.0058 -0.2073  0.2507
44808W        W53608   2.117   4.388  34.131 -0.0625  0.3489  0.1136
44809W        W53609   8.693   5.543   2.007 -0.1310  0.1291 -0.1375
44810W        W53610  19.896   5.492  35.868 -0.0367  0.0346  0.0396
44811W        W53611   7.532   6.487  29.151 -0.2272  0.0614  0.1066
44812W        W53612  16.447   1.272  22.165  0.0296 -0.2855  0.2541
44813W        W53613   3.844   1.840  25.643  0.3022 -0.2104  0.0134
44814W        W53614  26.147   4.461   6.180 -0.2539 -0.2265  0.1522
44815W        W53615  20.903   5.456  11.987  0.0529 -0.0747  0.1224
44816W        W53616   1.432   1.767   7.792  0.3584 -0.0556  0.1346
44817W        W53617  12.662   3.687  23.480  0.2012 -0.1777 -0.0795
44818W        W53618  23.439   0.203  32.471 -0.2381  0.1329 -0.0687
44819W        W53619  15.106   5.818  34.566 -0.3192  0.1749  0.0841
44820W        W53620  20.512   4.097  35.771 -0.1043 -0.0151 -0.2441
44821W        W53621   2.248   3.381  25.623 -0.0060 -0.0184  0.0144
44822W        W53622  12.128   4.621   8.561 -0.0079  0.1773 -0.2790
44823W        W53623   3.205   5.203  26.709 -0.1126  0.3046  0.2735
44824W        W53624   4.185   1.939  12.058 -0.0450  0.0259  0.0409
44825W        W53625   1.157   1.573  34.607 -0.0420 -0.1662  0.0217
44826W        W53626  10.808   0.227  10.558 -0.1748 -0.0660  0.0586
44827W        W53627  17.963   3.444  21.488  0.2710  0.3362  0.1047
44828W        W53628  12.509   4.165  34.674  0.2356 -0.2162  0.0194
44829W        W53629  16.540   1.416  10.347 -0.3230 -0.1377 -0.0447
44830W        W53630  12.532   4.624   6.840 -0.1659 -0.0628  0.1517
44831W        W53631   3.341   1.401  11.075  0.3468  0.0927 -0.0957
44832W        W53632  13.509   5.809  28.029  0.2472  0.0553  0.0451
44833W        W53633   0.833   5.801  11.255 -0.1992  0.1232 -0.1456
44834W        W53634   1.248   2.679   7.826  0.0038 -0.0085  0.1800
44835W        W53635  10.111   6.513  30.531 -0.1534 -0.0491  0.0503
44836W        W53636  13.828   5.535  28.338 -0.1214  0.0052 -0.0554
44837W        W53637  18.612   5.124   8.642  0.5707 -0.0676  0.0915
44838W        W53638  23.605   3.252   2.616  0.0509 -0.0688  0.1294
44839W        W53639   3.856   0.708   1.361  0.2121  0.0969  0.0450
44840W        W53640  24.061   2.598  27.141  0.2818 -0.0090 -0.1363
44841W        W53641   0.281   5.247   3.927  0.0970  0.0198 -0.0853
44842W        W53642  17.289   5.456  21.736  0.6093 -0.1357 -0.5534
44843W        W53643   1.934   3.922   0.735  0.0716 -0.1515 -0.2497
44844W        W53644  23.250   3.528   7.620 -0.0661  0.0988  0.1730
44845W        W53645   2.146   5.149  35.764 -0.1299  0.0090 -0.0191
44846W        W53646  21.785   0.824  22.981  0.0659 -0.1318  0.3314
44847W        W53647   7.352   4.219  30.247  0.0903 -0.0163 -0.2439
44848W        W53648  10.918   2.457  35.508 -0.1266 -0.1011 -0.0350
44849W        W53649   2.378   6.516   7.422 -0.1600 -0.0857 -0.2105
44850W        W53650  26.103   1.100  27.561  0.0409 -0.0057 -0.0489
44851W        W53651   6.127   0.528  35.347 -0.2962  0.2291 -0.1936
44852W        W53652  16.493   4.820   9.250 -0.1847  0.1799  0.2361
44853W        W53653   0.598   5.799   4.551 -0.2168 -0.0484  0.2956
44854W        W53654   5.320   3.766  10.481  0.1209 -0.0229 -0.2401
44855W        W53655  18.795   3.747   6.368  0.2446 -0.1200  0.0058
44856W        W53656  17.640   1.709  35.633  0.0661  0.2064  0.1255
44857W        W53657   8.379   2.028  35.477  0.2914 -0.0874 -0.0359
44858W        W53658  22.947   0.432  30.957 -0.0172  0.0927  0.0386
44859W        W53659   2.604   2.052  29.201 -0.2264 -0.1199 -0.1146
44860W        W53660   3.937   0.250  20.735 -0.1409  0.1441  0.1473
44861W        W53661  12.762   4.930  12.247  0.1652  0.0246 -0.1187
44862W        W53662   5.064   0.460  12.604 -0.1327  0.0359 -0.3194
44863W        W53663   0.058   0.181  27.844 -0.1884 -0.1002 -0.0229
44864W        W53664  23.620   1.519   0.186 -0.0820 -0.2612  0.1164
44865W        W53665   6.728   5.484  22.612 -0.2521 -0.0487  0.1625
44866W        W53666  17.502   0.912  14.486  0.0637 -0.0281 -0.0057
44867W        W53667  10.307   1.436   1.817  0.2475 -0.1507  0.0787
44868W        W53668  15.384   0.299  24.947 -0.1165  0.1497  0.3781
44869W        W53669   7.970   3.496  34.265  0.3908 -0.0948  0.1775
44870W        W53670   7.085   2.374  34.933 -0.0034 -0.4023  0.0130
44871W        W53671  14.996   4.501  21.431 -0.0322 -0.0548  0.1984
44872W        W53672   5.444   5.443  30.719  0.2220 -0.0808  0.1323
44873W        W53673  12.634   2.821  35.988  0.1465 -0.2532 -0.0841
44874W        W53674  25.234   6.533  23.157 -0.1643 -0.1121  0.1175
44875W        W53675  11.061   2.577   3.269  0.0542  0.1317 -0.1578
44876W        W53676  25.441   2.959  32.409 -0.0082  0.0116  0.1995
44877W        W53677  11.229   6.085  33.807  0.2983  0.1640  0.1258
44878W        W53678   0.774   5.392   6.359  0.2874  0.2152  0.2087
44879W        W53679   6.891   3.963  25.195  0.1840 -0.0486 -0.1916
44880W        W53680  25.358   0.981  27.660  0.4132  0.2637  0.0962
44881W        W53681  20.009   3.691  12.960 -0.1541  0.0573  0.2039
44882W        W53682   6.812   1.407  10.162  0.1551 -0.0047 -0.0194
44883W        W53683  11.522   4.655  27.624  0.3629  0.0641 -0.2969
44884W        W53684  22.265   1.692  35.706 -0.5491  0.1422  0.1142
44885W        W53685   6.566   3.140   1.253  0.2829 -0.0824 -0.0715
44886W        W53686   2.036   5.881  26.925  0.0547  0.0616  0.0614
44887W        W53687  12.838   0.417   3.333 -0.0578 -0.2114 -0.0931
44888W        W53688  18.649   0.640  31.732  0.2048 -0.2035 -0.2318
44889W        W53689  15.941   4.910  35.081  0.2380  0.1061 -0.0726
44890W        W53690  21.142   0.657  21.512  0.0506 -0.0132  0.0186
44891W        W53691  15.643   6.133  27.890  0.0156 -0.2393 -0.2781
44892W        W53692  19.568   1.736  34.100  0.1357 -0.0780  0.1820
44893W        W53693  10.042   0.028  31.856  0.1993 -0.0903 -0.3313
44894W        W53694  13.021   6.120   6.925 -0.2683  0.1587  0.1982
44895W        W53695   5.555   2.907  22.209 -0.0705  0.1696  0.0369
44896W        W53696   1.043   4.874  12.377 -0.1735 -0.1246 -0.1288
44897W        W53697  14.887   5.924   6.621 -0.0794 -0.3050 -0.0905
44898W        W53698   6.190   5.807  32.759 -0.1578 -0.1385  0.1875
44899W        W53699   2.832   5.710  29.160  0.1201  0.1694 -0.0853
44900W        W53700  17.909   2.606   0.592  0.1117 -0.2269 -0.3106
44901W        W53701  14.350   3.091   5.704 -0.3287 -0.0288  0.3218
44902W        W53702   8.456   6.142  22.467  0.1585  0.2240 -0.1504
44903W        W53703   8.544   0.910  15.037  0.2489 -0.2360 -0.2459
44904W        W53704  25.825   5.562  29.874  0.2516 -0.0016  0.1194
44905W        W53705  18.315   0.585   5.465  0.2875  0.1091  0.1673
44906W        W53706  23.615   5.709   0.426  0.1175 -0.0963  0.0632
44907W        W53707  25.818   5.939  27.245 -0.3138 -0.4709 -0.3340
44908W        W53708  24.406   4.602  30.401 -0.0559 -0.0546  0.0280
44909W        W53709  23.528   1.193  13.767  0.1972 -0.1726  0.1333
44910W        W53710  19.788   3.772  25.272  0.0207  0.0653  0.0019
44911W        W53711  20.099   4.856  31.196  0.0138  0.1256 -0.0973
44912W        W53712   6.125   6.187  10.485  0.0790 -0.0349  0.2774
44913W        W53713   7.828   5.938  10.688 -0.0146 -0.2670 -0.1425
44914W        W53714  20.627   0.713  27.478 -0.2952  0.1104  0.1580
44915W        W53715  11.668   1.782  23.143 -0.2200  0.1802  0.2627
44916W        W53716  24.948   0.489  30.665  0.1629  0.0872  0.4637
44917W        W53717  14.889   0.108   2.532  0.1546 -0.0163 -0.2509
44918W        W53718  19.275   4.665   9.621  0.0973 -0.1807 -0.2648
44919W        W53719  21.499   3.819  29.815  0.0892 -0.1218  0.2250
44920W        W53720  21.997   0.664   2.099 -0.1047  0.2888  0.1106
44921W        W53721  20.686   5.196  21.911  0.2343  0.1548  0.0642
44922W        W53722  12.261   5.092   1.966 -0.0725 -0.1158  0.0019
44923W        W53723   5.512   3.093  30.145 -0.3431  0.0277  0.0490
44924W        W53724   3.471   6.231   5.265  0.0488  0.1543  0.0031
44925W        W53725  13.426   5.826  31.408  0.1897 -0.0919  0.1986
44926W        W53726  10.286   4.727   8.870  0.2185  0.2671  0.1073
44927W        W53727  10.191   6.149  24.986  0.1660  0.2529 -0.1016
44928W        W53728  18.220   3.154  15.218  0.0383  0.0308 -0.0268
44929W        W53729   7.608   1.580  32.655 -0.2432  0.1476  0.0327
44930W        W53730  11.166   4.724   9.901  0.0166  0.0527  0.2344
44931W        W53731   9.915   3.336   6.666 -0.3719 -0.1342  0.4006
44932W        W53732  15.614   1.391  32.137  0.0528  0.1217 -0.0426
44933W        W53733  20.454   1.375  29.570  0.4216  0.0503  0.1542
44934W        W53734   4.273   5.746  32.770 -0.2619  0.1617  0.0198
44935W        W53735   6.793   4.832  26.702 -0.2756  0.1835 -0.0608
44936W        W53736   5.726   5.626  25.292 -0.2756  0.1358  0.2473
44937W        W53737  14.746   6.601  33.928 -0.0299  0.1537  0.2116
44938W        W53738   0.113   3.274  14.941 -0.1518  0.0482  0.2154
44939W        W53739   0.788   2.996   3.463 -0.1252 -0.1394 -0.0825
44940W        W53740   9.668   6.241  31.880  0.1165  0.1599  0.2299
44941W        W53741   8.167   4.099  35.313 -0.0056  0.1022  0.2132
44942W        W53742   5.297   1.364  31.809  0.0913 -0.0649  0.0195
44943W        W53743   4.502   5.790   3.639  0.0678  0.0274  0.1701
44944W        W53744  11.239   2.856  13.046 -0.1212  0.2034  0.0507
44945W        W53745  10.777   5.038  31.263 -0.1357 -0.0556 -0.0562
44946W        W53746  11.952   3.857   4.956 -0.0610  0.3040 -0.1152
44947W        W53747   0.148   0.356  20.428 -0.3102 -0.3291 -0.0007
44948W        W53748  17.549   6.056  23.682  0.1433 -0.1292 -0.0246
44949W        W53749  21.137   4.423  26.531  0.0969  0.0517 -0.1828
44950W        W53750   6.456   4.586  11.202  0.1682  0.1620  0.2758
44951W        W53751   5.358   0.645  10.306  0.0599 -0.0032  0.0286
44952W        W53752   1.999   1.579   9.001 -0.2497  0.1704 -0.0366
44953W        W53753  22.867   4.384  28.702  0.0426 -0.0547  0.0183
44954W        W53754   1.215   4.580  15.332  0.1630  0.1916  0.0334
44955W        W53755  25.383   0.495  13.742 -0.0792 -0.1253  0.0871
44956W        W53756  15.724   4.117   8.666 -0.0029 -0.0490  0.1957
44957W        W53757  23.032   2.488  12.979 -0.1311 -0.3848 -0.1491
44958W        W53758  23.962   4.733  31.458 -0.0278 -0.0373 -0.0129
44959W        W53759  19.168   1.689   9.562  0.1727 -0.2386  0.1556
44960W        W53760   8.720   0.985   1.804  0.0665 -0.0120  0.1125
44961W        W53761   6.962   4.633  34.725 -0.0341 -0.0419 -0.0361
44962W        W53762  25.130   4.103  30.546  0.0427  0.0616 -0.0413
44963W        W53763   7.381   2.391  14.069  0.1571 -0.0928 -0.0450
44964W        W53764   6.611   4.117  33.955 -0.1660 -0.0526 -0.0729
44965W        W53765  11.113   3.822  25.433 -0.2257  0.0262 -0.2377
44966W        W53766  23.480   2.417   7.856  0.2059  0.4510  0.1958
44967W        W53767  13.533   5.146  32.388 -0.1292 -0.3248  0.1316
44968W        W53768  14.645   5.434  26.398  0.1734  0.1096  0.0813
44969W        W53769   2.443   1.665  15.420  0.1412  0.1499 -0.0763
44970W        W53770   6.013   2.733  30.817 -0.2094  0.2267  0.2011
44971W        W53771   4.877   3.650  21.542 -0.1244  0.0205 -0.0574
44972W        W53772   1.388   6.564  23.905  0.2293  0.1282  0.1887
44973W        W53773  26.142   3.717  26.381 -0.1422  0.0538  0.2288
44974W        W53774   8.543   0.090   7.019  0.0930  0.0224 -0.2624
44975W        W53775  10.419   3.057  33.120 -0.2627  0.1674 -0.3779
44976W        W53776  17.228   5.707  23.972  0.0045  0.0334 -0.2254
44977W        W53777  20.150   1.598  21.354  0.4622 -0.1467 -0.4862
44978W        W53778  24.548   1.530  21.631  0.3408 -0.1999 -0.1809
44979W        W53779   4.670   4.728  29.642  0.1843 -0.2679 -0.1861
44980W        W53780   0.453   2.836  23.920 -0.1876  0.0833 -0.1159
44981W        W53781  11.629   2.899  35.010  0.2550  0.1909  0.1313
44982W        W53782   5.154   1.944  24.784  0.0941  0.4920 -0.0057
44983W        W53783   5.156   0.929  14.576 -0.1305  0.3115 -0.0270
44984W        W53784   1.975   3.385   3.826 -0.1019 -0.2123  0.0899
44985W        W53785   1.732   3.664  34.851  0.3432 -0.0834 -0.0640
44986W        W53786  20.069   3.139  23.233 -0.2661  0.2084  0.0537
44987W        W53787  16.291   0.310  34.114 -0.1402 -0.0235  0.0278
44988W        W53788   5.589   0.598  35.651 -0.1796  0.0583 -0.0191
44989W        W53789  19.260   1.665   7.610  0.0342 -0.0169 -0.0468
44990W        W53790   1.626   4.020   2.724 -0.2518  0.0381  0.0827
44991W        W53791   6.304   5.579  35.382  0.0782 -0.0716 -0.0641
44992W        W53792   0.780   5.604  24.224 -0.0267  0.0636  0.2121
44993W        W53793  25.832   3.257  13.258 -0.1128  0.0015  0.1633
44994W        W53794  12.661   3.617  32.055 -0.0629  0.0906  0.1280
44995W        W53795  25.963   1.577   2.609 -0.1264  0.0344  0.1069
44996W        W53796  19.183   2.767  28.526 -0.1060 -0.1226  0.3812
44997W        W53797   7.895   5.202   7.588 -0.0562 -0.0833 -0.1013
44998W        W53798   8.095   4.096  30.899 -0.2205  0.2368 -0.0489
44999W        W53799  25.535   4.482  32.883  0.0158  0.0085 -0.1208
45000W        W53800  20.179   0.428  29.015  0.1240 -0.1577  0.2816
45001W        W53801  21.350   4.602  35.508 -0.0284 -0.0259 -0.0250
45002W        W53802  18.433   4.599  33.732  0.0718 -0.0445  0.0480
45003W        W53803  19.768   1.814   5.528  0.2271 -0.0870  0.2491
45004W        W53804  10.284   3.899  31.713  0.1114  0.0463  0.0981
45005W        W53805  22.739   5.394  29.144 -0.1728  0.0359  0.1005
45006W        W53806   9.824   0.209   3.394  0.1399 -0.0217  0.1088
45007W        W53807   1.966   0.267   6.057  0.0952  0.0122 -0.3473
45008W        W53808   6.050   0.328  22.385  0.0500 -0.2760  0.1038
45009W        W53809  11.672   2.500  11.089  0.0787  0.2908 -0.0399
45010W        W53810  11.052   5.050  12.589 -0.1947  0.1790  0.1303
45011W        W53811  17.897   5.303   7.239 -0.0954 -0.1442  0.0144
45012W        W53812  19.124   3.348  27.746 -0.0650 -0.5774 -0.0190
45013W        W53813   6.195   6.159   2.635  0.0306  0.1252  0.1520
45014W        W53814  10.594   0.425  35.212  0.1034  0.1337 -0.0568
45015W        W53815   0.481   3.411  25.122 -0.1093  0.1937  0.0724
45016W        W53816  13.176   5.696  27.197 -0.0378  0.0927  0.1633
45017W        W53817  19.334   6.012  12.616  0.1685 -0.3354  0.0004
45018W        W53818  16.015   1.846  23.923  0.3269 -0.2102  0.0668
45019W        W53819   9.953   2.648  34.426 -0.1050 -0.0191  0.0451
45020W        W53820   8.263   3.881   6.360 -0.1270  0.4072  0.4686
45021W        W53821   7.987   3.969  34.236  0.0652 -0.1148 -0.1557
45022W        W53822   7.549   5.672   5.431  0.1649 -0.1559  0.0663
45023W        W53823   9.693   2.352  32.753  0.1288 -0.0008  0.0273
45024W        W53824  12.747   2.277   9.658  0.1653  0.2118  0.0231
45025W        W53825  25.120   4.978  10.684 -0.0584 -0.0756 -0.1510
45026W        W53826  15.668   3.784   1.423  0.2106  0.0538 -0.1764
45027W        W53827   5.303   4.827  33.552  0.1439 -0.0885 -0.0131
45028W        W53828  10.797   3.632  28.467 -0.1003  0.1452 -0.1263
45029W        W53829  18.921   5.231  27.319 -0.0402  0.2666 -0.2576
45030W        W53830   8.961   0.053   8.936 -0.2463 -0.0052  0.0887
45031W        W53831  21.885   2.691   9.158  0.0931 -0.0894 -0.1763
45032W        W53832   0.250   1.901  10.127 -0.2232  0.0051 -0.2284
45033W        W53833  11.645   4.945  24.265 -0.0307 -0.0036 -0.3110
45034W        W53834   8.585   0.935   8.798 -0.0055 -0.0593 -0.0078
45035W        W53835  20.289   1.802  26.095 -0.0125  0.2719  0.0191
45036W        W53836  19.765   0.378  30.643 -0.0518 -0.4076 -0.1533
45037W        W53837  19.849   1.363   5.365  0.1428  0.2342 -0.0932
45038W        W53838  18.302   2.059  21.305 -0.1280 -0.3633  0.0540
45039W        W53839   6.416   1.817  28.034 -0.2609 -0.1860 -0.1137
45040W        W53840  15.454   6.133  15.341 -0.1814 -0.0964 -0.0169
45041W        W53841  22.490   6.410   7.091 -0.0317  0.1138 -0.1057
45042W        W53842   9.146   2.475   1.273  0.0518  0.2456  0.2591
45043W        W53843  11.588   5.831   5.384 -0.1323  0.0139  0.1044
45044W        W53844  19.064   5.217  22.944 -0.3647  0.3771  0.0548
45045W        W53845  24.318   3.483  27.434 -0.1409 -0.2668 -0.0383
45046W        W53846  25.954   3.537   2.704 -0.2479 -0.1949 -0.2401
45047W        W53847  17.895   2.462   8.050 -0.0246 -0.0616  0.1677
45048W        W53848  17.907   0.041  23.740  0.1452 -0.0997  0.0641
45049W        W53849   5.210   2.703  27.063  0.0102  0.2249  0.0237
45050W        W53850  17.725   0.858   2.445 -0.0467  0.1698  0.0422
45051W        W53851  24.798   2.476  25.120  0.1457  0.1884  0.0869
45052W        W53852  16.575   3.965   2.895 -0.1138  0.1768 -0.0536
45053W        W53853   5.516   5.631  28.472  0.0935  0.0991 -0.0453
45054W        W53854  13.727   5.304  31.306 -0.4300  0.1267 -0.2797
45055W        W53855   7.198   0.865  30.914  0.6192  0.3308 -0.0237
45056W        W53856  13.632   0.653  34.517  0.1858 -0.0901 -0.0455
45057W        W53857  13.968   5.695  25.094  0.0992  0.1083  0.0863
45058W        W53858   6.063   4.847   7.326  0.0208  0.0948 -0.4573
45059W        W53859   7.872   5.474  29.974  0.1876 -0.0691  0.0186
45060W        W53860  23.868   6.122   3.030  0.2743 -0.0617  0.3274
45061W        W53861  12.792   4.592  26.839  0.1313  0.2386  0.1052
45062W        W53862  24.826   0.462  14.716 -0.2183  0.1045 -0.0657
45063W        W53863   1.534   1.577  13.552 -0.1631  0.1983 -0.2067
45064W        W53864   7.143   4.971  26.223  0.2146  0.0387  0.0621
45065W        W53865  12.945   2.258  15.477 -0.1382  0.2505  0.1253
45066W        W53866  24.654   5.540  15.060  0.0839 -0.0669 -0.0037
45067W        W53867  25.876   5.324   5.794 -0.0880  0.1159  0.0259
45068W        W53868  13.277   6.514  13.119  0.0218 -0.2229 -0.1182
45069W        W53869  21.818   6.203  28.504 -0.0418  0.2349 -0.0158
45070W        W53870   4.428   6.254   8.804  0.1671 -0.2218  0.1766
45071W        W53871  20.174   1.783  32.410  0.0279  0.0735 -0.0897
45072W        W53872  22.049   6.292   1.492 -0.2121  0.0969 -0.1065
45073W        W53873   0.940   2.479  10.410 -0.0741 -0.4124 -0.0204
45074W        W53874   5.376   6.182  23.171  0.1213 -0.0591 -0.2105
45075W        W53875   9.999   6.417  10.393  0.0146  0.0742  0.0235
45076W        W53876   1.002   2.311  11.500 -0.0516 -0.0292  0.0678
45077W        W53877  26.318   2.502   0.978  0.2182 -0.1936 -0.0252
45078W        W53878   7.946   1.754  23.977  0.0859 -0.3665  0.3311
45079W        W53879   0.597   0.258  13.553  0.0404 -0.0364  0.3476
45080W        W53880   2.186   1.887   2.427 -0.0432 -0.1472 -0.0561
45081W        W53881   1.639   3.293  12.779 -0.2983 -0.1171  0.1238
45082W        W53882   6.730   2.053  27.724 -0.3156  0.3536 -0.2980
45083W        W53883  10.754   3.580  13.844  0.0694  0.1348  0.4234
45084W        W53884  19.087   0.435  22.119  0.2228 -0.2753 -0.2721
45085W        W53885  15.585   5.312  26.242 -0.0861 -0.1376 -0.4431
45086W        W53886   3.781   6.110  34.014  0.3949 -0.0507 -0.1080
45087W        W53887   6.082   4.037  30.818 -0.0966  0.2724  0.3581
45088W        W53888  12.953   5.711  14.667  0.0081 -0.0845 -0.1717
45089W        W53889  22.483   2.717  25.875 -0.1165 -0.1634 -0.3510
45090W        W53890  19.055   2.378  29.725  0.0763  0.0594  0.0837
45091W        W53891   5.914   6.462  33.129 -0.4308  0.0683 -0.0232
45092W        W53892  10.035   0.982   2.267 -0.1720  0.2689 -0.1689
45093W        W53893  24.627   5.858  29.330  0.0809  0.2586 -0.0934
45094W        W53894   0.021   6.151  23.618 -0.2134  0.3568 -0.1880
45095W        W53895   7.940   3.547   2.347 -0.1041 -0.1971 -0.1400
45096W        W53896   1.707   1.091   7.076  0.0337 -0.1862 -0.1518
45097W        W53897   8.978   6.081  29.408  0.0267  0.1674  0.1396
45098W        W53898   1.966   2.342  20.666 -0.0358 -0.0655 -0.1097
45099W        W53899  18.596   4.131  32.628  0.1690 -0.3503  0.0436
45100W        W53900   1.642   3.874  22.342  0.1104  0.1261  0.0952
45101W        W53901   3.921   5.104   2.444  0.3628  0.0163 -0.3036
45102W        W53902   6.910   2.300  14.288  0.0779 -0.0460  0.0756
45103W        W53903  10.595   2.248  24.520  0.2545  0.2810  0.1191
45104W        W53904   3.796   3.119  23.553  0.0205 -0.1604  0.6234
45105W        W53905  10.951   6.175  14.654 -0.1750  0.1844  0.3803
45106W        W53906  11.672   4.897   1.284  0.1400  0.0350  0.2451
45107W        W53907   2.173   6.193  14.336 -0.0533 -0.3911 -0.3229
45108W        W53908   2.141   5.845   3.152  0.0890  0.2605 -0.1832
45109W        W53909   5.410   2.140   9.934 -0.2017  0.0555 -0.3086
45110W        W53910   1.498   2.432  21.676  0.4173  0.0135  0.4021
45111W        W53911   2.219   1.519  24.929  0.0990 -0.0779 -0.2318
45112W        W53912   6.837   3.576  34.385 -0.0335 -0.1890 -0.0155
45113W        W53913  13.480   1.899   0.955 -0.1357 -0.1629  0.3333
45114W        W53914   5.839   6.331  21.473 -0.2186 -0.0709 -0.1105
45115W        W53915  17.266   2.133  24.392  0.3232  0.1959  0.0148
45116W        W53916  15.668   3.676  21.324 -0.0742  0.0097 -0.2845
45117W        W53917  21.875   0.817  34.042 -0.1561 -0.3431  0.0023
45118W        W53918  11.561   1.630  22.680 -0.0593 -0.0187 -0.0761
45119W        W53919  22.268   4.745   5.156  0.0349  0.1368  0.1410
45120W        W53920  19.256   0.865  31.786  0.0249 -0.1516 -0.0678
45121W        W53921  16.498   1.623  21.207  0.1730  0.2170 -0.2225
45122W        W53922   0.503   2.259  29.646  0.0016  0.1642 -0.1402
45123W        W53923  25.927   2.598  33.182  0.2031 -0.0576  0.0109
45124W        W53924   6.966   1.956  28.735  0.2436  0.0034 -0.2725
45125W        W53925  11.595   4.076  28.288  0.2384  0.1769 -0.0220
45126W        W53926   2.951   0.784  10.465  0.0784  0.2701  0.2368
45127W        W53927  10.354   0.399  25.422  0.0203  0.1011 -0.0378
45128W        W53928  10.365   6.264  24.036  0.0753 -0.4020 -0.1549
45129W        W53929  22.459   5.897   3.432  0.2454  0.0073 -0.0718
45130W        W53930  14.637   5.906   9.428  0.0984 -0.0171  0.2911
45131W        W53931  25.798   4.796   3.979 -0.2086  0.2790  0.0620
45132W        W53932  10.745   1.896  22.415  0.1425 -0.4585  0.2094
45133W        W53933   3.929   3.043   5.023  0.1764  0.2850  0.2347
45134W        W53934   5.470   2.312  24.733 -0.0380  0.2163  0.0656
45135W        W53935   3.228   5.714  27.167  0.3268 -0.0124  0.2106
45136W        W53936  16.278   2.183  31.528 -0.0560 -0.1367  0.0174
45137W        W53937   5.465   1.621   1.073 -0.0455  0.0131 -0.1709
45138W        W53938   6.442   3.771  34.758 -0.0337  0.0382 -0.1814
45139W        W53939  22.384   0.135  26.006 -0.2451  0.0422  0.2739
45140W        W53940   3.888   4.953   7.843 -0.2536  0.0821 -0.1626
45141W        W53941  20.508   1.182  35.531 -0.0277  0.0564 -0.1708
45142W        W53942  19.209   2.338  30.758 -0.3547  0.0105  0.1184
45143W        W53943  13.376   0.251  28.596 -0.0099 -0.1394 -0.1104
45144W        W53944   0.845   6.324  14.329 -0.1125  0.1797  0.0278
45145W        W53945  14.919   3.046   7.809 -0.0499  0.0191  0.0318
45146W        W53946   0.588   4.729  10.493 -0.3921  0.0611 -0.1233
45147W        W53947  18.528   1.350  12.031 -0.0414 -0.2548  0.4660
45148W        W53948  23.734   2.224   4.987  0.0104  0.0956  0.2947
45149W        W53949   2.062   5.320  22.403  0.2297 -0.0690 -0.1698
45150W        W53950  22.862   2.631  11.412  0.0981  0.2035 -0.4120
45151W        W53951  24.105   2.871  13.882 -0.0577  0.0091 -0.2626
45152W        W53952  10.427   2.940  11.164  0.1236  0.0594 -0.0586
45153W        W53953   4.681   0.236  34.329  0.2890  0.1010 -0.1692
45154W        W53954  25.285   2.923  14.076 -0.1642  0.0956 -0.0565
45155W        W53955   8.798   4.345  25.091  0.2272  0.1848  0.1086
45156W        W53956  15.295   6.155  24.449 -0.2003  0.0771  0.2775
45157W        W53957  18.678   5.963  25.265  0.2605  0.1699  0.0607
45158W        W53958   0.387   5.784   4.084  0.1257  0.1690 -0.2128
45159W        W53959   5.248   5.862  30.984  0.2546  0.2344  0.0012
45160W        W53960  13.813   4.588  21.906 -0.3615  0.1612 -0.2011
45161W        W53961   2.479   4.199  26.842  0.1388 -0.1553 -0.5313
45162W        W53962   0.394   2.614  29.312  0.0799 -0.2445 -0.0954
45163W        W53963  24.717   4.123  31.192 -0.0780 -0.0482  0.1303
45164W        W53964   4.711   1.072   3.092 -0.0111 -0.0052 -0.0517
45165W        W53965  25.037   4.769  12.110  0.1375 -0.2456  0.0106
45166W        W53966  12.277   5.998  36.002 -0.1809 -0.1176  0.1763
45167W        W53967  23.879   4.242  26.519 -0.2004 -0.0348 -0.0890
45168W        W53968   9.284   4.179  33.037  0.0942 -0.2318  0.0540
45169W        W53969   9.526   6.208  34.641 -0.0931  0.0094 -0.0022
45170W        W53970   0.970   2.171  23.248 -0.2929  0.1079 -0.2140
45171W        W53971  26.235   1.393   2.243 -0.0244  0.0649  0.0764
45172W        W53972   7.445   5.358  12.402 -0.1201 -0.2531  0.1507
45173W        W53973  16.741   2.871   1.035  0.0777 -0.1437  0.0624
45174W        W53974  11.607   4.938   9.935 -0.1010  0.0282  0.0259
45175W        W53975  24.008   3.997  13.245  0.1538  0.0895  0.0017
45176W        W53976   5.815   2.539   4.807 -0.1256 -0.1827 -0.0312
45177W        W53977  15.030   4.402  15.476 -0.1720 -0.1561 -0.0954
45178W        W53978   6.603   3.926   6.195 -0.0931 -0.0643  0.2591
45179W        W53979   6.275   6.156  12.758  0.1223 -0.0232 -0.3836
45180W        W53980   0.037   2.128   9.728 -0.1021 -0.1573 -0.1643
45181W        W53981  15.797   0.476  29.274  0.1464 -0.0331  0.1250
45182W        W53982  22.062   6.363  25.735  0.0834  0.3503 -0.2592
45183W        W53983   0.713   3.199  20.251  0.2291  0.2353  0.0460
45184W        W53984   5.493   0.280  31.917  0.1294 -0.1050 -0.0951
45185W        W53985  14.300   3.134  11.222 -0.1793  0.0212  0.2826
45186W        W53986  11.501   1.899   6.245  0.2826 -0.3556  0.3318
45187W        W53987  19.919   2.904  30.794  0.1487 -0.0625  0.0922
45188W        W53988   4.486   1.731   6.696 -0.0820 -0.1275  0.2813
45189W        W53989   0.017   5.056  32.385  0.0720 -0.0210 -0.3012
45190W        W53990  19.326   1.807  33.553 -0.2334  0.2134 -0.1936
45191W        W53991   2.511   6.206  35.699  0.0900 -0.0305  0.3431
45192W        W53992  18.326   4.302  29.797  0.0601  0.2571  0.3133
45193W        W53993   7.062   6.270  11.623  0.0292 -0.2021  0.2205
45194W        W53994   4.204   4.685  31.610  0.1909 -0.4334  0.2975
45195W        W53995  10.560   6.304  27.686 -0.0615 -0.0583 -0.0078
45196W        W53996  21.887   6.526   8.946  0.1414  0.3396 -0.2277
45197W        W53997   4.711   4.707  31.931 -0.0166  0.0481  0.0543
45198W        W53998  10.527   4.758  23.448  0.0006 -0.0541  0.2715
45199W        W53999   9.123   3.764  22.931 -0.1782  0.0874  0.2273
45200W        W54000  11.525   4.277  35.708 -0.0304  0.0627 -0.2257
45201W        W54001  16.992   0.813  33.760  0.1988  0.0459  0.0564
45202W        W54002  19.670   0.458   9.192  0.4846  0.0102  0.1916
45203W        W54003   3.230   3.111  30.443  0.1078 -0.0428 -0.0561
45204W        W54004   3.984   0.898  24.993 -0.0685  0.1627 -0.1766
45205W        W54005  10.261   5.701  13.109 -0.1535  0.3620 -0.0261
45206W        W54006  20.904   6.003  35.031 -0.2854 -0.1216  0.0371
45207W        W54007   8.512   3.947   7.045 -0.1650  0.3632  0.1906
45208W        W54008  13.308   4.368  35.329  0.2095  0.0284  0.1531
45209W        W54009  15.737   2.105  13.142  0.0748 -0.0876  0.1102
45210W        W54010  15.099   4.215  13.992  0.2246  0.1558 -0.1245
45211W        W54011  10.576   4.195  14.626 -0.2034 -0.2353 -0.1266
45212W        W54012   4.808   1.570   3.243  0.0780 -0.1278 -0.0933
45213W        W54013  18.661   0.669  22.264  0.0369  0.0485 -0.0068
45214W        W54014  24.942   2.874  23.492 -0.1108  0.0800  0.2176
45215W        W54015   0.971   2.883  27.530 -0.1518  0.0170  0.0562
45216W        W54016   3.511   4.910   1.916 -0.3998  0.0178 -0.0818
45217W        W54017  15.187   3.699  21.107 -0.1321 -0.2695  0.0145
45218W        W54018  19.498   0.117  35.708  0.1860  0.0799 -0.0412
45219W        W54019  11.019   1.070   9.118 -0.0841  0.1447  0.3903
45220W        W54020   3.131   0.203   0.747  0.0406 -0.1909  0.1136
45221W        W54021  12.983   4.834  33.751  0.0790 -0.1215  0.1173
45222W        W54022   6.854   6.589  35.733 -0.0375 -0.1454  0.1728
45223W        W54023  23.661   5.353  34.726  0.0341 -0.1818 -0.3353
45224W        W54024   4.606   1.987  33.350 -0.2255 -0.2523  0.0664
45225W        W54025  16.423   4.751  24.242  0.0744 -0.0826 -0.1708
45226W        W54026   7.762   1.844   1.706  0.0876 -0.2532 -0.0530
45227W        W54027  21.389   4.258  13.487 -0.1381 -0.1089  0.1257
45228W        W54028  10.070   4.382   5.230  0.2328 -0.1909  0.0163
45229W        W54029  10.357   4.274   7.509  0.1448 -0.2222  0.1487
45230W        W54030   6.794   3.459  25.154 -0.1225  0.2358 -0.0318
45231W        W54031  17.446   4.344  20.725  0.0820  0.0937  0.0338
45232W        W54032   0.360   4.738  24.428  0.2206 -0.2773 -0.0566
45233W        W54033  12.553   4.913  30.132 -0.1940  0.0496  0.0933
45234W        W54034  25.816   0.975  13.316  0.1513  0.1162 -0.0804
45235W        W54035  11.289   5.567  22.517 -0.1747  0.1219  0.1088
45236W        W54036  24.566   0.301  28.795 -0.0978  0.2138  0.0216
45237W        W54037   5.017   3.929  26.454  0.0738  0.1236 -0.3029
45238W        W54038  19.859   1.076   2.198  0.1290  0.0167 -0.0109
45239W        W54039  12.619   0.866   7.645 -0.0259  0.0566  0.3095
45240W        W54040   4.006   1.522  30.939 -0.0008 -0.0134 -0.0538
45241W        W54041   4.376   5.776   8.708  0.2541 -0.1623 -0.2403
45242W        W54042  22.720   2.785  21.970  0.1637  0.2433  0.0900
45243W        W54043  11.532   2.263  28.551  0.0110  0.0616 -0.3218
45244W        W54044  18.174   2.662   3.732 -0.1700  0.0412 -0.0301
45245W        W54045  23.411   2.616  24.093  0.1023  0.2118 -0.1304
45246W        W54046  16.009   1.775  27.755  0.0644 -0.2767  0.1155
45247W        W54047  24.280   4.947  10.547  0.1100 -0.3567  0.3377
45248W        W54048  18.198   1.467  25.671 -0.1698  0.2253 -0.0108
45249W        W54049  23.305   4.238  28.628  0.3361  0.4142 -0.0405
45250W        W54050  22.352   3.061  23.618 -0.2141 -0.1205 -0.1071
45251W        W54051   1.930   1.357  34.592  0.0286 -0.0777  0.0196
45252W        W54052  18.308   6.011   6.688 -0.1212  0.1669  0.1608
45253W        W54053  10.839   3.575  12.146 -0.3100 -0.0167  0.0144
45254W        W54054  23.245   4.605  11.317  0.1092 -0.1396 -0.0557
45255W        W54055  15.322   1.169  22.590 -0.1172 -0.1768 -0.0212
45256W        W54056  17.775   0.729  30.395 -0.0333  0.2473  0.0524
45257W        W54057  10.934   3.464  31.752  0.1207 -0.1667  0.0741
45258W        W54058   5.535   2.127  30.342  0.1952 -0.1140 -0.0595
45259W        W54059  17.143   0.803  31.893  0.0681 -0.1291  0.1861
45260W        W54060  22.205   6.350  35.620  0.1828 -0.0248 -0.3183
45261W        W54061   7.035   0.315  26.519  0.1321  0.0224 -0.2427
45262W        W54062   0.674   2.300  24.768 -0.0071 -0.3405  0.0592
45263W        W54063  24.135   1.333  31.026  0.0933 -0.0906  0.2282
45264W        W54064  13.923   3.541   7.437  0.1647  0.1367  0.1662
45265W        W54065  17.856   1.259  24.293 -0.0128 -0.0716  0.2573
45266W        W54066  21.875   5.776   2.110 -0.2615 -0.0431  0.2365
45267W        W54067  15.317   1.124  31.792 -0.0037 -0.0826  0.0299
45268W        W54068   9.912   3.468   0.379 -0.1759  0.2557  0.0103
45269W        W54069   4.282   0.762  14.111 -0.1648 -0.1476 -0.3236
45270W        W54070  12.612   5.292  24.291  0.0177 -0.1019  0.1194
45271W        W54071  14.268   5.744  22.705 -0.2692  0.0206  0.4476
45272W        W54072   5.253   2.682  24.392 -0.1729 -0.0405  0.2557
45273W        W54073  18.837   4.992  24.488  0.1338 -0.0434  0.1245
45274W        W54074   7.131   3.801  28.986 -0.0694 -0.0273 -0.2699
45275W        W54075  13.713   2.507  11.305  0.0250 -0.1089 -0.2529
45276W        W54076  21.996   3.777  28.116 -0.2833 -0.0493 -0.1442
45277W        W54077  13.442   2.712  13.288  0.0294  0.0442 -0.1430
45278W        W54078   2.879   3.106   6.429  0.1915  0.3520 -0.0852
45279W        W54079   5.968   3.919  15.941  0.2823 -0.1407 -0.2072
45280W        W54080  14.130   2.321  30.583 -0.0365 -0.0553 -0.1087
45281W        W54081   0.032   2.986  11.547  0.0896 -0.1544  0.3171
45282W        W54082  24.418   3.002   0.128 -0.0047  0.1806  0.0104
45283W        W54083  25.538   1.326  25.514 -0.0006 -0.1977  0.0042
45284W        W54084   8.289   1.662  32.211  0.0076 -0.2522 -0.1734
45285W        W54085  18.310   3.263   6.981 -0.1061 -0.1303 -0.0435
45286W        W54086   7.185   4.864   1.683 -0.2680  0.0130  0.0529
45287W        W54087  14.110   0.813  35.205  0.1760  0.1184 -0.3273
45288W        W54088  15.683   0.783  10.049  0.0047 -0.1008 -0.0754
45289W        W54089  20.556   5.126  25.052  0.2542  0.0180  0.2435
45290W        W54090   7.087   3.646   1.954  0.0538  0.1067  0.2556
45291W        W54091  16.806   1.057  34.164 -0.0510 -0.2078 -0.0744
45292W        W54092   7.568   2.668   7.496 -0.1322  0.0641 -0.0713
45293W        W54093   2.394   0.221  25.551 -0.2854 -0.3211  0.1425
45294W        W54094  21.187   2.979  34.077  0.3028 -0.0596 -0.2318
45295W        W54095  23.538   3.377  12.517 -0.0381 -0.1579  0.2421
45296W        W54096   6.032   1.953  13.464  0.0390  0.1272  0.0112
45297W        W54097  24.200   2.347   9.586 -0.0606 -0.0543 -0.1373
45298W        W54098  12.137   6.203   9.445  0.1148 -0.1905  0.0261
45299W        W54099  16.863   4.582  21.543 -0.2304  0.1387 -0.0358
45300W        W54100  18.167   5.144  22.687  0.0071 -0.0189 -0.2379
45301W        W54101  12.039   4.051  28.082  0.2935  0.0081 -0.0113
45302W        W54102  22.258   1.722   9.863 -0.0492  0.1050 -0.0238
45303W        W54103   8.980   5.713  13.187 -0.0006  0.2781  0.0030
45304W        W54104  18.084   0.948  21.975  0.2024 -0.1846  0.1330
45305W        W54105   5.707   0.765   5.103  0.1059 -0.1911  0.0165
45306W        W54106  22.273   6.587   6.162  0.1845 -0.2265 -0.2033
45307W        W54107  16.060   3.034  15.554 -0.3776 -0.0807 -0.0482
45308W        W54108  16.797   4.709  23.378  0.1147 -0.1385 -0.1540
45309W        W54109  22.771   1.322  20.541  0.1881  0.1993 -0.0643
45310W        W54110  25.363   0.674  23.791  0.0218  0.0605 -0.1369
45311W        W54111  22.854   1.405  28.735 -0.0381 -0.3939 -0.1477
45312W        W54112  10.446   5.986  10.183 -0.0312  0.0261 -0.0831
45313W        W54113  13.265   4.158  25.395  0.1909 -0.0481 -0.0745
45314W        W54114   7.126   6.031  20.734  0.0832 -0.3103 -0.2788
45315W        W54115   7.389   1.777  30.946 -0.2476 -0.0731  0.1490
45316W        W54116  11.213   5.442  28.746 -0.2206 -0.2706  0.0064
45317W        W54117   4.249   1.340  22.659  0.2666  0.2468  0.1975
45318W        W54118  22.528   4.196   8.996  0.2896  0.0042 -0.1199
45319W        W54119  11.092   0.303   6.636 -0.0423  0.0122 -0.3188
45320W        W54120   9.942   5.480   5.579  0.1394 -0.1067 -0.1160
45321W        W54121   2.098   6.321  25.546  0.2103  0.0569 -0.0419
45322W        W54122  11.044   5.739  10.850 -0.1630  0.0791 -0.0746
45323W        W54123   2.723   4.976   3.159 -0.3093 -0.1728  0.1268
45324W        W54124   1.798   6.274  11.047 -0.0268  0.2684  0.3088
45325W        W54125  22.677   3.296  22.228 -0.0536  0.0718 -0.0133
45326W        W54126  16.138   4.560  32.226  0.0233 -0.2038 -0.0073
45327W        W54127  22.583   0.178  22.684  0.0988  0.2860 -0.0982
45328W        W54128   5.763   5.783  31.578 -0.0497  0.1205 -0.2790
45329W        W54129  20.306   4.056  20.211  0.0053 -0.0832  0.0200
45330W        W54130   1.096   1.259  27.631  0.0888  0.0802 -0.2381
45331W        W54131  12.382   0.854   4.556 -0.1916  0.0085 -0.2202
45332W        W54132  22.994   2.360  13.466 -0.0115  0.1190  0.1669
45333W        W54133   7.582   0.086  14.640 -0.2810 -0.1232  0.1274
45334W        W54134   7.198   2.862   0.417 -0.0916  0.2980  0.1265
45335W        W54135  24.604   0.659   7.853 -0.0709 -0.0608  0.0404
45336W        W54136   4.174   4.611  21.141  0.0916  0.4529 -0.2625
45337W        W54137  16.667   4.044  35.886  0.4924 -0.1719  0.0548
45338W        W54138  15.475   2.200  34.989 -0.0915 -0.0494 -0.1860
45339W        W54139  10.795   1.915  31.019  0.3175 -0.1986  0.2879
45340W        W54140   8.679   5.741  35.315 -0.0175 -0.0036 -0.4245
45341W        W54141  16.000   3.889  27.205  0.3140 -0.0854 -0.0772
45342W        W54142  26.359   2.000  14.844 -0.2361 -0.0704 -0.0720
45343W        W54143  15.293   1.191  26.687  0.1817 -0.0087  0.0504
45344W        W54144  24.663   5.529  31.156 -0.3348  0.0349  0.0059
45345W        W54145   7.752   5.342  32.512 -0.1638 -0.3020  0.1626
45346W        W54146   6.363   1.014   9.283 -0.3003  0.1916  0.2540
45347W        W54147  22.002   0.850  21.157  0.0541  0.2731  0.3986
45348W        W54148  20.309   2.489  28.677  0.0036 -0.0905 -0.2249
45349W        W54149   0.034   4.321  28.689  0.0000 -0.7258 -0.2901
45350W        W54150  12.152   1.951   5.698 -0.2151 -0.2405  0.1694
45351W        W54151  13.566   3.883  15.750  0.3118  0.1291 -0.1835
45352W        W54152  23.808   4.856  34.706  0.3075  0.2384 -0.2891
45353W        W54153  19.551   5.886   4.723  0.0671 -0.0403  0.0889
45354W        W54154  16.123   3.166  31.920 -0.0249 -0.3867 -0.1781
45355W        W54155  18.036   4.326  28.245 -0.0786  0.1356 -0.0484
45356W        W54156   8.425   3.281  33.560 -0.5182 -0.0620 -0.1414
45357W        W54157   9.308   4.309  20.941 -0.0420  0.0481 -0.0154
45358W        W54158  11.530   2.388   6.392  0.1334 -0.1289  0.0469
45359W        W54159  26.154   1.958   4.814  0.0967 -0.0164 -0.0795
45360W        W54160  18.226   3.899  24.193 -0.5273  0.0199 -0.0558
45361W        W54161  12.364   3.611  22.464 -0.0167 -0.0410 -0.1777
45362W        W54162  14.021   4.067   9.344 -0.1196 -0.1691  0.1296
45363W        W54163  11.645   2.347  34.114 -0.0210  0.1356  0.0792
45364W        W54164  20.086   6.055  21.634  0.1272 -0.0248 -0.1287
45365W        W54165   6.202   4.735   5.198  0.0182  0.2445  0.1002
45366W        W54166   6.822   5.249   5.117 -0.3786  0.2976 -0.1744
45367W        W54167   6.791   6.358  27.330  0.1424 -0.0905 -0.2443
45368W        W54168   7.836   2.139  33.213  0.0620 -0.1305  0.1196
45369W        W54169   7.979   4.711  36.039 -0.0590  0.0237 -0.2239
45370W        W54170  26.375   2.191  23.879 -0.0216  0.1300 -0.3340
45371W        W54171  14.997   2.570  15.103 -0.0852  0.1218  0.2102
45372W        W54172   4.313   3.649   5.658  0.4062 -0.5174 -0.3670
45373W        W54173  14.023   4.923   8.854 -0.0371  0.0503  0.0140
45374W        W54174  10.456   1.206   2.887 -0.3136  0.0101 -0.0129
45375W        W54175  11.720   5.709  33.265 -0.0288  0.0980  0.2696
45376W        W54176  16.884   0.766  23.580 -0.2006 -0.0151 -0.0175
45377W        W54177   0.164   4.737  13.513  0.0428  0.0356 -0.0499
45378W        W54178  18.431   1.086  22.938  0.1931  0.0701  0.1695
45379W        W54179  18.557   3.005  24.281  0.0544  0.5431 -0.0809
45380W        W54180   3.803   2.217  26.198 -0.1803 -0.5591  0.0097
45381W        W54181  16.260   6.131  33.445 -0.2505 -0.1226  0.1476
45382W        W54182  10.863   0.621  26.279 -0.0961  0.1946 -0.0769
45383W        W54183  20.093   1.397  31.590 -0.0940 -0.1074  0.1882
45384W        W54184  11.230   0.798  29.242 -0.0807  0.0160  0.2303
45385W        W54185   8.986   1.953  10.787 -0.2817 -0.0377  0.0618
45386W        W54186   1.450   5.057   5.217 -0.2614 -0.0858 -0.0832
45387W        W54187  15.198   6.273  23.134 -0.2013  0.1806 -0.1909
45388W        W54188   0.575   2.600  32.389  0.0168 -0.0833  0.0572
45389W        W54189  25.886   5.175   0.223  0.2251 -0.2230 -0.1407
45390W        W54190  14.405   2.013  10.490  0.1697 -0.0783 -0.0784
45391W        W54191  20.351   4.387   6.512  0.2430 -0.1677 -0.1817
45392W        W54192   2.259   2.405  35.876 -0.0933 -0.2247 -0.3778
45393W        W54193  23.626   4.172  35.528  0.0789  0.0747  0.2471
45394W        W54194  16.595   1.942  21.694  0.1857 -0.1093  0.1106
45395W        W54195  20.426   4.084   9.854  0.0609 -0.2098  0.0841
45396W        W54196  24.393   5.884  23.820 -0.1244  0.0022  0.0582
45397W        W54197  23.281   4.798  14.650 -0.0891 -0.1304  0.2191
45398W        W54198   7.247   4.976  30.605  0.0963  0.0432  0.1967
45399W        W54199  22.032   0.428  20.900 -0.0905 -0.2211  0.1742
45400W        W54200   7.961   2.214   9.082  0.3832 -0.2003  0.1449
45401W        W54201   1.822   0.068  27.257 -0.2530  0.1007  0.0569
45402W        W54202   5.016   4.429  35.997  0.1103  0.2757 -0.1232
45403W        W54203   4.917   4.346  27.900  0.0431 -0.0273 -0.0764
45404W        W54204  19.747   1.507  13.275  0.2610  0.4111 -0.0846
45405W        W54205   3.674   2.778  13.220 -0.1843  0.3635 -0.0594
45406W        W54206  10.251   0.999  10.058  0.2373  0.1675  0.0487
45407W        W54207   5.765   2.691   1.163 -0.1000  0.4725 -0.1299
45408W        W54208  24.188   4.655  28.295 -0.2938 -0.1905  0.0499
45409W        W54209  13.305   3.878  31.344 -0.1571  0.1295  0.1563
45410W        W54210  10.184   2.457   8.647  0.3794 -0.1875 -0.1071
45411W        W54211   6.495   5.156   7.282 -0.1172  0.0675 -0.2694
45412W        W54212   2.637   1.934  27.177  0.0656 -0.2460 -0.0509
45413W        W54213  11.089   4.303  35.372  0.3045 -0.2541  0.0904
45414W        W54214   1.963   3.365  12.029  0.0986 -0.2641  0.1228
45415W        W54215   3.039   1.665   4.315 -0.0251  0.1941  0.0620
45416W        W54216  17.477   5.048   6.204 -0.2261 -0.0604 -0.1433
45417W        W54217  14.625   6.517  31.994 -0.0066 -0.0866 -0.0983
45418W        W54218  11.452   2.297  32.429  0.4977 -0.0128  0.6411
45419W        W54219   5.734   0.722   9.580 -0.0588 -0.0601 -0.0798
45420W        W54220   0.844   4.328  34.556 -0.0239 -0.1496 -0.0574
45421W        W54221   0.510   5.025  21.023  0.0405  0.1829 -0.1185
45422W        W54222  19.701   0.644  34.197 -0.1042  0.0624 -0.0188
45423W        W54223  10.542   0.609  21.230 -0.1398 -0.1087 -0.1714
45424W        W54224  14.545   2.065   7.163  0.2364 -0.0631  0.1067
45425W        W54225   6.037   5.714   1.398 -0.2034  0.0218 -0.2345
45426W        W54226   8.687   0.090   5.390  0.2776  0.0075  0.2054
45427W        W54227  12.224   1.644   3.137 -0.0381 -0.0452 -0.1040
45428W        W54228   7.044   3.698   6.214  0.0988 -0.0026 -0.0026
45429W        W54229  16.550   4.717  15.264  0.1872 -0.2394  0.0183
45430W        W54230  25.288   2.592  27.683 -0.0723 -0.3010 -0.0664
45431W        W54231  17.646   4.749  31.904 -0.1845  0.0787 -0.2980
45432W        W54232  15.389   5.418  26.694 -0.1200  0.2561 -0.1112
45433W        W54233   5.207   3.668  27.289 -0.1995  0.0482 -0.2128
45434W        W54234   1.398   0.509  30.932  0.0980  0.0615 -0.2030
45435W        W54235   6.365   2.184  29.499 -0.0720 -0.1244  0.2232
45436W        W54236  17.474   3.273  34.351 -0.2031 -0.2458 -0.2546
45437W        W54237   6.263   2.803  14.766 -0.0428  0.1854  0.0197
45438W        W54238  25.422   3.757  14.327  0.0789  0.3307 -0.0591
45439W        W54239  23.677   2.083   2.902 -0.2410 -0.0537 -0.0783
45440W        W54240   2.899   2.450  29.238 -0.1715  0.0928  0.2444
45441W        W54241  10.668   6.245  20.685  0.0426 -0.1937  0.4276
45442W        W54242   9.579   0.887  20.844  0.0527 -0.0795  0.1679
45443W        W54243  23.893   3.466  32.948  0.2446  0.1808 -0.1541
45444W        W54244   3.078   1.643   2.231 -0.0253  0.1663  0.5591
45445W        W54245   7.477   0.211  20.997  0.0288  0.3341 -0.0656
45446W        W54246   9.454   2.032   3.579  0.3309 -0.0033 -0.0302
45447W        W54247  13.890   6.561   0.626 -0.1917 -0.0779  0.0753
45448W        W54248  10.660   1.169  30.784  0.3639 -0.2273 -0.0768
45449W        W54249  18.821   3.920  33.537  0.0667 -0.3020 -0.0666
45450W        W54250   0.736   2.056   3.783 -0.0707 -0.2732  0.0459
45451W        W54251   3.031   5.914  30.029 -0.0809 -0.2309 -0.0649
45452W        W54252   9.637   6.360  23.817  0.0445 -0.0412 -0.2036
45453W        W54253  16.243   5.195  15.108 -0.2317  0.1535  0.0569
45454W        W54254  25.412   4.189  11.350  0.0064 -0.2041  0.2022
45455W        W54255  11.865   1.261  34.919  0.0222 -0.3946 -0.0980
45456W        W54256  26.364   1.598   7.445  0.0783  0.0308  0.2050
45457W        W54257  18.429   4.976   1.974 -0.0179  0.1863  0.2130
45458W        W54258  24.460   0.477  22.841 -0.2761 -0.2245 -0.0860
45459W        W54259   2.899   3.226   4.847  0.0981  0.2327 -0.1981
45460W        W54260  10.969   4.665  24.805  0.3745 -0.2937  0.3771
45461W        W54261  12.640   3.606   9.369 -0.1167  0.2562  0.0857
45462W        W54262  20.914   0.777   9.014 -0.3092  0.0921  0.0305
45463W        W54263  16.565   5.424  12.602 -0.1004  0.0234  0.0250
45464W        W54264  10.291   2.392  10.352  0.3597 -0.1395 -0.1050
45465W        W54265  17.385   5.989  13.235  0.2214  0.0282  0.0707
45466W        W54266  23.166   5.264  25.294  0.0620 -0.1484  0.2592
45467W        W54267  22.534   6.173   5.618  0.0354 -0.1055  0.0865
45468W        W54268   9.690   1.542  20.378  0.1255  0.1582  0.0694
45469W        W54269  17.075   4.233  26.860 -0.0087 -0.0050 -0.0043
45470W        W54270   9.513   0.694   5.262 -0.1080  0.0056  0.1116
45471W        W54271   3.730   2.111  35.079  0.2235  0.4009  0.2497
45472W        W54272   3.466   5.947   6.477 -0.0246 -0.3203  0.1636
45473W        W54273  24.762   6.365  11.193 -0.3131  0.0656 -0.3087
45474W        W54274   4.570   2.433   6.054 -0.2881  0.2379 -0.3237
45475W        W54275  19.714   2.920  11.183 -0.1158 -0.2687  0.1043
45476W        W54276   9.325   6.094  35.902  0.0447  0.0301  0.2470
45477W        W54277  24.360   1.694  10.705 -0.0635 -0.1964 -0.1613
45478W        W54278  21.372   3.434   7.008 -0.2537 -0.0400 -0.0700
45479W        W54279  24.272   1.056  29.318  0.1389  0.1151 -0.1503
45480W        W54280   0.915   3.361  33.211 -0.1131 -0.1546 -0.0998
45481W        W54281   9.082   0.075  10.620  0.2027 -0.3572 -0.0250
45482W        W54282  18.155   3.140  13.417 -0.0904  0.1816 -0.0555
45483W        W54283   2.646   1.014  32.665  0.0177 -0.1958 -0.2238
45484W        W54284  10.686   0.735  15.423  0.2162 -0.3297 -0.0276
45485W        W54285  13.424   3.375  26.429  0.0306  0.2189  0.1008
45486W        W54286  23.252   1.687  33.867 -0.1108  0.0246  0.1288
45487W        W54287  14.578   3.619  10.411  0.0809 -0.4055  0.1322
45488W        W54288  10.069   5.351  14.063 -0.3967 -0.0973 -0.1739
45489W        W54289   3.908   2.965   3.908 -0.0987  0.0516  0.2252
45490W        W54290   9.785   0.206  32.738  0.2447  0.1983 -0.2781
45491W        W54291  10.063   6.314  31.426  0.1693 -0.1099  0.1859
45492W        W54292   2.413   3.098  28.429 -0.1515  0.0275  0.1702
45493W        W54293  24.925   1.792  28.658 -0.1147  0.0909  0.2824
45494W        W54294   7.590   2.138  20.866  0.0623  0.2438  0.1584
45495W        W54295  21.645   1.884  32.796  0.2230  0.3508  0.2120
45496W        W54296  16.807   0.529   6.372  0.0902 -0.0316  0.0927
45497W        W54297  15.542   4.545   0.315 -0.2161  0.2417  0.3524
45498W        W54298   9.643   6.335   6.341  0.3477  0.0643 -0.2774
45499W        W54299  10.582   6.008  23.317 -0.1687  0.1670  0.2160
45500W        W54300   3.405   6.343  25.611 -0.1399  0.0544 -0.0751
45501W        W54301   8.111   5.316  36.051 -0.1815 -0.0091  0.0506
45502W        W54302  24.240   6.240   3.380 -0.0485 -0.1104 -0.1615
45503W        W54303  10.025   5.535  26.828  0.2148 -0.0460  0.2280
45504W        W54304  13.008   2.907   3.947 -0.0669  0.1674  0.2548
45505W        W54305  22.753   4.512   5.863 -0.3455  0.0167  0.2855
45506W        W54306   1.709   3.625  28.657  0.4719 -0.0715  0.0259
45507W        W54307  26.352   3.801   1.238 -0.2842 -0.0983  0.0022
45508W        W54308  17.875   4.008  15.038  0.6612 -0.1982  0.1106
45509W        W54309   8.964   2.154   0.258 -0.2340 -0.2933 -0.0179
45510W        W54310   8.120   4.126  33.774 -0.0724 -0.0160 -0.1627
45511W        W54311  12.269   0.490  24.501  0.0767  0.0908 -0.1259
45512W        W54312  23.329   5.004  22.455  0.1667  0.0466  0.3108
45513W        W54313  22.805   0.359   0.218 -0.1446 -0.2665 -0.1716
45514W        W54314  10.153   3.437  30.775  0.2893  0.0238  0.0099
45515W        W54315   9.622   6.227  10.044 -0.1702  0.1729 -0.0704
45516W        W54316  14.392   4.539   9.973  0.1943 -0.2818  0.0728
45517W        W54317  13.119   5.029  23.047 -0.0995 -0.0317 -0.1523
45518W        W54318  18.501   0.134  10.066 -0.1115 -0.3761 -0.0845
45519W        W54319  14.287   3.472  25.174  0.0834  0.0517 -0.2997
45520W        W54320  14.992   3.339   2.320 -0.1381 -0.1608  0.0549
45521W        W54321  18.109   0.138  31.418  0.1448 -0.2294  0.2157
45522W        W54322  11.156   4.801  26.802  0.0696  0.0256  0.0106
45523W        W54323  14.608   4.682  29.896 -0.2705 -0.1291 -0.0719
45524W        W54324  13.000   4.471   8.225  0.1818  0.1164  0.3991
45525W        W54325   3.396   2.253  30.121 -0.1144 -0.1372 -0.0562
45526W        W54326  19.821   2.409  30.461  0.0236  0.0453  0.0063
45527W        W54327   1.013   5.347  21.036 -0.2430 -0.1683 -0.2820
45528W        W54328  19.225   6.420  13.454 -0.0952  0.0366 -0.0200
45529W        W54329  25.900   4.487  12.311  0.0347  0.0989  0.0279
45530W        W54330   8.365   2.350   2.350 -0.3239  0.0011  0.0443
45531W        W54331  17.765   1.224   2.933 -0.0544  0.0006 -0.0503
45532W        W54332   6.633   5.687   5.069  0.1700  0.0933  0.1148
45533W        W54333  16.817   4.461   9.132 -0.2741  0.2134 -0.2605
45534W        W54334  21.125   6.355   1.989  0.2776  0.1012  0.1529
45535W        W54335  14.433   0.940  33.221 -0.2632  0.0571 -0.0803
45536W        W54336  16.388   2.632  23.361 -0.0957  0.0675  0.0638
45537W        W54337  12.478   6.482  20.699  0.0360 -0.1274  0.1906
45538W        W54338   5.057   0.218  15.392  0.1915 -0.0581  0.0125
45539W        W54339  20.335   2.767   2.349 -0.0914 -0.0831 -0.2480
45540W        W54340  20.525   6.256   0.010  0.2896  0.2204 -0.1107
45541W        W54341   1.171   1.770  25.421 -0.0374  0.3210 -0.0259
45542W        W54342   4.042   3.495  12.711  0.0296 -0.0098 -0.0521
45543W        W54343   1.755   0.338  27.673  0.1086  0.0022 -0.0178
45544W        W54344  17.033   5.000  30.854 -0.2353  0.0087  0.0679
45545W        W54345   9.541   2.356  23.602  0.1123 -0.1643  0.0027
45546W        W54346  15.217   5.579  11.235 -0.2177 -0.2248 -0.1686
45547W        W54347   7.556   1.679   7.958 -0.0137  0.2492 -0.1002
45548W        W54348  10.272   5.832   8.229 -0.1915 -0.1431 -0.1756
45549W        W54349  16.459   5.712  10.123  0.1730 -0.0039 -0.0116
45550W        W54350   1.261   3.635   3.999 -0.3108  0.2538  0.2260
45551W        W54351  13.832   4.579  34.666  0.1847  0.0042  0.3115
45552W        W54352   9.009   5.425  11.851 -0.2457 -0.1061  0.1668
45553W        W54353   8.049   1.441  29.070 -0.1234  0.0721 -0.1376
45554W        W54354  21.550   5.381  10.449 -0.2430  0.0610  0.2026
45555W        W54355  12.911   1.907  28.179  0.0315 -0.1670  0.1213
45556W        W54356  11.202   1.670  30.237  0.2517 -0.1337  0.0340
45557W        W54357  15.911   0.373   1.672  0.0481  0.1294 -0.2662
45558W        W54358   0.532   4.112  34.061 -0.2470  0.0106 -0.2573
45559W        W54359  13.941   2.041  11.284  0.2683 -0.2975  0.2055
45560W        W54360   5.294   1.369  22.132  0.0510  0.0801  0.0021
45561W        W54361  14.315   0.052  25.605  0.2400  0.0500  0.2294
45562W        W54362   7.749   6.585   0.222  0.1698 -0.0567 -0.0688
45563W        W54363   1.401   4.257  22.766 -0.0573  0.3444  0.2012
45564W        W54364   0.071   5.134  26.209  0.0135  0.0371  0.2741
45565W        W54365  24.039   3.617  10.167 -0.1862  0.0900 -0.0585
45566W        W54366   5.043   6.579   4.120  0.2087  0.1676  0.0407
45567W        W54367   4.679   0.074   4.686 -0.1795 -0.0336  0.0830
45568W        W54368  14.229   6.524   5.681  0.1037  0.1033  0.0648
45569W        W54369  17.447   4.495  12.313  0.2005 -0.0649  0.0962
45570W        W54370  12.808   1.102  31.605  0.0542 -0.1072 -0.1397
45571W        W54371   0.903   0.048  12.796  0.0160  0.0889  0.0452
45572W        W54372   2.229   3.531   3.394 -0.0817  0.2442  0.3497
45573W        W54373  12.378   6.298  13.050 -0.0053  0.3113 -0.1771
45574W        W54374  17.453   0.148   1.903  0.1033  0.2013 -0.0653
45575W        W54375  14.554   2.463  31.374  0.1100  0.3304 -0.0876
45576W        W54376  19.222   3.976  34.373 -0.2148 -0.1380 -0.1819
45577W        W54377   0.419   3.265  34.186  0.2846  0.1570 -0.2370
45578W        W54378   1.599   0.872  13.007  0.1787  0.1194  0.0796
45579W        W54379  23.645   1.932  13.894 -0.2812 -0.3204  0.2022
45580W        W54380  13.112   4.785   0.183 -0.1059  0.0533 -0.0395
45581W        W54381  12.722   3.158   7.783  0.0568  0.1659  0.1254
45582W        W54382   2.650   4.082  32.430  0.1375 -0.3045 -0.2800
45583W        W54383   9.918   4.742   0.953 -0.2745  0.0922  0.1607
45584W        W54384  11.505   6.230   2.646  0.0555  0.0851  0.2213
45585W        W54385  12.401   1.934  11.258  0.0248  0.1005  0.2543
45586W        W54386   4.701   3.847  15.263 -0.0479  0.5411  0.1832
45587W        W54387  18.561   1.293   0.735  0.0080 -0.1204  0.1327
45588W        W54388  22.178   3.535  10.336  0.4320 -0.0076 -0.0347
45589W        W54389   4.471   1.833  23.005 -0.0303 -0.1252  0.1772
45590W        W54390  21.017   0.744  21.061 -0.2611  0.0812 -0.2548
45591W        W54391   5.134   4.291  12.388  0.0530 -0.2590 -0.0273
45592W        W54392   6.365   2.525  32.705  0.0573  0.3713 -0.0223
45593W        W54393  26.280   5.896  27.036 -0.0120  0.1115  0.0705
45594W        W54394  16.469   3.489  32.648  0.1937 -0.2173  0.2447
45595W        W54395  19.454   5.092  20.112 -0.1021  0.2325  0.1307
45596W        W54396   9.975   5.437  30.368 -0.1089  0.0998 -0.3881
45597W        W54397  22.789   2.842  12.651 -0.0653  0.1062  0.1148
45598W        W54398   3.806   4.284   3.077 -0.2449  0.1689 -0.2234
45599W        W54399   5.795   2.981  14.562  0.0914 -0.1103 -0.3723
45600W        W54400   5.618   2.201  33.372 -0.0700  0.1179  0.0046
45601W        W54401  12.395   3.829  36.062  0.3489 -0.2047 -0.0269
45602W        W54402  25.197   3.850  12.306 -0.1188  0.0482 -0.1091
45603W        W54403   1.059   3.005  10.785 -0.2279 -0.0318 -0.2205
45604W        W54404   5.390   1.413  27.807  0.3896 -0.1864  0.2788
45605W        W54405  16.390   2.687   7.396  0.0613 -0.0637  0.2656
45606W        W54406  10.295   5.460  22.228 -0.0553  0.0582  0.0089
45607W        W54407   3.270   4.832  11.156  0.0577 -0.1861  0.0023
45608W        W54408  24.736   4.168  13.940 -0.0723 -0.0513 -0.0229
45609W        W54409   6.360   5.869  11.842  0.3544 -0.2463  0.2591
45610W        W54410  15.600   4.467  32.931 -0.0903  0.0171  0.0720
45611W        W54411  18.577   3.536  27.945 -0.0281 -0.0927 -0.0486
45612W        W54412   6.433   3.424   2.504  0.1427 -0.0948  0.2120
45613W        W54413  17.960   6.224  10.904  0.0511 -0.0041 -0.2170
45614W        W54414  21.511   3.371   3.710 -0.0246 -0.2008 -0.3448
45615W        W54415   1.896   3.710   9.151  0.1177 -0.0757 -0.0651
45616W        W54416   2.554   4.236  14.751  0.0534 -0.0426 -0.1049
45617W        W54417  22.370   2.356   4.947 -0.2952  0.2410 -0.0128
45618W        W54418   3.389   3.260  16.030  0.1509 -0.1211 -0.1297
45619W        W54419  10.951   0.908   9.590 -0.0366 -0.0776  0.1057
45620W        W54420   3.476   5.608  29.844  0.1249 -0.1345  0.3403
45621W        W54421   6.342   5.775   1.829 -0.0450  0.2945  0.2819
45622W        W54422  14.561   3.134  33.873 -0.1463 -0.1826 -0.0741
45623W        W54423  23.729   2.225  34.128 -0.1836 -0.1520  0.0724
45624W        W54424  12.520   2.734  23.823 -0.2731  0.1118  0.2304
45625W        W54425  10.594   4.426   2.135  0.0834  0.1788 -0.1118
45626W        W54426  21.387   2.583   7.207  0.1392  0.0404 -0.1422
45627W        W54427  24.751   1.388  13.241 -0.0518 -0.3455  0.0246
45628W        W54428   0.783   0.341   0.195 -0.1338  0.0018  0.1963
45629W        W54429   3.575   4.886   8.405  0.0477  0.0725 -0.0083
45630W        W54430   0.746   1.602  36.063  0.3677  0.4880  0.5384
45631W        W54431   9.749   0.437   2.483 -0.2741 -0.0627  0.3509
45632W        W54432  20.835   4.532   2.966 -0.0150 -0.1437  0.0582
45633W        W54433   8.254   3.977  33.284 -0.0229 -0.1739  0.1447
45634W        W54434  10.243   2.593   9.734  0.1197 -0.2058  0.1847
45635W        W54435   8.009   4.573   3.237 -0.1226 -0.1917 -0.0395
45636W        W54436   6.563   5.371  24.861  0.0178 -0.2363 -0.2049
45637W        W54437  24.317   4.831  27.809 -0.0089 -0.2510  0.2454
45638W        W54438  17.559   5.450  14.745  0.1615  0.0466  0.0983
45639W        W54439  11.368   5.115  22.901  0.0277 -0.1633 -0.2192
45640W        W54440  22.210   3.087  26.100  0.1158 -0.1384 -0.2583
45641W        W54441  22.120   2.215  12.574  0.2776 -0.2149 -0.0716
45642W        W54442  25.235   0.160  32.479 -0.1875  0.0400  0.0776
45643W        W54443   5.736   3.847   3.313 -0.0695  0.0955  0.2651
45644W        W54444   3.128   1.132  20.859 -0.1994 -0.0978 -0.2594
45645W        W54445  24.758   0.182  23.260  0.1254 -0.0871 -0.0546
45646W        W54446  18.571   2.241  29.541  0.1136 -0.1491  0.1828
45647W        W54447   6.836   4.673   6.719  0.2876 -0.2614 -0.0343
45648W        W54448  18.829   1.138  33.915  0.2127 -0.0293  0.0133
45649W        W54449   5.162   5.037  32.799  0.1173  0.1907 -0.1684
45650W        W54450   7.580   2.252  27.674 -0.0901 -0.1312 -0.1728
45651W        W54451  10.430   3.586  32.387 -0.1465 -0.4886 -0.1767
45652W        W54452  13.404   5.613  23.810  0.4089  0.3210  0.0258
45653W        W54453   0.525   4.936   0.972 -0.0045 -0.1815  0.1198
45654W        W54454   0.293   1.961  11.075 -0.3024  0.2129 -0.1157
45655W        W54455   0.475   3.477  32.980 -0.1760 -0.2786  0.0960
45656W        W54456  18.446   4.955  31.849  0.0641 -0.0184 -0.0454
45657W        W54457  24.922   2.740   9.141 -0.0663 -0.2004  0.1708
45658W        W54458  19.801   2.077   8.259 -0.1946  0.0112  0.1083
45659W        W54459   0.254   5.639   8.993  0.1347  0.0189 -0.0609
45660W        W54460  17.539   1.351  32.541 -0.2580  0.2255 -0.4772
45661W        W54461  18.856   1.998   8.419 -0.1414 -0.3726  0.3017
45662W        W54462   5.501   5.186   0.964 -0.2193 -0.1571  0.3158
45663W        W54463  13.080   5.279   3.367 -0.1554 -0.4995 -0.1861
45664W        W54464  25.200   4.716  28.158 -0.2969 -0.0064  0.2217
45665W        W54465   2.216   5.737   5.425  0.0678  0.0539  0.2906
45666W        W54466  10.412   6.366  26.100 -0.0318 -0.1086  0.4204
45667W        W54467  19.869   1.433   1.168 -0.0035  0.2011 -0.1741
45668W        W54468   0.226   2.661  34.761  0.1383  0.0919  0.1123
45669W        W54469  10.861   2.922  30.905  0.1333 -0.1363  0.2473
45670W        W54470  13.163   1.222  15.182  0.2318  0.2389 -0.0541
45671W        W54471  25.162   2.173  28.857  0.1833 -0.4008  0.2561
45672W        W54472  20.363   0.668  24.014 -0.2753 -0.2699  0.3360
45673W        W54473   8.999   6.272   8.175  0.0404 -0.0163  0.1135
45674W        W54474   9.226   1.206  33.530  0.3991 -0.2025  0.2822
45675W        W54475  25.941   3.676  14.419 -0.2113  0.1517  0.2575
45676W        W54476  16.812   4.480   2.063  0.2235 -0.1147  0.2145
45677W        W54477  21.618   5.077  21.878  0.3488 -0.3384 -0.0110
45678W        W54478   4.782   3.751  29.968  0.1896 -0.0801  0.0699
45679W        W54479   9.694   2.172   6.817 -0.2539  0.0393  0.0046
45680W        W54480  13.781   0.624  24.548  0.0994  0.0420 -0.0800
45681W        W54481  11.489   2.279   9.037 -0.1842  0.4082  0.0692
45682W        W54482  16.346   0.273  24.529  0.1984  0.0159  0.0941
45683W        W54483  15.133   5.299  15.524  0.2397 -0.0357 -0.0820
45684W        W54484  25.541   3.375  21.189 -0.0895  0.0914  0.1377
45685W        W54485   4.200   5.468   4.511 -0.0175  0.1985 -0.0489
45686W        W54486   9.763   1.896  27.914 -0.0375 -0.1407 -0.0148
45687W        W54487  15.209   0.929   2.937  0.0699 -0.0825  0.0993
45688W        W54488   2.520   4.173   5.091 -0.0864 -0.1647 -0.1012
45689W        W54489  23.748   5.184  12.875  0.0243 -0.1398 -0.2606
45690W        W54490  23.195   1.448  14.952 -0.1664  0.2699  0.1603
45691W        W54491  24.452   1.047   3.552  0.0771  0.2076 -0.1764
45692W        W54492   2.107   2.874   5.060  0.0385  0.1986 -0.2694
45693W        W54493  10.623   0.349  13.620  0.3194  0.0674  0.2944
45694W        W54494   7.314   6.220  12.921  0.1471  0.0391 -0.1809
45695W        W54495  10.693   3.359   9.484  0.0927  0.1013 -0.1583
45696W        W54496   0.041   3.558  24.716 -0.1087  0.0260 -0.1265
45697W        W54497   8.877   0.613  30.280 -0.0643 -0.1264  0.0587
45698W        W54498  10.246   5.967  10.684 -0.0658  0.3694  0.1759
45699W        W54499  25.856   5.507  10.227  0.1889  0.1129  0.1024
45700W        W54500  24.732   0.112  30.945  0.2507 -0.2474  0.3952
45701W        W54501  19.496   1.293  26.741  0.0588  0.2649  0.3444
45702W        W54502  15.716   6.569  13.048 -0.0983 -0.0055  0.2535
45703W        W54503   9.069   1.443  29.645  0.1820 -0.0285  0.1265
45704W        W54504  20.094   2.894   0.996  0.1037  0.4415  0.4052
45705W        W54505  24.510   1.824  26.724  0.0730 -0.0054  0.1598
45706W        W54506  12.561   1.178  32.567 -0.0083  0.0207  0.0575
45707W        W54507  22.047   4.351  22.704 -0.1850 -0.1239 -0.1225
45708W        W54508  19.187   5.535  11.807  0.0167 -0.2782 -0.1767
45709W        W54509  12.762   3.237   4.304 -0.1613 -0.1595  0.2167
45710W        W54510  18.892   1.745   1.926  0.0789 -0.1741 -0.1736
45711W        W54511  10.394   4.964   8.473 -0.1841  0.1961 -0.1773
45712W        W54512  20.982   4.204   4.906  0.0642  0.1510 -0.1604
45713W        W54513  15.307   0.553  33.138  0.0763 -0.0429  0.0252
45714W        W54514   2.617   6.524  30.013  0.1909  0.0096 -0.0323
45715W        W54515   1.911   3.325  30.767  0.0813 -0.1448 -0.0060
45716W        W54516   2.141   0.461  35.740 -0.0323  0.2490  0.0688
45717W        W54517  17.806   1.211  33.081 -0.1641  0.3036  0.1981
45718W        W54518  13.854   4.118   8.204 -0.3327  0.0533  0.0806
45719W        W54519  21.515   5.359   4.890  0.0732  0.0567 -0.3655
45720W        W54520  18.509   4.661  35.804  0.0779 -0.0034  0.2558
45721W        W54521   0.585   3.504   8.856  0.2151  0.2311 -0.0798
45722W        W54522  21.244   1.462  13.399  0.0251  0.0002  0.1225
45723W        W54523   9.453   1.585  24.432 -0.0369 -0.1132  0.1413
45724W        W54524  22.768   6.054  27.774 -0.0660 -0.0995 -0.1637
45725W        W54525   9.402   4.019   8.960 -0.1078  0.2352 -0.0790
45726W        W54526  14.020   6.262  34.403 -0.0816 -0.0273  0.2223
45727W        W54527   5.333   4.964  10.988 -0.0512 -0.1579 -0.0340
45728W        W54528  22.403   5.653   0.596  0.0990  0.1131  0.0344
45729W        W54529  19.179   5.668  22.809  0.1264  0.0219  0.2521
45730W        W54530  11.999   3.519  22.870 -0.1726 -0.3108  0.0361
45731W        W54531  14.458   4.930   6.795  0.1612  0.0174 -0.1460
45732W        W54532   4.022   0.014   9.028 -0.0079 -0.2369 -0.2871
45733W        W54533   5.939   3.957  24.855  0.0057 -0.2436 -0.0170
45734W        W54534  20.366   1.611   1.170  0.1159 -0.1218 -0.1140
45735W        W54535   3.794   2.748  11.133  0.2816 -0.1069 -0.1850
45736W        W54536  23.670   4.131   3.079 -0.1353 -0.0080 -0.4409
45737W        W54537   8.507   4.796  11.904 -0.0296  0.1067 -0.0104
45738W        W54538  26.232   2.327  33.534  0.0355  0.1523  0.0704
45739W        W54539  25.164   3.175  34.444  0.0162 -0.0533  0.2529
45740W        W54540  12.597   2.679  29.701  0.2933 -0.1042  0.0625
45741W        W54541  21.358   1.269   6.262 -0.0866 -0.0585  0.0387
45742W        W54542   3.136   5.935  13.022  0.0529  0.0053  0.1120
45743W        W54543   1.297   0.897  25.063  0.1493 -0.0564 -0.1970
45744W        W54544   4.758   3.440  24.882 -0.1334  0.2824 -0.0118
45745W        W54545   9.502   5.859  20.557  0.0855  0.1082 -0.1559
45746W        W54546  21.733   5.375   1.618 -0.2985 -0.1361 -0.2022
45747W        W54547  26.031   1.470  13.333  0.2274 -0.0564 -0.1097
45748W        W54548  20.075   6.145  23.292 -0.3925 -0.0952 -0.1317
45749W        W54549   2.111   6.399  26.775 -0.0128 -0.2214  0.0332
45750W        W54550  12.404   4.149  32.252 -0.1862  0.2005 -0.0598
45751W        W54551  12.652   3.185  32.298 -0.0425 -0.0796 -0.0069
45752W        W54552  10.427   4.132   0.640 -0.3794  0.2977 -0.5418
45753W        W54553   1.857   0.802   1.052  0.0942  0.1233  0.1364
45754W        W54554   4.502   5.922  26.354  0.2930  0.3678  0.0202
45755W        W54555  18.316   3.808   7.728 -0.0387 -0.3548 -0.1794
45756W        W54556  25.518   4.050   2.473 -0.1708  0.0183  0.0595
45757W        W54557  11.023   1.194   6.665 -0.0897  0.0119 -0.1913
45758W        W54558  24.317   3.673  28.087 -0.0275  0.1873  0.0714
45759W        W54559   7.652   5.420  26.609  0.3043  0.0676 -0.3304
45760W        W54560   1.187   0.066  12.373  0.0470  0.2901  0.0461
45761W        W54561  17.357   0.519  24.300  0.0701 -0.2646 -0.0530
45762W        W54562  15.223   0.655  30.983 -0.1413 -0.0208 -0.1010
45763W        W54563  16.565   4.369  35.376 -0.2177  0.0639  0.0046
45764W        W54564   4.507   4.158   3.683  0.0029  0.1127  0.1235
45765W        W54565   1.095   4.042  26.057  0.0414 -0.0099  0.0767
45766W        W54566   2.643   1.713  33.194  0.0034  0.0116  0.0936
45767W        W54567  22.460   1.273   4.988  0.1614  0.2218  0.0730
45768W        W54568   6.518   1.655  31.563 -0.1095 -0.1333 -0.2606
45769W        W54569  20.938   5.990  24.914  0.1614  0.1765  0.0157
45770W        W54570  13.828   2.273  29.048  0.1376 -0.0271  0.0715
45771W        W54571   9.535   4.591   3.749  0.0911  0.0924  0.0251
45772W        W54572   9.080   0.728   6.644  0.1466 -0.0010 -0.0673
45773W        W54573  11.169   2.462  34.867 -0.0857  0.1751  0.3539
45774W        W54574   9.969   6.143  12.971  0.0238 -0.2484 -0.0335
45775W        W54575  17.573   0.820   7.509 -0.0846 -0.1448 -0.0383
45776W        W54576   9.264   4.564  34.463 -0.1693 -0.1513  0.0745
45777W        W54577  19.219   1.128  30.235 -0.3009  0.4650  0.1542
45778W        W54578  17.480   5.049  11.451 -0.2015  0.3809  0.1469
45779W        W54579  12.286   1.859   4.063  0.0860  0.1893  0.0612
45780W        W54580  25.056   4.792   2.766 -0.1842 -0.0965 -0.0366
45781W        W54581  14.001   4.773   5.759  0.0728  0.1426 -0.2126
45782W        W54582   5.023   2.442  30.341 -0.1997  0.1107  0.0555
45783W        W54583   3.156   1.402  22.762  0.2880  0.1436  0.3764
45784W        W54584   7.954   0.408  12.414  0.0802  0.1244  0.0580
45785W        W54585   6.240   2.271  25.165  0.0088 -0.0237 -0.1522
45786W        W54586  26.368   2.930   9.491  0.0392  0.2684  0.0162
45787W        W54587   7.058   3.141  33.274 -0.3930 -0.1695 -0.0004
45788W        W54588  24.403   2.202   9.095 -0.0868 -0.0317  0.0361
45789W        W54589   9.604   2.012   5.161  0.1596 -0.0762 -0.0716
45790W        W54590  11.671   6.566  29.615  0.0359 -0.0462 -0.2019
45791W        W54591   8.667   5.578  12.206 -0.0361 -0.2198 -0.2009
45792W        W54592   8.702   3.028  21.042  0.0769 -0.1434 -0.1446
45793W        W54593  21.957   2.275   6.773 -0.0388  0.2061 -0.0745
45794W        W54594  12.097   0.851   2.096 -0.1576  0.0431 -0.1170
45795W        W54595  12.519   4.910   9.926  0.0529 -0.1229  0.0022
45796W        W54596  17.165   1.664  14.148  0.0227  0.0957 -0.0219
45797W        W54597  13.181   0.004  33.078  0.0300 -0.0137  0.2152
45798W        W54598  13.995   1.873  21.185  0.1309  0.3278  0.0163
45799W        W54599  21.418   0.226  34.680 -0.2153  0.0254  0.2756
45800W        W54600  14.140   1.112  27.708  0.2898  0.0652  0.4073
45801W        W54601  15.646   5.694   1.313 -0.1409 -0.2213 -0.0856
45802W        W54602  16.898   1.215  31.020  0.0951  0.4597 -0.1627
45803W        W54603   2.842   2.668  23.811  0.3757 -0.1348 -0.1675
45804W        W54604  19.856   4.078  27.862  0.0689  0.2081 -0.2123
45805W        W54605  19.804   2.699   8.074 -0.1020  0.1089 -0.0766
45806W        W54606   0.217   2.619   7.181  0.2094  0.1479 -0.1983
45807W        W54607  14.370   1.862   8.713  0.3213 -0.0142  0.2062
45808W        W54608   6.432   0.818  20.206 -0.3831 -0.0067 -0.2436
45809W        W54609  17.302   0.757  28.328  0.1129  0.2806 -0.0089
45810W        W54610  24.369   2.154  23.867  0.3391  0.1136  0.2319
45811W        W54611   1.360   4.639   9.826  0.0824  0.0378 -0.1101
45812W        W54612  16.244   5.243   9.361  0.1022  0.1000  0.0288
45813W        W54613  10.920   2.197   4.832 -0.3491 -0.0775  0.1347
45814W        W54614  22.789   1.981   2.175 -0.0366 -0.0103 -0.0513
45815W        W54615  15.945   6.583   7.154 -0.0163  0.0417  0.0278
45816W        W54616   3.860   2.153  22.115  0.1441  0.0781  0.2185
45817W        W54617   7.698   5.399   6.243  0.0077  0.1440  0.1225
45818W        W54618  18.873   4.929  25.036 -0.4036  0.0206 -0.3219
45819W        W54619   2.939   0.226   2.400 -0.2228  0.0628 -0.3784
45820W        W54620   2.040   4.307  33.345  0.3073 -0.0660  0.1672
45821W        W54621   8.579   5.376   2.849 -0.1187 -0.1118  0.2933
45822W        W54622  12.270   4.538   4.533  0.1343  0.0119 -0.0135
45823W        W54623  24.745   0.078  11.730 -0.1050  0.2367 -0.3151
45824W        W54624   5.876   3.994  12.794  0.0840 -0.0395 -0.0623
45825W        W54625   5.983   5.047   9.890  0.3238  0.1141 -0.1258
45826W        W54626  19.431   0.339  11.532 -0.1224 -0.1663  0.2678
45827W        W54627  26.266   1.926  21.981  0.1939  0.0448  0.1638
45828W        W54628  25.998   5.661  30.349 -0.2350 -0.2943  0.2232
45829W        W54629   5.898   6.504  28.136  0.0847 -0.4496 -0.0754
45830W        W54630   4.415   1.307  27.012 -0.0172  0.2780  0.1215
45831W        W54631  19.635   4.080  11.975  0.2047 -0.0897 -0.0194
45832W        W54632   0.850   2.248  20.739 -0.3475  0.0577 -0.1954
45833W        W54633  21.856   2.684  35.682  0.0582 -0.1088  0.0997
45834W        W54634  15.415   2.757  14.923 -0.0710 -0.0519  0.2171
45835W        W54635  11.588   0.182   7.639  0.1429  0.1826 -0.2575
45836W        W54636  11.599   4.797  33.323  0.3072  0.0896  0.0895
45837W        W54637   9.408   4.728   1.056 -0.0478 -0.0663 -0.1773
45838W        W54638  14.417   4.657  23.153  0.2934  0.1206  0.0044
45839W        W54639   3.148   5.561  21.391  0.1808 -0.1174  0.0274
45840W        W54640   9.715   5.846   2.533 -0.0610  0.2798 -0.0761
45841W        W54641  14.949   6.471  22.622  0.1520 -0.0118  0.1813
45842W        W54642  21.883   3.714  22.957 -0.1064  0.0483 -0.2396
45843W        W54643   4.490   3.145   8.926  0.1516  0.0893  0.4232
45844W        W54644  22.641   2.090  33.044  0.0322  0.0149  0.0070
45845W        W54645  17.212   4.728   6.469 -0.0417  0.0820  0.2962
45846W        W54646   2.992   4.629  29.093  0.0808 -0.0348  0.1136
45847W        W54647  23.673   2.861  35.434  0.0503  0.3625  0.1626
45848W        W54648  16.832   6.447   8.242 -0.1361  0.0957 -0.2886
45849W        W54649  19.814   5.855  22.463 -0.0893 -0.0007  0.0087
45850W        W54650  21.310   1.312  35.836  0.0479  0.1122  0.0128
45851W        W54651  11.503   3.657   0.079 -0.0243 -0.1147 -0.0637
45852W        W54652   3.635   4.711  13.318  0.1302 -0.3057  0.1276
45853W        W54653  17.455   2.702  34.474  0.0055  0.0992  0.2088
45854W        W54654   2.396   5.729  24.130  0.2913  0.1437  0.1906
45855W        W54655  14.241   3.360  27.018 -0.0050 -0.0680  0.3617
45856W        W54656   0.832   0.838  29.349  0.1345 -0.0967 -0.1914
45857W        W54657  24.678   1.517   3.585 -0.1347  0.1088  0.0707
45858W        W54658  15.319   1.887   3.076 -0.2503 -0.1459  0.3651
45859W        W54659  25.198   2.412  29.687 -0.0134  0.2852  0.0276
45860W        W54660   2.762   0.728  24.879  0.0813 -0.1277  0.1527
45861W        W54661  16.458   2.822  33.364  0.1622 -0.1074 -0.3834
45862W        W54662   2.943   0.970   8.939  0.1016 -0.0188  0.2147
45863W        W54663  21.801   4.727  27.158  0.0884  0.1291 -0.3507
45864W        W54664   8.452   2.745  15.464  0.1606  0.1810  0.1185
45865W        W54665  12.047   5.620  13.755 -0.3218 -0.2394 -0.1805
45866W        W54666   8.986   1.807  28.873 -0.3289  0.2627 -0.0042
45867W        W54667  15.337   1.242   7.317 -0.1306  0.1437  0.1013
45868W        W54668  23.423   1.827  10.732 -0.1741  0.2053  0.2478
45869W        W54669   4.649   3.148  33.356 -0.0879 -0.1299  0.0873
45870W        W54670  11.568   3.164   0.842  0.1025  0.0174  0.0538
45871W        W54671  17.495   4.130  11.357 -0.1124 -0.3157 -0.0923
45872W        W54672  10.733   6.405  13.468  0.1739  0.2934 -0.3154
45873W        W54673  25.037   4.501  26.790 -0.1554  0.0489 -0.1323
45874W        W54674  19.600   2.939   9.091 -0.0043  0.2264 -0.1205
45875W        W54675  23.098   0.740  10.842  0.1668 -0.3805 -0.2460
45876W        W54676  22.446   4.048   4.100 -0.2373  0.2025  0.1590
45877W        W54677  18.501   4.049   3.646 -0.1535  0.1530 -0.2178
45878W        W54678   9.827   6.393  15.387 -0.1352  0.0910  0.2093
45879W        W54679  21.474   1.981   7.915 -0.1843  0.0016 -0.0541
45880W        W54680  12.632   1.984  14.244 -0.3390  0.0125 -0.2136
45881W        W54681  18.263   6.495   6.881 -0.1705 -0.0456 -0.1832
45882W        W54682   3.296   3.786  34.707  0.1070  0.1600 -0.1128
45883W        W54683   8.211   0.970  22.563 -0.0936 -0.2096 -0.1020
45884W        W54684   5.500   0.985  33.948 -0.0217  0.1060 -0.3469
45885W        W54685  22.414   0.647  30.956 -0.0963  0.0069  0.2362
45886W        W54686  20.896   5.110  22.528  0.3008 -0.1469  0.0338
45887W        W54687  26.162   6.285  15.271 -0.0664 -0.0860  0.2106
45888W        W54688  22.054   3.735  24.176 -0.2954 -0.0871 -0.3022
45889W        W54689  23.394   6.358   2.156  0.1108 -0.2085 -0.2524
45890W        W54690  12.934   5.295  13.980 -0.1753  0.0870 -0.2303
45891W        W54691  12.598   1.773   8.934  0.3257  0.0429 -0.1811
45892W        W54692   0.496   3.430   2.089 -0.1824 -0.2225 -0.0528
45893W        W54693   6.786   3.868   3.270 -0.0527 -0.0059 -0.0595
45894W        W54694  17.514   1.823  32.749  0.0361 -0.1764 -0.2913
45895W        W54695   1.917   2.124  23.769 -0.3923  0.1258  0.0264
45896W        W54696  13.673   4.506   7.034 -0.3725  0.1428 -0.1115
45897W        W54697  15.100   1.571  22.388  0.3260 -0.2335  0.0199
45898W        W54698  11.493   3.456  23.591 -0.4075 -0.2106  0.0669
45899W        W54699   2.043   1.366  34.063 -0.3971 -0.0041 -0.1433
45900W        W54700  11.735   0.508  10.997 -0.1276  0.0706  0.0855
45901W        W54701  21.953   3.696   1.418 -0.0304 -0.1337 -0.2644
45902W        W54702   5.413   5.809   5.848  0.3161 -0.1842 -0.0090
45903W        W54703  18.035   3.700  30.604 -0.2324  0.1363 -0.0464
45904W        W54704  11.594   5.542  28.444  0.1716 -0.0859  0.1612
45905W        W54705  24.233   5.114  34.318 -0.1331  0.0878  0.0522
45906W        W54706  21.994   5.388   3.978 -0.3103  0.2724  0.0836
45907W        W54707   5.789   0.580  21.533 -0.3068  0.0867 -0.2557
45908W        W54708   4.488   2.174  29.346 -0.2594  0.0908  0.3955
45909W        W54709  11.883   4.272  27.623 -0.1889 -0.0430  0.2065
45910W        W54710  11.909   1.440  14.927 -0.1743 -0.0253  0.2057
45911W        W54711  25.625   3.380   9.218 -0.1061 -0.0993  0.0918
45912W        W54712  21.917   0.510  11.817  0.0886 -0.0846 -0.0145
45913W        W54713  14.372   1.921   4.749  0.1121  0.2673 -0.0222
45914W        W54714  25.986   5.726  25.669 -0.0061  0.0460  0.0110
45915W        W54715  14.670   3.184  24.692  0.0389 -0.1863 -0.1139
45916W        W54716  26.289   1.684   0.591 -0.0921 -0.0848 -0.2281
45917W        W54717  11.308   1.290  25.160 -0.2050  0.0660 -0.0373
45918W        W54718  23.334   1.897   6.846 -0.1636  0.0173 -0.0524
45919W        W54719  25.776   0.080   8.460  0.0902 -0.0050  0.0618
45920W        W54720   6.247   0.076  12.467  0.0465  0.0395 -0.4186
45921W        W54721  22.245   2.678  26.423  0.2291  0.2598  0.2306
45922W        W54722  24.911   0.669   3.862  0.1485 -0.2922 -0.0327
45923W        W54723  13.200   1.798  31.856 -0.0112  0.0232 -0.0424
45924W        W54724   1.764   6.308   1.768 -0.0490  0.1129 -0.2135
45925W        W54725   8.761   0.544  28.666  0.0067 -0.0107  0.0179
45926W        W54726  24.733   2.583  12.196 -0.0314 -0.2738 -0.1326
45927W        W54727   5.362   5.564   5.112 -0.2203  0.0123 -0.0668
45928W        W54728   9.753   4.090   2.784 -0.0925  0.4051 -0.2275
45929W        W54729   5.349   0.502  34.729 -0.0550 -0.2410  0.0373
45930W        W54730  18.779   5.917  23.071  0.2168 -0.0005  0.0335
45931W        W54731  14.585   4.259  31.937  0.1711 -0.2033 -0.0531
45932W        W54732   8.081   2.728  26.177  0.1085  0.0430 -0.1077
45933W        W54733  17.686   2.498  29.796 -0.1951 -0.0109 -0.1914
45934W        W54734  16.346   5.990   9.256  0.2354  0.2597  0.0572
45935W        W54735  25.070   1.535  34.793  0.1382 -0.1553 -0.0411
45936W        W54736  15.973   5.853  22.373 -0.3143  0.1560  0.0411
45937W        W54737  13.157   6.072  21.554  0.0667  0.0031 -0.0330
45938W        W54738  25.884   2.420   3.390 -0.0231 -0.1266 -0.1004
45939W        W54739  20.821   2.683  21.572  0.2261 -0.1152  0.0207
45940W        W54740  12.903   4.148  23.314  0.0761 -0.1809  0.1826
45941W        W54741   5.907   2.308   5.735  0.1371 -0.1576  0.1962
45942W        W54742   4.611   0.809  32.457 -0.1608  0.0149  0.0381
45943W        W54743   4.806   2.026  30.088 -0.0749  0.1620  0.1338
45944W        W54744  11.695   0.806  12.465 -0.1678  0.4143 -0.2007
45945W        W54745  24.717   1.730   1.940 -0.0247  0.4496  0.1087
45946W        W54746   3.464   2.068  14.188 -0.0053  0.2527 -0.0043
45947W        W54747  18.223   2.311  12.879  0.0358 -0.2334  0.1503
45948W        W54748   7.033   6.091   4.915 -0.0231  0.1370  0.1435
45949W        W54749  13.355   1.418  24.633 -0.0556  0.0107 -0.3339
45950W        W54750  18.162   1.868   5.521 -0.0063  0.1334 -0.0173
45951W        W54751  20.634   2.994  20.973  0.0907 -0.0732 -0.0882
45952W        W54752  14.294   2.635  30.993 -0.0553 -0.1777 -0.0593
45953W        W54753  13.371   4.738   1.295  0.0938  0.0236  0.0019
45954W        W54754  14.966   1.885  21.326 -0.0307 -0.1551 -0.0540
45955W        W54755  11.911   4.395  13.502 -0.0335  0.0698 -0.4852
45956W        W54756   3.995   4.822  27.422 -0.0465  0.0312  0.1739
45957W        W54757   7.901   1.589  11.571  0.2767 -0.0253 -0.0831
45958W        W54758  16.288   2.396  30.594  0.4391 -0.1207  0.0190
45959W        W54759  22.940   4.186   9.321  0.3998 -0.0351 -0.2316
45960W        W54760   5.120   5.940  14.639 -0.0580  0.1012 -0.0011
45961W        W54761   7.577   2.689  26.275 -0.0228  0.0468  0.2091
45962W        W54762  17.442   1.726  27.764 -0.0666 -0.1412  0.1389
45963W        W54763   0.612   4.834  27.972 -0.3582 -0.1916 -0.1393
45964W        W54764  16.201   5.260  26.509 -0.0989 -0.1222  0.2296
45965W        W54765   1.980   0.038   4.494 -0.0302  0.0329 -0.1727
45966W        W54766  11.541   6.356  22.674 -0.1708 -0.1414  0.4943
45967W        W54767   1.925   5.057   7.305  0.2668 -0.1997 -0.0341
45968W        W54768   4.644   6.496  21.666  0.1198  0.0371  0.1465
45969W        W54769  25.545   3.370   0.859  0.0761  0.1939 -0.1920
45970W        W54770  14.830   6.254   2.764 -0.0050 -0.0219 -0.0529
45971W        W54771  25.417   4.609   5.964  0.1053  0.0194  0.0240
45972W        W54772  16.898   0.708  34.689 -0.2655  0.1443 -0.0262
45973W        W54773  15.696   3.842  33.614 -0.1452  0.0597  0.0577
45974W        W54774   5.887   2.134  15.260 -0.1232 -0.0394  0.0893
45975W        W54775  15.810   4.070  22.709  0.1758  0.2281  0.0415
45976W        W54776   9.699   4.115  14.287  0.0633 -0.3474 -0.1182
45977W        W54777  11.868   3.702   3.292 -0.1307  0.0808 -0.0933
45978W        W54778   3.966   2.262   6.581  0.0677  0.2331 -0.2160
45979W        W54779  11.815   4.539  34.505 -0.0404 -0.1236 -0.1502
45980W        W54780  18.134   5.625  12.743 -0.5874 -0.0123  0.1592
45981W        W54781  25.114   4.672  20.982  0.2585 -0.0020  0.2035
45982W        W54782   5.219   6.337   8.746 -0.0126  0.0412  0.2467
45983W        W54783  14.696   2.954   6.061  0.1405 -0.2790 -0.0950
45984W        W54784   8.245   4.367  20.318 -0.0751  0.0241  0.0086
45985W        W54785  25.503   4.079   0.089  0.0189  0.1804 -0.1972
45986W        W54786  22.149   0.600  32.731  0.1505 -0.0415  0.0636
45987W        W54787  23.613   0.237  35.585  0.0277 -0.0497 -0.2685
45988W        W54788  19.093   5.175  20.979 -0.1887  0.1128 -0.1527
45989W        W54789   9.132   1.791  15.638 -0.2838 -0.0031  0.1802
45990W        W54790   9.578   5.390  29.551 -0.0074  0.0510  0.0698
45991W        W54791   6.303   2.895  15.293 -0.0400  0.1347  0.0772
45992W        W54792  23.683   0.326   6.686 -0.2173 -0.0124 -0.0133
45993W        W54793   6.508   1.576  15.208  0.2574 -0.1848 -0.3058
45994W        W54794   5.610   3.202  15.928 -0.3428  0.0162  0.2188
45995W        W54795   3.922   6.543  33.846 -0.0629 -0.2655 -0.0467
45996W        W54796   0.023   2.058  10.574 -0.2100 -0.0092  0.0717
45997W        W54797   6.463   1.211  13.734  0.2248 -0.1209  0.1092
45998W        W54798  10.072   2.103   4.666 -0.0548 -0.0898  0.0754
45999W        W54799  22.738   4.655   4.976 -0.0834  0.0041  0.1096
46000W        W54800   2.656   2.835   6.816 -0.1413  0.0855  0.1491
46001W        W54801   1.300   0.155  23.433  0.2016  0.3373  0.1307
46002W        W54802   5.341   2.861  22.770  0.0749  0.2449 -0.0606
46003W        W54803  14.585   2.627  34.063  0.1669 -0.2194 -0.1602
46004W        W54804  11.997   2.655  23.878  0.0306  0.3163 -0.1931
46005W        W54805  23.514   4.142   6.239  0.0431  0.1245  0.0484
46006W        W54806  19.650   1.315   8.825  0.1618 -0.1557  0.0714
46007W        W54807  12.084   2.522   0.729 -0.2255  0.1122  0.1888
46008W        W54808  14.735   6.028   7.561 -0.2603 -0.3508  0.0554
46009W        W54809   0.868   1.850  10.895 -0.2541 -0.0447 -0.2463
46010W        W54810   1.644   1.987  35.187  0.0197 -0.0249 -0.0040
46011W        W54811  18.489   5.399  14.773 -0.0416  0.1787  0.2083
46012W        W54812  21.701   6.521  23.213 -0.1047 -0.2219  0.1155
46013W        W54813   3.496   0.249  22.227 -0.2889 -0.0019 -0.1897
46014W        W54814  16.873   4.522  33.494 -0.0287 -0.1369 -0.1197
46015W        W54815  18.596   0.541  28.448  0.0910 -0.1319  0.0371
46016W        W54816  24.510   1.929   6.043  0.0070 -0.0685  0.2379
46017W        W54817   2.536   2.404   6.147 -0.0286  0.0129 -0.1788
46018W        W54818  13.229   3.711   2.127 -0.1064 -0.1088 -0.0822
46019W        W54819   5.744   2.631  25.103  0.3348 -0.0865 -0.1273
46020W        W54820   5.565   6.523   0.339  0.4240  0.4599 -0.3125
46021W        W54821   0.140   6.244  29.855  0.2127 -0.0322 -0.3405
46022W        W54822   0.792   1.625  24.102 -0.2023  0.4459  0.2293
46023W        W54823   8.256   2.622  34.346 -0.0760  0.1400 -0.0064
46024W        W54824  24.910   5.559   8.035  0.2685 -0.0622  0.1425
46025W        W54825   9.091   3.075   9.422 -0.5434  0.0355 -0.1504
46026W        W54826   7.239   2.882  20.650 -0.2093  0.0393 -0.1755
46027W        W54827  22.119   2.438   8.607  0.1187  0.2105  0.0844
46028W        W54828  23.927   3.833  12.705 -0.0061 -0.0592  0.2337
46029W        W54829  26.126   5.939   8.635 -0.0797  0.1897 -0.3492
46030W        W54830  24.350   1.057  20.719 -0.2479  0.0972 -0.1619
46031W        W54831  12.209   1.639   1.855 -0.0313  0.3673  0.1276
46032W        W54832  12.415   6.212  29.963  0.3708 -0.1410 -0.0805
46033W        W54833   8.367   2.603   5.423  0.1240 -0.3566  0.3085
46034W        W54834  23.598   0.450  12.109  0.0005 -0.2197 -0.0332
46035W        W54835  16.287   3.738  25.912  0.1576  0.3055 -0.2114
46036W        W54836   3.001   4.145  10.754  0.1319  0.3272  0.1835
46037W        W54837   6.298   5.876  28.595 -0.1322  0.0983  0.1793
46038W        W54838  21.561   5.178   6.038  0.2831 -0.3811 -0.0177
46039W        W54839   9.696   0.778  30.635  0.0324 -0.2018  0.0886
46040W        W54840  17.401   5.395  15.601  0.1814  0.1482 -0.0537
46041W        W54841  20.369   4.622  24.956 -0.0803 -0.1821  0.1677
46042W        W54842  19.149   1.026   2.829  0.0622  0.2694 -0.0597
46043W        W54843   1.905   2.121  23.289  0.2050 -0.1727  0.1625
46044W        W54844  25.180   4.327  24.988  0.1145 -0.1665 -0.1120
46045W        W54845  22.180   5.943  11.486  0.2543  0.2608  0.1375
46046W        W54846  13.052   6.201  34.631 -0.1456  0.0587  0.2974
46047W        W54847   6.412   1.376  11.367  0.1133  0.1395 -0.0713
46048W        W54848  22.772   3.242  21.656  0.1616  0.1948  0.1683
46049W        W54849  20.473   2.365  22.152  0.2016 -0.0776  0.3104
46050W        W54850   4.754   0.147  24.483 -0.0495 -0.0587  0.0379
46051W        W54851  21.212   0.872   3.712  0.0468  0.0664 -0.1143
46052W        W54852  20.258   5.651  23.178  0.1181  0.0706 -0.0745
46053W        W54853  12.887   4.006   8.782 -0.2644  0.1241 -0.1018
46054W        W54854   9.114   5.946  34.985  0.0174 -0.2493 -0.2318
46055W        W54855  21.785   5.221   2.849 -0.0369 -0.0548 -0.1787
46056W        W54856   4.566   3.882  11.680 -0.0138  0.0847  0.0762
46057W        W54857  21.206   1.727   1.660 -0.0532  0.0965 -0.1011
46058W        W54858  25.122   1.687  25.975 -0.1784  0.0836 -0.1482
46059W        W54859  26.351   1.552  28.350 -0.3873  0.0486 -0.0148
46060W        W54860   0.186   3.408  29.668 -0.3249 -0.1546  0.1511
46061W        W54861  25.908   1.387  22.900 -0.3226 -0.0720  0.0202
46062W        W54862  16.714   1.883   5.337 -0.1270  0.0920 -0.1316
46063W        W54863  13.770   0.189   8.168 -0.3212  0.0388 -0.0549
46064W        W54864  12.253   4.917  33.858 -0.3121 -0.2471 -0.2055
46065W        W54865   3.551   2.431  21.323  0.2015  0.0617  0.0131
46066W        W54866   7.355   5.768  24.481  0.0631 -0.1866 -0.1490
46067W        W54867   0.919   3.012  35.104  0.4394  0.0636 -0.4685
46068W        W54868   4.389   6.560  35.162 -0.1419  0.0914  0.0892
46069W        W54869  17.669   6.119  33.110 -0.2098  0.0388  0.1523
46070W        W54870   2.137   0.393   4.837 -0.0668 -0.1411  0.1084
46071W        W54871   9.161   5.978  33.449  0.1340 -0.0333 -0.2807
46072W        W54872  21.820   6.303   4.184  0.1366  0.0964  0.0600
46073W        W54873  23.724   4.658  12.657 -0.0033 -0.1341 -0.3656
46074W        W54874  21.705   5.790  31.650 -0.0547 -0.0391  0.2646
46075W        W54875  21.024   3.514  11.123 -0.0223 -0.3302 -0.1881
46076W        W54876  18.391   3.978   2.255  0.0215 -0.2082  0.2868
46077W        W54877  12.121   3.349  15.308  0.2474 -0.1264 -0.1118
46078W        W54878  13.942   3.842  16.170 -0.1757 -0.0778 -0.2215
46079W        W54879  16.337   2.486  26.985 -0.1317 -0.3535 -0.0565
46080W        W54880  19.973   0.461   4.853  0.0244 -0.1830  0.1371
46081W        W54881   5.019   5.941  35.826 -0.0611  0.0086 -0.2610
46082W        W54882   8.510   2.107  29.687 -0.2042  0.2534 -0.2852
46083W        W54883  14.372   1.549   9.103 -0.5952 -0.0570  0.3813
46084W        W54884   7.449   1.723   1.349  0.0991 -0.1008 -0.0629
46085W        W54885   4.237   4.102   1.262  0.0198 -0.2044 -0.2873
46086W        W54886   3.509   1.125  25.439  0.2606  0.3000  0.0334
46087W        W54887  16.339   3.386  29.867  0.1434  0.0265 -0.1267
46088W        W54888   6.569   5.943  22.625  0.1081 -0.0243  0.0750
46089W        W54889  16.764   0.004  31.567  0.0431 -0.1070  0.0039
46090W        W54890   7.036   4.408  22.491 -0.1746  0.0152 -0.0416
46091W        W54891   5.575   4.239  24.641 -0.0186  0.0239 -0.1556
46092W        W54892  14.319   4.480  26.169  0.0193 -0.0374 -0.1862
46093W        W54893   3.325   2.913  12.213 -0.0937 -0.0552 -0.0744
46094W        W54894  21.216   6.367  31.302 -0.0883  0.0666 -0.1029
46095W        W54895   2.584   3.017  13.076 -0.0973 -0.4224  0.0426
46096W        W54896   1.162   3.786  33.337  0.0235  0.3109  0.0263
46097W        W54897  15.326   1.538  27.027 -0.0827  0.0874  0.0952
46098W        W54898   0.048   2.571  33.133 -0.0702  0.1764 -0.1648
46099W        W54899  14.503   1.132  26.836 -0.1193  0.0208  0.2718
46100W        W54900   5.435   5.416  10.630  0.1732 -0.3791 -0.4846
46101W        W54901  18.307   4.417  32.376 -0.1580 -0.3957 -0.0661
46102W        W54902  20.453   3.525  30.334 -0.1713 -0.0602 -0.0971
46103W        W54903  15.120   3.355  24.836 -0.2946 -0.1416  0.0687
46104W        W54904  16.351   0.287  27.618  0.2596 -0.0717 -0.0082
46105W        W54905  24.848   5.367  29.275 -0.0637  0.0661 -0.0671
46106W        W54906  17.407   3.193  29.530 -0.0653  0.0011  0.0247
46107W        W54907   5.135   1.513   2.426  0.1800 -0.1306 -0.1708
46108W        W54908  25.674   2.129   9.528 -0.0598  0.1181  0.0987
46109W        W54909  24.456   4.236  35.125  0.3336 -0.0938  0.4189
46110W        W54910  13.619   1.417  22.482 -0.2581 -0.2055 -0.3888
46111W        W54911  12.323   5.480  26.791 -0.1846 -0.1990  0.4433
46112W        W54912  18.746   3.501   7.692 -0.2411  0.0062  0.0501
46113W        W54913   3.373   5.479  30.734 -0.1719  0.1475 -0.1453
46114W        W54914  21.580   4.966  29.967  0.5323  0.2581  0.0218
46115W        W54915  12.147   2.134  15.443 -0.1441  0.0610 -0.0697
46116W        W54916  13.652   6.176  21.971  0.4334 -0.1946 -0.2706
46117W        W54917  13.202   6.426  21.964  0.0251  0.0786  0.0038
46118W        W54918  20.593   3.506  29.817 -0.1591 -0.0662  0.0651
46119W        W54919  24.618   0.638  11.876  0.2260  0.0696 -0.0710
46120W        W54920  23.828   1.569   7.238 -0.3750 -0.0465 -0.1531
46121W        W54921  24.968   2.482  35.404 -0.0027 -0.1751 -0.0973
46122W        W54922   3.749   1.584   8.330 -0.0759  0.0179 -0.0246
46123W        W54923   6.968   1.471  22.060 -0.1027 -0.1912 -0.3202
46124W        W54924   2.518   0.485  20.897  0.0600 -0.2165  0.0765
46125W        W54925   0.759   4.570  22.979  0.0687 -0.1509 -0.1934
46126W        W54926   0.190   1.944   0.878 -0.2824 -0.0780 -0.0672
46127W        W54927  10.947   6.414  30.037 -0.0938 -0.2048  0.0257
46128W        W54928  10.571   4.194   4.974  0.1463 -0.0225  0.0396
46129W        W54929  11.014   3.723   1.561  0.1275 -0.4693  0.1320
46130W        W54930  20.781   3.569  32.688  0.0123  0.0772 -0.2774
46131W        W54931  20.339   1.711  29.210 -0.0402  0.0936  0.0722
46132W        W54932  22.635   5.528  27.739 -0.0515 -0.0219  0.0060
46133W        W54933  25.203   2.091  25.024  0.0530 -0.0922 -0.2998
46134W        W54934   3.116   0.934  25.751 -0.0029 -0.1464 -0.1243
46135W        W54935  11.252   0.904   3.822  0.2082 -0.2807  0.1014
46136W        W54936  18.914   6.537   1.737 -0.0091  0.2035 -0.1473
46137W        W54937  21.534   4.805  32.068  0.0843 -0.3604 -0.0658
46138W        W54938  10.638   6.190  27.115 -0.0872 -0.0711 -0.0895
46139W        W54939  17.442   5.045  34.649 -0.2893  0.1894 -0.0317
46140W        W54940  12.296   1.995   3.512 -0.1703 -0.0836 -0.2616
46141W        W54941   1.770   1.241   4.972  0.3429  0.1082  0.0502
46142W        W54942  16.875   0.954   5.063 -0.2627 -0.1724 -0.0945
46143W        W54943  14.315   5.506  21.838 -0.2100  0.1535  0.2809
46144W        W54944   7.196   1.243  27.631 -0.0270  0.0341 -0.2891
46145W        W54945  26.052   3.915   5.857 -0.2930  0.0894 -0.1837
46146W        W54946   2.839   5.917   8.977 -0.0149  0.0978 -0.4302
46147W        W54947   8.302   1.520   2.981 -0.0518  0.1175 -0.2718
46148W        W54948  16.504   1.286  30.703 -0.2570  0.0130 -0.0656
46149W        W54949   7.298   1.196  12.083  0.0697  0.4004 -0.3299
46150W        W54950  19.396   6.563  22.925  0.1974  0.2970 -0.0737
46151W        W54951  25.895   6.022  23.598  0.4945 -0.0935 -0.1569
46152W        W54952   4.060   1.789   4.231 -0.0676  0.0362 -0.1185
46153W        W54953  18.789   3.650   3.689 -0.2204 -0.1239  0.1140
46154W        W54954  10.772   6.450  31.364  0.3920 -0.0840  0.0118
46155W        W54955   3.462   2.838  15.748  0.2159 -0.1833 -0.0477
46156W        W54956  21.185   5.105  31.053  0.1676 -0.0813 -0.0397
46157W        W54957  14.805   0.672   5.327  0.3728  0.2224 -0.1715
46158W        W54958  25.607   1.387  12.668  0.0926 -0.1102  0.0563
46159W        W54959  21.162   0.634  29.072 -0.1539 -0.2536  0.0131
46160W        W54960  25.667   1.852  11.041  0.1106  0.1865 -0.2788
46161W        W54961  18.783   2.119  11.259  0.0699 -0.3274  0.3550
46162W        W54962  23.519   5.392   1.923  0.1077  0.2279 -0.0183
46163W        W54963   6.321   1.863  26.539 -0.4238  0.0218  0.0673
46164W        W54964  13.931   5.935  34.833  0.0538  0.0031  0.0070
46165W        W54965   9.903   3.820  32.391  0.0618 -0.0374 -0.1738
46166W        W54966  17.481   2.542  24.600 -0.0102 -0.1697  0.1911
46167W        W54967  18.387   2.679  26.986 -0.0382  0.1443  0.0246
46168W        W54968  25.013   4.061  13.520  0.1310 -0.1305 -0.1870
46169W        W54969  10.451   3.553  33.161  0.1003 -0.1872  0.2021
46170W        W54970  25.556   0.199   3.540  0.4030  0.0675 -0.3815
46171W        W54971   8.954   2.637  12.505 -0.1306  0.4573  0.0821
46172W        W54972  25.645   4.918  35.852  0.1291 -0.1573  0.1239
46173W        W54973   8.959   3.587  25.567 -0.1174  0.2477 -0.0055
46174W        W54974   0.577   1.303  20.898 -0.0237 -0.0981 -0.3395
46175W        W54975   1.459   1.601  10.883  0.3047 -0.0449 -0.1545
46176W        W54976  14.121   1.901  24.116 -0.3253 -0.3136  0.1282
46177W        W54977  17.079   0.687   7.657  0.0749 -0.1317 -0.1372
46178W        W54978   3.701   4.538  14.958 -0.0257 -0.1748  0.1178
46179W        W54979   8.698   3.271  27.886  0.0720 -0.1250  0.0402
46180W        W54980  24.560   2.116  25.395 -0.0128  0.2718 -0.1679
46181W        W54981  18.653   0.324  35.841 -0.1853 -0.0752  0.0075
46182W        W54982  25.194   0.552  34.324 -0.1584  0.1657  0.3228
46183W        W54983   9.660   6.348  28.892  0.3412  0.1318 -0.0229
46184W        W54984  13.972   4.285   4.144 -0.1093  0.3293  0.0008
46185W        W54985  15.188   0.631  29.698  0.0737  0.0914 -0.0381
46186W        W54986  12.162   2.340   6.850 -0.3436  0.1476  0.0251
46187W        W54987   5.279   3.143   3.171  0.0437 -0.0886 -0.1903
46188W        W54988   3.794   1.583  15.286  0.0921  0.0582 -0.1201
46189W        W54989   7.565   6.010  15.033 -0.2919 -0.1383  0.0970
46190W        W54990   9.007   2.847   2.978 -0.0786  0.3410  0.1259
46191W        W54991   0.209   5.776  34.701 -0.0490 -0.1745 -0.1395
46192W        W54992   9.579   3.471  11.411  0.2993 -0.2333  0.1496
46193W        W54993   7.614   4.197   3.225 -0.2416  0.3600 -0.0254
46194W        W54994   1.688   0.865  33.167 -0.0102  0.0623 -0.0812
46195W        W54995  25.679   5.895  12.025  0.0966 -0.4688 -0.1702
46196W        W54996  21.551   3.409  26.634  0.1634  0.3804  0.0126
46197W        W54997   5.605   2.905  27.836  0.3472 -0.2570  0.1534
46198W        W54998  23.039   0.298  24.284 -0.1406  0.0097 -0.0033
46199W        W54999  25.963   3.034  10.798 -0.1955 -0.0091  0.0689
46200W        W55000  11.988   0.059   2.364 -0.0375 -0.3450 -0.0592
46201W        W55001  12.109   2.903  25.203 -0.0753 -0.1951  0.1467
46202W        W55002  22.009   4.379  28.055 -0.0437  0.4180 -0.2735
46203W        W55003  14.905   3.263  27.758  0.0352 -0.0687 -0.0571
46204W        W55004  11.356   3.351  32.179  0.0227  0.1581  0.1663
46205W        W55005  19.659   1.731  21.485 -0.0152 -0.0860  0.3522
46206W        W55006   2.343   3.734   6.564  0.1309 -0.1551  0.0481
46207W        W55007  15.529   5.071  30.035  0.2441  0.0127  0.0131
46208W        W55008  19.083   4.142  33.208  0.1828 -0.0468  0.3837
46209W        W55009   8.844   0.195  24.604  0.1262  0.3277  0.0698
46210W        W55010   9.787   5.129   7.007 -0.2815 -0.3696  0.2497
46211W        W55011   5.975   1.215   5.088  0.4076  0.0287 -0.1181
46212W        W55012  13.696   6.265  31.631  0.0853 -0.0222  0.2648
46213W        W55013   1.873   0.236  14.797 -0.2957 -0.1049  0.1271
46214W        W55014   3.626   6.374  30.581 -0.0979  0.1849  0.1754
46215W        W55015  15.893   4.202  11.360  0.0127 -0.1159  0.1006
46216W        W55016  15.194   6.486  10.125  0.0014 -0.0078 -0.0139
46217W        W55017   8.050   6.220  32.287  0.0702  0.1342  0.3595
46218W        W55018  17.625   2.040  22.376  0.1677 -0.0445  0.0632
46219W        W55019   2.888   3.517  36.011 -0.0571 -0.1260 -0.0143
46220W        W55020   7.730   0.637   3.035 -0.2857  0.0381 -0.1938
46221W        W55021   7.348   4.420  31.338  0.2431 -0.3019  0.2276
46222W        W55022   5.059   4.534  29.343  0.2702 -0.2330 -0.0244
46223W        W55023  21.837   3.691  10.679 -0.2146 -0.0228 -0.2251
46224W        W55024   8.061   6.152  27.697 -0.0070 -0.0891 -0.2974
46225W        W55025  15.522   5.009  12.945 -0.2019  0.1814 -0.0700
46226W        W55026   4.486   2.699  29.551  0.0033  0.3309  0.2268
46227W        W55027  16.445   3.592  34.970  0.1091 -0.0350  0.1172
46228W        W55028   8.130   1.229  25.066 -0.2614 -0.2198 -0.3436
46229W        W55029  19.455   4.014  35.112 -0.2530 -0.1744 -0.0917
46230W        W55030   4.253   4.439   8.681 -0.2608  0.1075 -0.1103
46231W        W55031  19.590   4.955  11.798  0.1666 -0.0011 -0.1349
46232W        W55032  21.331   1.968  13.439 -0.1162  0.0113  0.0962
46233W        W55033   0.932   2.551  32.698 -0.1495  0.1522  0.2028
46234W        W55034   1.268   4.219  31.331 -0.0017  0.3584  0.0063
46235W        W55035   1.618   5.115  21.756  0.0557 -0.1494  0.0723
46236W        W55036  17.321   6.145   3.883  0.0720  0.2303  0.2811
46237W        W55037   3.869   3.760  31.867  0.0500  0.1479 -0.1313
46238W        W55038  11.124   0.856  22.783 -0.2260  0.1481  0.3261
46239W        W55039  15.282   3.665   3.383  0.2004  0.6927 -0.2228
46240W        W55040  23.449   1.172  22.807 -0.0649 -0.3988  0.0088
46241W        W55041  25.006   2.642  28.045  0.1924 -0.1396  0.1653
46242W        W55042   3.909   3.997  12.300  0.3421  0.1038  0.0412
46243W        W55043  10.407   5.758   5.473 -0.1201 -0.1199 -0.2341
46244W        W55044   7.569   2.245  25.945 -0.1702 -0.1575  0.0013
46245W        W55045  25.721   4.463   1.629 -0.2597  0.1841 -0.0360
46246W        W55046   5.466   2.972  23.969  0.3729  0.0313  0.1775
46247W        W55047   0.965   2.753  26.644 -0.1057  0.0900  0.0574
46248W        W55048  18.776   5.273   7.645  0.0874 -0.0794  0.1558
46249W        W55049   0.753   0.219   6.565 -0.0890 -0.2512  0.1299
46250W        W55050  26.368   5.279   5.634  0.3087  0.0136 -0.3714
46251W        W55051  14.604   6.521  30.851 -0.3458  0.0166  0.0568
46252W        W55052   0.340   5.516   7.442 -0.0304  0.0699 -0.1037
46253W        W55053  10.335   5.916  26.818 -0.3808 -0.2103  0.1301
46254W        W55054   4.275   1.795  32.954  0.0424 -0.2548  0.1187
46255W        W55055  21.457   2.242  10.726  0.0637  0.0862  0.1603
46256W        W55056  10.402   4.071   3.022  0.0640  0.1750 -0.1062
46257W        W55057   3.753   1.911  32.943 -0.0155 -0.0739 -0.0588
46258W        W55058   0.105   2.688   6.153 -0.1382 -0.1747  0.1213
46259W        W55059  23.086   5.398  34.801 -0.1125 -0.3357  0.0644
46260W        W55060  18.840   2.419  24.309  0.1189 -0.1465 -0.0146
46261W        W55061   5.604   2.709  27.390  0.1095  0.0815  0.0307
46262W        W55062  11.899   6.278  29.081  0.0732  0.2229 -0.2670
46263W        W55063   6.775   5.080   1.227  0.0828  0.0663 -0.1048
46264W        W55064   0.532   3.235  14.140 -0.0412  0.2150 -0.1107
46265W        W55065  17.093   3.959  27.284  0.0490 -0.0660  0.1205
46266W        W55066  23.491   5.397  27.416  0.1685 -0.1138 -0.1298
46267W        W55067   7.195   3.235  10.550 -0.2939 -0.0084 -0.0617
46268W        W55068  10.106   2.380   2.302 -0.1395 -0.2131 -0.1241
46269W        W55069  21.229   1.222   2.545  0.0290 -0.1394  0.1902
46270W        W55070  16.432   4.882   7.868  0.0669  0.0810  0.0458
46271W        W55071  22.081   4.045   9.829  0.2789  0.1378 -0.0538
46272W        W55072  20.881   1.270  12.790 -0.2698  0.3037  0.0285
46273W        W55073  12.483   0.575  27.598 -0.0952 -0.1888  0.1240
46274W        W55074   8.245   6.178  24.257 -0.0690  0.0375  0.1186
46275W        W55075   4.133   2.023   7.487 -0.0383 -0.2647 -0.0990
46276W        W55076   2.529   3.573   7.125 -0.1914 -0.1763  0.1529
46277W        W55077  18.449   3.530  33.443  0.1447  0.2409  0.0077
46278W        W55078  23.899   2.916   0.245 -0.1300  0.0599  0.3112
46279W        W55079  22.382   4.952   3.786  0.2491 -0.0936 -0.0617
46280W        W55080  13.469   3.945  13.448 -0.1238 -0.0402  0.2649
46281W        W55081  22.109   5.641   2.927  0.0169  0.0589  0.3560
46282W        W55082  23.411   3.680   2.424 -0.2042  0.3373 -0.1182
46283W        W55083   6.669   0.921   2.221 -0.1322  0.3775 -0.2252
46284W        W55084  20.447   4.204  12.246 -0.0448  0.3617  0.2492
46285W        W55085   5.341   1.893  26.238 -0.1317  0.0289  0.2359
46286W        W55086   8.156   1.695   8.260  0.0463 -0.1002 -0.1542
46287W        W55087  17.799   5.496  26.669  0.2251 -0.2828 -0.1313
46288W        W55088   5.315   2.766   3.930  0.1903  0.2420  0.2698
46289W        W55089  22.430   6.113   6.208 -0.0718  0.1719 -0.0420
46290W        W55090  21.905   2.748   6.998 -0.0290  0.0362 -0.2163
46291W        W55091  21.139   5.362  28.246 -0.0367  0.2011 -0.2279
46292W        W55092  19.326   0.676  13.905 -0.2973 -0.0811  0.2633
46293W        W55093   7.901   1.082  33.808 -0.0696  0.1190  0.3398
46294W        W55094  22.098   0.525   9.047  0.1744 -0.1682  0.0048
46295W        W55095  12.105   5.625  25.849 -0.0671 -0.0136 -0.0334
46296W        W55096  22.583   1.534   0.865 -0.2479 -0.1459  0.2005
46297W        W55097   3.475   3.957   2.944 -0.1258  0.0401  0.3015
46298W        W55098   2.504   5.101   3.886 -0.1875 -0.0766  0.2564
46299W        W55099   1.388   4.095  30.557 -0.1676  0.4252  0.0987
46300W        W55100  13.067   1.944   6.023  0.1127 -0.1076 -0.1275
46301W        W55101  18.417   1.453   3.427 -0.0030  0.0223 -0.0757
46302W        W55102  10.304   6.164   7.807 -0.0266 -0.1639  0.1088
46303W        W55103  19.375   2.379  33.681 -0.4896  0.2432 -0.4013
46304W        W55104   0.664   4.448  33.305  0.2839  0.3146 -0.1663
46305W        W55105   2.983   6.454  29.300  0.3757  0.1681 -0.0345
46306W        W55106  14.530   3.437   6.026 -0.2068  0.0557  0.1506
46307W        W55107   2.308   3.330  29.096  0.1975 -0.2562  0.0742
46308W        W55108  20.383   4.944  13.585 -0.1051 -0.0547  0.1912
46309W        W55109  23.573   0.531   4.938 -0.1840  0.0008 -0.0016
46310W        W55110  14.331   6.118  29.872 -0.1657 -0.0067  0.3179
46311W        W55111   0.990   2.951  14.140  0.1743  0.0284  0.1043
46312W        W55112  16.940   6.542  20.929  0.4612  0.2897 -0.0954
46313W        W55113  20.287   2.278  13.029  0.1722 -0.1106 -0.1223
46314W        W55114  25.260   3.613  10.635  0.0733  0.1635  0.0299
46315W        W55115  25.109   4.148  21.210  0.2642  0.2339 -0.1950
46316W        W55116   8.961   6.522  31.187 -0.0719 -0.0796 -0.0398
46317W        W55117   5.548   1.787  12.924 -0.0932 -0.1257 -0.2505
46318W        W55118  17.996   0.840  14.489  0.0219 -0.1324 -0.0039
46319W        W55119  15.059   0.076   7.786 -0.1874 -0.1538  0.0917
46320W        W55120  21.589   2.221   9.769  0.1470 -0.1198  0.4291
46321W        W55121   9.035   0.054  21.929  0.0567 -0.0913  0.1338
46322W        W55122   9.472   1.219   5.486 -0.1384  0.2174  0.0666
46323W        W55123  24.470   5.110  31.254 -0.0167  0.2285  0.0395
46324W        W55124   8.774   3.347  25.149  0.1137  0.1147  0.2850
46325W        W55125   6.398   2.090  23.134 -0.0519 -0.1504 -0.0087
46326W        W55126  15.349   4.508   3.055 -0.0806 -0.0564  0.2792
46327W        W55127  19.052   6.547  22.289  0.0149 -0.0801 -0.0804
46328W        W55128  18.829   6.462  24.611 -0.3267  0.2453  0.0672
46329W        W55129   8.170   1.603  30.874 -0.2308 -0.1700 -0.0750
46330W        W55130  21.339   3.886   1.626 -0.0704 -0.0578 -0.2487
46331W        W55131   0.337   1.065   0.519  0.1467 -0.0521  0.0996
46332W        W55132  20.491   4.044  30.463  0.0796 -0.2215  0.1181
46333W        W55133  23.094   0.528  32.152 -0.0229  0.0895  0.2193
46334W        W55134   4.714   1.610   5.651 -0.1823  0.3506 -0.2321
46335W        W55135  25.130   3.813  28.400 -0.0196 -0.0003  0.0120
46336W        W55136   8.356   0.641   2.114  0.0713  0.1562  0.1334
46337W        W55137   2.740   2.579  12.760  0.3921 -0.0101  0.1454
46338W        W55138   4.353   2.682   8.791 -0.1083 -0.2364  0.0011
46339W        W55139  26.271   6.524  25.604 -0.0465 -0.0284 -0.0416
46340W        W55140   5.052   2.777  14.716  0.0800  0.1024 -0.0930
46341W        W55141   4.043   4.010  10.615  0.0369 -0.2914 -0.0787
46342W        W55142  25.037   5.306  28.788  0.3133  0.2671  0.3999
46343W        W55143  12.651   4.838   4.529 -0.1417  0.0698 -0.1350
46344W        W55144  11.112   1.613  33.751 -0.1621  0.3352  0.2300
46345W        W55145  15.526   2.854   5.791  0.1326  0.0926  0.1067
46346W        W55146   1.170   5.098  32.053  0.1464 -0.0978  0.1350
46347W        W55147  10.553   0.439   4.002  0.2514  0.1041 -0.1372
46348W        W55148   9.047   2.588   5.657 -0.0039  0.0832 -0.0580
46349W        W55149   6.045   5.900   6.356  0.0098 -0.3058  0.1404
46350W        W55150  20.579   5.563  29.568  0.0191  0.1193  0.0313
46351W        W55151  17.878   2.837  26.520  0.1113 -0.3197 -0.2407
46352W        W55152  13.762   2.772   3.297  0.1865  0.1154  0.1053
46353W        W55153  15.407   1.415  33.410 -0.0701  0.4048 -0.0917
46354W        W55154   7.035   4.035  34.216 -0.1743  0.1380  0.1930
46355W        W55155  18.925   3.951   6.803 -0.0861  0.0197  0.0290
46356W        W55156  21.161   5.452  25.739  0.0548 -0.0182  0.0654
46357W        W55157  14.597   0.007  27.529  0.1049 -0.0693  0.1183
46358W        W55158  11.543   5.970  34.680  0.1882  0.0386 -0.1506
46359W        W55159   0.477   5.330   4.387 -0.0672 -0.0827  0.1067
46360W        W55160  12.356   5.173   4.691  0.0353 -0.0020  0.3000
46361W        W55161   5.289   1.857   2.053  0.1225 -0.0470  0.2615
46362W        W55162  11.331   1.017  24.152 -0.1364 -0.2578  0.1058
46363W        W55163  24.702   1.432  23.765 -0.0624  0.0386 -0.1034
46364W        W55164  21.265   5.900  35.776 -0.1854  0.0010 -0.0758
46365W        W55165  13.070   5.679  34.514  0.0086 -0.0717  0.0616
46366W        W55166  25.985   3.655   8.923 -0.1715  0.3463  0.1366
46367W        W55167   3.418   3.714  23.958  0.3537 -0.1844 -0.2011
46368W        W55168  10.597   4.739  25.723  0.1323  0.0482  0.1497
46369W        W55169  11.484   4.529  33.737 -0.0347  0.0807 -0.1227
46370W        W55170  14.502   0.577  12.656  0.2327  0.4193 -0.0026
46371W        W55171   5.194   3.832  33.790 -0.1131  0.0300  0.0150
46372W        W55172  11.296   0.916  12.855 -0.0150  0.1452 -0.1138
46373W        W55173  11.659   1.924   2.824 -0.0350 -0.1662 -0.2162
46374W        W55174   5.395   0.138   8.418 -0.1344  0.0344 -0.1148
46375W        W55175  13.694   0.557   3.635  0.0271  0.2219 -0.0886
46376W        W55176  13.517   0.273  25.911  0.1258 -0.3144  0.2281
46377W        W55177   1.317   4.166  10.937  0.1007  0.0923 -0.1338
46378W        W55178   0.078   6.102  21.237  0.1006 -0.1076 -0.0093
46379W        W55179   2.725   0.340  15.478 -0.3132 -0.0855  0.1024
46380W        W55180  15.808   1.977  35.390  0.0563 -0.2675  0.0517
46381W        W55181  16.132   4.057  14.932  0.0041  0.1730  0.0027
46382W        W55182  12.559   0.721  14.601 -0.2539 -0.0642 -0.1591
46383W        W55183  19.332   6.239   7.464 -0.0021  0.0565 -0.3723
46384W        W55184   2.707   2.524   7.212 -0.3584  0.0116 -0.2003
46385W        W55185  10.551   5.149   1.517 -0.0226 -0.2422  0.1580
46386W        W55186  12.078   2.633   4.086  0.0061  0.0094 -0.5324
46387W        W55187  20.700   6.056  23.862 -0.1009 -0.0060 -0.0436
46388W        W55188  17.301   0.769   3.529 -0.0988  0.0604  0.0840
46389W        W55189   7.987   4.974  27.152  0.0486  0.2061 -0.1921
46390W        W55190  12.663   1.608  25.008  0.0114  0.0930 -0.2003
46391W        W55191   7.510   0.849   6.759  0.0139 -0.1408  0.0965
46392W        W55192  21.308   5.541  32.921 -0.0403  0.1258 -0.1856
46393W        W55193  25.686   5.727   6.536 -0.0493  0.0381  0.1583
46394W        W55194  10.616   3.036  25.446 -0.1323 -0.0334  0.3541
46395W        W55195  24.624   5.864   4.134 -0.0029  0.0392 -0.1310
46396W        W55196   5.587   4.532  31.950 -0.0649 -0.1205 -0.0293
46397W        W55197  22.275   3.708  27.138  0.0521  0.3535 -0.3235
46398W        W55198  15.604   2.814  34.989 -0.0427 -0.0290 -0.0108
46399W        W55199  26.386   1.648  32.773 -0.0719 -0.3930  0.0715
46400W        W55200  12.865   3.881   1.836  0.0435 -0.2022 -0.1259
46401W        W55201  18.698   0.534   9.406  0.0542  0.0492  0.2614
46402W        W55202  22.829   2.244   3.846  0.1336 -0.2591 -0.0713
46403W        W55203  24.782   1.233  10.871  0.3733 -0.0516  0.2342
46404W        W55204  20.323   4.582  28.620  0.3141 -0.1896  0.0710
46405W        W55205  17.934   5.735  21.064  0.0917  0.0091 -0.0606
46406W        W55206  25.570   4.225  15.225 -0.2451  0.4335  0.1996
46407W        W55207   6.091   3.539  23.688 -0.3231  0.1249  0.3564
46408W        W55208  15.107   2.211  11.554  0.1729 -0.1343  0.0967
46409W        W55209  17.549   5.126   4.967 -0.1805 -0.0173 -0.1324
46410W        W55210  10.344   0.661   4.384 -0.2195  0.0670 -0.1658
46411W        W55211   4.598   5.722  26.825 -0.1001 -0.0633  0.3106
46412W        W55212  13.370   5.027  11.468 -0.3568  0.0280 -0.0100
46413W        W55213  11.274   0.300  30.875 -0.3091  0.0196 -0.2092
46414W        W55214  20.794   0.911  14.206 -0.2871 -0.0192  0.0911
46415W        W55215  13.884   6.117  31.177  0.2799 -0.2066  0.0187
46416W        W55216   6.636   0.796  15.360  0.1293  0.0395  0.1699
46417W        W55217   8.085   0.934  29.341  0.0484 -0.0836  0.3909
46418W        W55218  19.266   0.598  32.262 -0.0090 -0.1363  0.1260
46419W        W55219  19.874   4.699  13.363 -0.2741  0.0631  0.3364
46420W        W55220  10.041   1.906  25.966 -0.1235 -0.1022  0.2939
46421W        W55221   2.759   5.187   0.471 -0.1676 -0.1231  0.0278
46422W        W55222   4.702   0.421  22.972 -0.2239  0.1759  0.1955
46423W        W55223  25.399   3.593   2.683  0.0877  0.1975  0.5396
46424W        W55224   4.145   3.056  28.748  0.0718  0.0676 -0.1258
46425W        W55225  22.122   0.399  10.056 -0.0627  0.0841 -0.4133
46426W        W55226  11.529   0.585  28.908 -0.2261 -0.1879  0.0072
46427W        W55227   0.897   2.580  21.509  0.1715  0.0586 -0.2285
46428W        W55228  26.237   1.398  33.652 -0.0615 -0.2297  0.0576
46429W        W55229  24.062   2.826  35.015 -0.1217 -0.0273 -0.2184
46430W        W55230   3.181   3.684  10.365 -0.0142  0.0240 -0.1439
46431W        W55231   5.650   6.057  11.114 -0.1611 -0.0803 -0.0107
46432W        W55232  25.367   2.664  26.962 -0.1922  0.0457 -0.2299
46433W        W55233   9.332   1.533   9.506 -0.2322 -0.2376  0.0655
46434W        W55234  14.208   0.906   9.726  0.0466 -0.0509  0.4477
46435W        W55235   8.327   1.211   8.438 -0.2004  0.0346  0.0773
46436W        W55236   3.173   3.732  13.943  0.1725 -0.1801  0.3621
46437W        W55237  14.754   4.009  12.775 -0.1541  0.2544  0.1581
46438W        W55238   7.951   2.835   6.325  0.1177  0.1411 -0.1107
46439W        W55239   3.017   1.780  10.941  0.0471 -0.2268 -0.0723
46440W        W55240   1.011   5.826  21.119 -0.1224 -0.0307  0.1072
46441W        W55241  22.545   4.254  13.530 -0.2986  0.0386  0.3030
46442W        W55242  25.192   2.692  33.751 -0.2185  0.1642 -0.1758
46443W        W55243  25.289   2.445  35.058  0.0325 -0.1751  0.2151
46444W        W55244   0.717   3.604   5.209  0.0128  0.4239  0.0303
46445W        W55245  19.296   3.701  23.255 -0.0778  0.0232 -0.1882
46446W        W55246  25.373   4.566   7.922 -0.3250 -0.0734  0.0257
46447W        W55247   3.037   5.323  33.675 -0.1075 -0.0048 -0.0859
46448W        W55248   0.231   4.168   7.494 -0.1787  0.0951  0.0693
46449W        W55249   8.736   5.396  12.624 -0.3619  0.0371 -0.0969
46450W        W55250  10.824   5.937  11.691  0.1307  0.2086  0.1380
46451W        W55251   6.459   4.945   6.683  0.0882 -0.3658 -0.0369
46452W        W55252  16.102   6.225   3.096  0.0042  0.2425 -0.3010
46453W        W55253   5.287   5.534  25.033 -0.0797  0.0123  0.0145
46454W        W55254   1.666   3.173   6.942 -0.1652 -0.2901  0.2137
46455W        W55255  22.525   1.114  13.426  0.0562  0.1463  0.0109
46456W        W55256   6.599   1.318   0.288 -0.1129  0.2821 -0.0959
46457W        W55257  20.541   0.849  11.078 -0.1567  0.2680 -0.2636
46458W        W55258  25.641   5.945  14.344 -0.0501  0.1256  0.0140
46459W        W55259  19.363   3.143  10.767 -0.2239 -0.1221  0.0802
46460W        W55260   0.866   3.247   8.466  0.2239  0.1974 -0.0166
46461W        W55261  16.180   1.023   8.115  0.0111  0.1017 -0.0319
46462W        W55262  15.855   0.186  14.938  0.0044 -0.2354  0.1205
46463W        W55263  14.276   4.039   8.715  0.2488  0.1606  0.0604
46464W        W55264   2.570   5.686  21.970  0.1271  0.2436  0.1757
46465W        W55265  14.181   3.443  30.356  0.0935 -0.1088  0.2208
46466W        W55266   2.429   0.130  34.275  0.0505  0.1891 -0.2875
46467W        W55267  10.926   0.038  14.487 -0.1002  0.0964 -0.0603
46468W        W55268  10.188   0.067  22.983  0.1425  0.2084 -0.1329
46469W        W55269  19.627   4.397   3.651 -0.0249 -0.0144 -0.0156
46470W        W55270  14.566   1.541  29.964  0.0606  0.1934  0.1223
46471W        W55271  12.080   2.006   4.892  0.3567  0.0039 -0.1588
46472W        W55272  22.952   5.631  12.126 -0.0814  0.0465 -0.0389
46473W        W55273   7.414   5.708  11.618  0.0048 -0.0381 -0.0081
46474W        W55274  24.147   0.241   1.616 -0.1037  0.2802  0.1992
46475W        W55275   7.538   0.787   2.183 -0.0201  0.0650  0.2495
46476W        W55276  10.249   4.087   3.859  0.1853 -0.1132  0.1669
46477W        W55277   2.596   1.683  13.328  0.1202  0.3750 -0.0439
46478W        W55278   0.069   6.192  12.626 -0.0102  0.0279 -0.1108
46479W        W55279   2.085   6.212  28.219 -0.1531 -0.2719 -0.2582
46480W        W55280  19.582   5.069  28.800  0.3416  0.0349  0.0234
46481W        W55281  10.795   4.897  20.230 -0.0987  0.0017  0.3300
46482W        W55282   1.320   1.695  33.764  0.0427 -0.2419  0.2307
46483W        W55283  25.860   2.891  26.847 -0.2646  0.1656  0.1623
46484W        W55284  12.864   0.260  33.837  0.0106 -0.1003 -0.0818
46485W        W55285  12.540   0.309   9.586 -0.0625  0.1044 -0.1125
46486W        W55286  22.416   1.234   0.480  0.0652  0.1028 -0.1329
46487W        W55287  23.402   4.151  11.393 -0.0516  0.0045  0.0682
46488W        W55288  16.561   2.943  23.704 -0.0350 -0.1825 -0.1624
46489W        W55289  16.752   5.187  28.447 -0.0182  0.1355  0.0131
46490W        W55290  10.140   2.594   4.262 -0.2188  0.0987 -0.2564
46491W        W55291  15.795   6.548   0.240 -0.1780  0.1092 -0.1629
46492W        W55292  17.245   4.337  23.255 -0.0806  0.0661  0.0324
46493W        W55293   9.559   5.895  28.588 -0.0371  0.1464 -0.1306
46494W        W55294   6.210   5.915  33.279 -0.0446  0.1400 -0.2521
46495W        W55295  24.140   0.629  13.223 -0.0308  0.0828  0.1647
46496W        W55296   3.028   5.067  29.960  0.1855 -0.1807  0.0477
46497W        W55297   3.091   1.238  23.647  0.1753  0.1899  0.0271
46498W        W55298  17.681   0.416   3.548  0.1493  0.0611  0.0810
46499W        W55299  10.859   0.490  25.819 -0.1480 -0.3216  0.0505
46500W        W55300  11.285   0.376  10.771 -0.0394 -0.0423  0.1162
46501W        W55301  23.834   0.159  14.569  0.0753  0.3100  0.1601
46502W        W55302  12.029   2.838  23.072  0.0133  0.1400 -0.2569
46503W        W55303   1.303   1.218  30.262 -0.1685  0.2602 -0.2421
46504W        W55304  11.940   2.272  24.189  0.2453  0.1643  0.0453
46505W        W55305  18.518   5.787  21.151 -0.1311 -0.0801  0.1951
46506W        W55306   4.692   2.621  27.845  0.1137 -0.1237 -0.3092
46507W        W55307  21.119   3.398   1.529 -0.1522 -0.1651 -0.0986
46508W        W55308  25.425   3.170  26.791  0.1679  0.2650  0.1763
46509W        W55309   8.622   5.735  30.872 -0.2484 -0.1768 -0.1553
46510W        W55310  21.185   0.894  25.090  0.0605  0.1471 -0.1300
46511W        W55311   9.130   4.518   4.572 -0.1288 -0.0983 -0.3116
46512W        W55312   0.111   1.381  13.381  0.1083 -0.0174 -0.1099
46513W        W55313  22.562   5.092   6.239  0.2144  0.0648 -0.1852
46514W        W55314  14.637   6.115  33.794  0.0005 -0.0709  0.3484
46515W        W55315  14.549   1.925  32.077 -0.1813  0.0386  0.2084
46516W        W55316  21.356   2.651  21.500  0.1308 -0.0191 -0.2134
46517W        W55317  17.216   3.418   4.762  0.1268 -0.1283 -0.1541
46518W        W55318   5.711   4.143  12.213  0.0874 -0.0176  0.2000
46519W        W55319   2.376   1.167  21.641 -0.1548  0.1099 -0.3276
46520W        W55320  10.965   6.554  33.208 -0.3488  0.2279 -0.0714
46521W        W55321  25.506   2.042  13.896  0.0250  0.0165 -0.0191
46522W        W55322  13.645   6.333  28.965  0.3638 -0.0060 -0.3009
46523W        W55323  11.274   6.166  21.385  0.1389 -0.0339  0.1015
46524W        W55324   6.435   2.107   9.250  0.0641  0.1871  0.3581
46525W        W55325  12.464   5.459  29.464  0.1024 -0.2886  0.0955
46526W        W55326   8.206   0.436   2.965  0.1359  0.0887  0.3110
46527W        W55327  22.430   0.015   1.429  0.2577  0.1385  0.2677
46528W        W55328  24.341   4.115  31.463  0.0305 -0.0280  0.2564
46529W        W55329  17.704   6.005  14.347 -0.1625  0.3499  0.1020
46530W        W55330  20.615   2.616  27.109 -0.1360  0.0137  0.1718
46531W        W55331  13.438   5.063   5.779  0.1724 -0.1381  0.1683
46532W        W55332  11.932   5.432   8.926  0.0393 -0.0217  0.1349
46533W        W55333   2.333   0.869  28.244 -0.0311 -0.1015 -0.0930
46534W        W55334  25.238   3.473   3.265 -0.2565 -0.3023  0.0870
46535W        W55335  19.861   2.828   7.592  0.1798  0.1252 -0.2706
46536W        W55336  12.859   3.206   8.290  0.0227  0.1597  0.0479
46537W        W55337   1.734   2.341   0.681 -0.1295  0.2733  0.1228
46538W        W55338   6.818   1.476  23.298  0.3151 -0.1460 -0.1872
46539W        W55339  16.589   4.443  24.880  0.2570 -0.0803 -0.2678
46540W        W55340  10.348   0.306  35.610  0.0669  0.0521  0.3384
46541W        W55341  23.119   0.296   1.395 -0.2067  0.2588  0.0546
46542W        W55342   3.013   5.196  26.116  0.0442  0.1038 -0.1970
46543W        W55343   9.664   5.802  12.023 -0.1994  0.1864  0.0932
46544W        W55344   2.217   5.064   7.897  0.0518  0.2748  0.0787
46545W        W55345  15.022   0.436  25.293 -0.0370  0.0508 -0.0095
46546W        W55346   8.323   4.456   0.316 -0.3696 -0.0953 -0.0867
46547W        W55347   3.905   4.990  33.698  0.0721 -0.0784  0.1411
46548W        W55348   6.559   5.036  25.267 -0.1974  0.0440 -0.3419
46549W        W55349   9.599   6.423  14.226  0.0073  0.4582 -0.5329
46550W        W55350  11.576   3.431  21.816 -0.0341  0.1274  0.1156
46551W        W55351  24.253   5.942   5.486  0.0380 -0.5382 -0.1855
46552W        W55352  25.311   6.496  11.036  0.1050 -0.4724  0.1650
46553W        W55353  14.257   3.047  28.959  0.1059 -0.3898  0.1394
46554W        W55354  19.389   0.331  22.548  0.0218  0.0162  0.4811
46555W        W55355   4.211   1.078  30.861  0.0566 -0.0765 -0.1382
46556W        W55356  24.222   6.042   4.975  0.2018 -0.0284 -0.0426
46557W        W55357  12.642   6.192   8.513  0.1335 -0.0343 -0.1314
46558W        W55358   1.576   0.509  28.791 -0.1275  0.0855  0.0948
46559W        W55359   2.517   4.735  33.819 -0.2473  0.1136 -0.1507
46560W        W55360   9.038   3.346  24.704 -0.3848  0.1812 -0.0364
46561W        W55361  20.365   2.963  27.944  0.0983  0.0358  0.1198
46562W        W55362   9.477   4.575  30.298 -0.1649  0.0798  0.1901
46563W        W55363  22.165   0.442   0.445  0.0091 -0.1004 -0.0246
46564W        W55364  11.648   0.802  22.918  0.1210 -0.2539 -0.2225
46565W        W55365  20.457   4.183   7.950 -0.0412 -0.1468 -0.1635
46566W        W55366   4.977   3.274  21.151  0.0739 -0.1518  0.0523
46567W        W55367  14.518   3.669   6.498 -0.0902 -0.0015  0.0694
46568W        W55368  16.185   6.300   4.273  0.1952  0.0898  0.3184
46569W        W55369   3.217   4.533   0.203  0.0919  0.1783 -0.2787
46570W        W55370  25.937   3.044  28.338 -0.0025  0.2424 -0.5187
46571W        W55371  10.045   4.890   4.387 -0.0883 -0.4214 -0.1473
46572W        W55372   9.099   3.461  26.263 -0.0465 -0.1837 -0.0899
46573W        W55373  23.971   5.251  31.290 -0.1920 -0.4774 -0.1520
46574W        W55374   3.178   3.209  21.650  0.0837  0.1063  0.0164
46575W        W55375  15.491   0.566   8.486  0.1075 -0.3846  0.0778
46576W        W55376  14.262   2.199  12.246  0.0559 -0.0676 -0.1198
46577W        W55377  19.981   5.006   0.355 -0.1282  0.0006 -0.2608
46578W        W55378   3.032   1.726   7.776 -0.2839  0.0126  0.0220
46579W        W55379  17.964   2.218  32.433  0.0058 -0.1003  0.1551
46580W        W55380  16.557   0.855  26.694 -0.0227  0.1081 -0.1887
46581W        W55381   9.542   6.419  22.519  0.0995 -0.0565 -0.2066
46582W        W55382  10.325   1.166  31.192 -0.2202 -0.0036  0.2790
46583W        W55383  25.018   6.330  12.101  0.0699 -0.2768 -0.3777
46584W        W55384   2.212   6.156  13.321  0.2473 -0.2171  0.2559
46585W        W55385   0.695   5.650  34.877 -0.0467  0.2436  0.2066
46586W        W55386  11.745   3.741  25.508 -0.0213 -0.0119 -0.0749
46587W        W55387  14.348   2.804  27.606 -0.0368 -0.0312 -0.0818
46588W        W55388  20.595   4.992  28.851  0.1509 -0.2539 -0.0110
46589W        W55389   1.840   0.932   7.826  0.0107 -0.0216 -0.0759
46590W        W55390  15.579   5.761  24.517  0.3473  0.3388 -0.0917
46591W        W55391  21.638   4.575  32.642 -0.2289 -0.1313  0.2434
46592W        W55392   1.402   2.632  33.328  0.2069 -0.1611 -0.1534
46593W        W55393   5.054   0.724  15.344 -0.2297 -0.2060 -0.4319
46594W        W55394   7.496   2.519  27.219  0.2575 -0.0064  0.2343
46595W        W55395  23.892   4.593  27.832 -0.0923  0.2503 -0.2282
46596W        W55396   7.592   3.617  27.601 -0.1289  0.0695  0.2528
46597W        W55397   3.928   3.573  14.280 -0.2631 -0.1868 -0.0653
46598W        W55398  19.027   4.319  27.990 -0.0467 -0.0401 -0.3240
46599W        W55399   3.231   1.461   8.192  0.1749 -0.0437  0.1379
46600W        W55400  16.542   1.015  36.034 -0.1154 -0.0144  0.2325
46601W        W55401  15.694   4.338  27.417  0.1315  0.1477 -0.2477
46602W        W55402   4.198   6.548  10.188 -0.0576 -0.1929 -0.1366
46603W        W55403  23.887   1.497  13.946  0.0510  0.0537 -0.0745
46604W        W55404   0.050   1.131  34.997  0.1647 -0.0901  0.2385
46605W        W55405  19.100   5.619  12.364  0.1802  0.2516 -0.2712
46606W        W55406  11.947   0.363  27.622 -0.2753  0.0711 -0.2105
46607W        W55407  18.790   1.597  10.105  0.0536  0.0062  0.0991
46608W        W55408  19.472   3.553  12.834  0.1528 -0.3257  0.1182
46609W        W55409  11.370   5.595   0.019 -0.2930 -0.0745 -0.0482
46610W        W55410   2.963   1.318  13.166 -0.2506 -0.0312  0.1058
46611W        W55411  20.656   0.660  21.433 -0.0262  0.0234 -0.1599
46612W        W55412  10.858   1.713   7.346 -0.0047  0.0538  0.1126
46613W        W55413   2.774   3.119  14.058  0.1705 -0.2047  0.0764
46614W        W55414   0.237   4.978  35.209 -0.0697 -0.2445 -0.1154
46615W        W55415  10.829   5.239   6.394 -0.4763  0.1157 -0.4053
46616W        W55416   8.224   0.429  14.043  0.1640  0.0276 -0.1534
46617W        W55417  13.542   4.782  13.271  0.0229  0.0062 -0.0816
46618W        W55418   9.122   6.078  11.223 -0.0079 -0.0188  0.2187
46619W        W55419   3.569   3.181  33.156  0.3510 -0.0269  0.0192
46620W        W55420   3.922   5.264   8.224  0.0730  0.0124 -0.4248
46621W        W55421   0.096   2.113  33.981 -0.3149 -0.1553  0.5350
46622W        W55422  19.859   2.916   6.656  0.2928 -0.1926 -0.0638
46623W        W55423  10.475   5.314  32.743 -0.1125 -0.0203  0.0047
46624W        W55424   6.829   1.050  34.888 -0.0926  0.0129  0.3850
46625W        W55425  14.021   6.099   2.474  0.0243  0.0045  0.0411
46626W        W55426  21.306   0.607   6.144  0.0268  0.1712  0.1327
46627W        W55427   6.559   3.047  24.967 -0.0272 -0.0225 -0.2356
46628W        W55428  23.867   2.717   7.722 -0.2700  0.0307  0.0175
46629W        W55429  11.597   6.273  15.302 -0.2492 -0.1393 -0.0292
46630W        W55430   7.308   2.721  27.630  0.0552 -0.0279 -0.2567
46631W        W55431  14.034   2.670  34.812  0.1421  0.1467 -0.1881
46632W        W55432   3.826   2.806  10.638  0.0567  0.1259  0.3417
46633W        W55433  21.509   2.075   7.124 -0.0476 -0.2261  0.0088
46634W        W55434  24.855   1.581  32.170 -0.3071 -0.2708 -0.1666
46635W        W55435  16.603   1.791  31.002  0.0086  0.4333 -0.0167
46636W        W55436   7.604   1.261  33.410  0.1084 -0.1649 -0.1181
46637W        W55437  17.433   6.240  24.987  0.2372  0.0124 -0.2565
46638W        W55438   7.407   5.418  31.829 -0.4160  0.0589 -0.0420
46639W        W55439   4.191   3.739  11.318  0.0888  0.0534  0.1442
46640W        W55440  22.894   4.900   3.914  0.2038  0.1977 -0.0968
46641W        W55441   3.636   2.081  22.610 -0.0037  0.0403  0.1597
46642W        W55442  14.662   0.784  29.506  0.0206  0.0232  0.1532
46643W        W55443  23.688   5.853   9.680  0.0047  0.0632 -0.2192
46644W        W55444   7.028   3.240  25.662 -0.0962  0.2084 -0.2266
46645W        W55445   7.449   2.416  28.934 -0.2040 -0.0809 -0.1877
46646W        W55446  14.560   5.726  15.065  0.2400  0.0397  0.0841
46647W        W55447  15.386   0.790  25.315  0.1150 -0.0064 -0.0047
46648W        W55448  21.303   0.023  30.494 -0.1156  0.0114 -0.0141
46649W        W55449  10.983   6.374  28.649  0.1931 -0.1688 -0.0039
46650W        W55450  20.674   0.296   4.971 -0.1064  0.2774 -0.0721
46651W        W55451  17.602   4.559  29.005 -0.1443 -0.0761  0.1537
46652W        W55452   7.059   0.341   9.628 -0.2275  0.0059  0.1716
46653W        W55453  15.539   6.019  30.198 -0.2669 -0.1072  0.0263
46654W        W55454   4.179   0.715  32.677  0.1462 -0.0213  0.2558
46655W        W55455   4.918   4.609  14.676 -0.0390 -0.3965  0.1208
46656W        W55456  15.234   1.590   7.819 -0.1850  0.3261  0.0413
46657W        W55457   6.646   5.163  12.823  0.1242 -0.1888  0.1870
46658W        W55458  11.084   0.437  34.116 -0.1112  0.2654  0.1877
46659W        W55459   4.285   3.029  12.513 -0.1195 -0.2314 -0.0778
46660W        W55460   4.394   1.644   9.192 -0.1831  0.3754  0.0184
46661W        W55461   7.697   2.957  27.866 -0.0416 -0.1664 -0.2454
46662W        W55462   9.162   2.779   6.663  0.0527 -0.1477  0.4698
46663W        W55463   9.904   3.343   9.033  0.2279  0.2470  0.0104
46664W        W55464   5.871   3.487  29.029 -0.0870 -0.1184 -0.0643
46665W        W55465  11.702   0.567   6.750  0.2151  0.0269  0.0247
46666W        W55466   4.638   4.126   9.285 -0.0323  0.0262 -0.0525
46667W        W55467  13.566   3.924  14.770  0.0537  0.2508  0.0267
46668W        W55468   9.762   1.265   9.810  0.2657 -0.0902 -0.1889
46669W        W55469  17.336   5.430   5.392  0.1287  0.2484 -0.2803
46670W        W55470  20.863   3.772   4.092  0.1462  0.2092 -0.1201
46671W        W55471  16.229   2.565  21.018  0.0967  0.3213 -0.3200
46672W        W55472  19.544   2.175  31.869 -0.1041  0.0076  0.0066
46673W        W55473  19.765   3.368  12.442 -0.2709  0.0639 -0.4974
46674W        W55474  13.155   0.424  32.287 -0.2186  0.1369  0.3082
46675W        W55475  14.770   5.180  27.826  0.6476  0.0373  0.1568
46676W        W55476   4.063   4.407  28.527 -0.4654 -0.1225  0.0836
46677W        W55477   0.371   2.157  14.361 -0.2971 -0.0249  0.1484
46678W        W55478  23.829   2.218   7.073  0.2690 -0.1267  0.1504
46679W        W55479   2.011   4.106  27.401  0.1938  0.1360 -0.0915
46680W        W55480  12.156   2.327  34.128  0.2285 -0.0636  0.2000
46681W        W55481   7.522   4.281   4.268 -0.1450 -0.0441 -0.2754
46682W        W55482   5.610   1.516   1.549 -0.0589  0.0413  0.1070
46683W        W55483   2.409   0.867  21.227 -0.1227 -0.1115  0.1785
46684W        W55484  13.341   3.583   1.055 -0.1158  0.4606 -0.2173
46685W        W55485   7.424   2.547  14.650 -0.1286  0.0041 -0.0333
46686W        W55486  17.912   1.879   6.008 -0.1617 -0.1423  0.2130
46687W        W55487  16.821   4.865  27.239 -0.1399  0.1076  0.0869
46688W        W55488  21.621   3.354   3.002 -0.2850  0.1027 -0.1051
46689W        W55489  21.043   1.271   5.421 -0.0306  0.0020  0.0505
46690W        W55490  16.217   1.825  33.117  0.0248  0.0820  0.0611
46691W        W55491  20.144   3.087  34.081 -0.1484 -0.1250  0.2119
46692W        W55492  14.488   5.828  27.106  0.4435  0.0122 -0.2399
46693W        W55493  17.752   5.795  10.164 -0.2265 -0.0344 -0.1102
46694W        W55494  19.036   6.568  10.784  0.2136  0.2553  0.1310
46695W        W55495  12.437   2.558  22.280 -0.3125 -0.0954  0.1166
46696W        W55496   6.249   4.217   2.691 -0.1721  0.2106 -0.0894
46697W        W55497   3.384   4.812  27.475  0.1564 -0.1294  0.0904
46698W        W55498   4.646   5.011  12.990 -0.1520  0.0000 -0.4639
46699W        W55499  17.171   3.538  23.109 -0.0095 -0.0772 -0.1636
46700W        W55500  11.793   2.638  27.207 -0.0098 -0.1352 -0.0185
46701W        W55501  24.480   3.590  29.175  0.0672 -0.1657 -0.1467
46702W        W55502   2.260   4.186   5.989 -0.0195  0.4781  0.1262
46703W        W55503   1.362   1.311  25.517 -0.3152 -0.1510 -0.0372
46704W        W55504  11.245   0.271   1.338  0.2792 -0.0961  0.3058
46705W        W55505  17.414   5.958   5.184 -0.1079 -0.3740 -0.0871
46706W        W55506   9.572   3.663  26.173 -0.2377 -0.1425 -0.0987
46707W        W55507  12.744   5.130  23.483 -0.0951  0.0894  0.2609
46708W        W55508   6.837   4.815   0.382 -0.0578  0.0035 -0.1896
46709W        W55509   0.745   1.226   5.436  0.0550  0.1971  0.0630
46710W        W55510  24.069   0.525   2.846  0.0219 -0.0733 -0.1097
46711W        W55511  12.721   0.614  21.807 -0.0917 -0.0696  0.1466
46712W        W55512  12.145   3.652  11.965 -0.6239 -0.1177 -0.1446
46713W        W55513  16.539   3.774  30.622  0.0672 -0.0208  0.1497
46714W        W55514  17.939   0.094  33.789  0.0106 -0.2174  0.0872
46715W        W55515   9.808   4.033  21.531 -0.1769  0.0056  0.0503
46716W        W55516   5.479   0.356  33.829  0.1288 -0.0756  0.0033
46717W        W55517   4.574   2.182   7.763  0.2577  0.5611 -0.2918
46718W        W55518   5.115   3.450  26.312  0.2084 -0.1396 -0.0973
46719W        W55519  25.346   3.839   5.506 -0.0802 -0.2218  0.1090
46720W        W55520  24.600   2.856  35.243 -0.0909  0.0463 -0.3030
46721W        W55521  13.504   3.285  31.278 -0.3116 -0.2276 -0.0361
46722W        W55522  13.035   2.093   7.276 -0.1791  0.0374 -0.1507
46723W        W55523  24.370   0.719   1.595  0.0166  0.1610 -0.0093
46724W        W55524  25.602   2.437  15.080 -0.1638  0.0559 -0.2900
46725W        W55525   6.276   4.853  30.257 -0.1059 -0.1230  0.1619
46726W        W55526  19.654   4.396  12.447 -0.1994 -0.0188  0.2822
46727W        W55527   6.331   1.044  21.776 -0.1705 -0.2521  0.0111
46728W        W55528  20.566   3.651   9.622  0.1059  0.0088  0.0227
46729W        W55529  16.244   2.217  23.614  0.3478  0.0399  0.2857
46730W        W55530  16.865   4.895  31.579 -0.1413  0.2021 -0.1798
46731W        W55531  13.715   5.448  25.665  0.0848  0.2323  0.6106
46732W        W55532  22.563   5.331  25.866 -0.0046  0.1208  0.1173
46733W        W55533  18.707   6.302  15.113 -0.1359  0.0695 -0.1635
46734W        W55534   4.737   3.860  28.066  0.0615 -0.0632  0.0607
46735W        W55535  23.875   1.856  12.613 -0.2050  0.0410  0.0843
46736W        W55536  17.922   1.784   7.205 -0.2572  0.3397  0.0820
46737W        W55537   3.375   1.876  28.027 -0.1663  0.1377 -0.0882
46738W        W55538  10.756   0.001  24.666  0.3270 -0.3688 -0.0407
46739W        W55539   0.531   2.090  29.170 -0.0135 -0.1687 -0.0601
46740W        W55540  17.671   5.646   2.729 -0.1017  0.2072 -0.1269
46741W        W55541   0.583   3.452  31.304 -0.2680 -0.0293  0.2597
46742W        W55542  16.360   4.524   8.328  0.0735  0.0315 -0.0688
46743W        W55543  21.392   1.532  33.740 -0.1186  0.0419  0.0338
46744W        W55544  19.336   5.678  14.569 -0.1734  0.0131 -0.2164
46745W        W55545   7.596   0.839   8.183 -0.3465 -0.2146  0.1527
46746W        W55546  19.234   5.426  23.683  0.0092 -0.4130  0.0611
46747W        W55547   1.210   4.246   4.891  0.0805  0.0633  0.0859
46748W        W55548  20.795   1.674   0.929 -0.2685 -0.1309  0.1650
46749W        W55549  15.315   4.169  26.493  0.1335 -0.3291  0.0746
46750W        W55550   7.502   3.184  24.999 -0.0470 -0.0336 -0.1612
46751W        W55551  21.885   0.072  10.434 -0.2194  0.0819 -0.1697
46752W        W55552   1.722   0.581  35.369  0.0551 -0.0436  0.1297
46753W        W55553   9.266   2.331  35.627 -0.0039  0.1551  0.1681
46754W        W55554  21.154   1.777  11.670 -0.1104 -0.1191  0.1653
46755W        W55555  10.176   3.041   1.173  0.1804  0.0889  0.0103
46756W        W55556  22.349   4.543  24.359 -0.2061 -0.1823 -0.0705
46757W        W55557   5.615   1.405  26.207 -0.0838  0.1830  0.0762
46758W        W55558   6.230   3.522  35.854 -0.0828 -0.2088 -0.0342
46759W        W55559  21.378   3.655  27.611  0.1689 -0.0643 -0.2762
46760W        W55560   9.526   1.102  14.968  0.0097 -0.1553  0.0708
46761W        W55561   7.454   1.937  27.335 -0.0996  0.0632  0.0660
46762W        W55562   6.732   4.417  25.047 -0.0498  0.1828  0.1807
46763W        W55563   6.114   2.529  22.251  0.1249 -0.4234  0.0947
46764W        W55564   0.757   1.923  14.998  0.2952 -0.2103 -0.0479
46765W        W55565   1.960   6.341  21.814  0.1780 -0.0025 -0.1947
46766W        W55566   3.476   1.623   5.147  0.1287 -0.0276  0.2064
46767W        W55567   9.636   1.789  25.565 -0.1364 -0.0035  0.0329
46768W        W55568   4.643   1.242   6.007 -0.1176 -0.0827 -0.2514
46769W        W55569  24.973   0.784  22.694 -0.0976  0.2009  0.1799
46770W        W55570  26.147   3.878  33.801  0.1140  0.1141  0.1121
46771W        W55571  14.672   3.616   2.597  0.0815  0.1548  0.1630
46772W        W55572   9.867   6.513  34.485  0.0705 -0.1523  0.0443
46773W        W55573  18.955   1.849  25.603 -0.0025 -0.2348 -0.2175
46774W        W55574  15.354   6.127  22.553  0.1548  0.0801  0.2345
46775W        W55575  20.537   4.960   2.197 -0.0258 -0.1041 -0.0064
46776W        W55576   8.618   0.713   3.153 -0.0658  0.0388 -0.2286
46777W        W55577   6.259   6.472  22.248  0.0811 -0.3063 -0.2380
46778W        W55578   8.254   5.669  25.882  0.0742 -0.1852  0.1131
46779W        W55579   5.087   1.488  14.058  0.0716 -0.0403  0.0581
46780W        W55580  24.833   4.869  20.156  0.2498  0.4148  0.0605
46781W        W55581  18.858   0.442  12.115 -0.3941  0.2261 -0.0467
46782W        W55582  17.899   2.837  27.768 -0.1589 -0.0078 -0.1795
46783W        W55583   5.055   5.381  29.267  0.1790 -0.0514 -0.0284
46784W        W55584  18.739   0.177   3.538 -0.1865 -0.1972 -0.0520
46785W        W55585  15.830   2.002  32.650 -0.0297  0.0504  0.0604
46786W        W55586  12.093   1.735  23.898  0.0922 -0.2171 -0.2934
46787W        W55587  10.855   3.200   0.525 -0.0675 -0.0339  0.0356
46788W        W55588  18.281   5.770  28.844  0.1235 -0.5322 -0.0791
46789W        W55589  18.324   5.986  14.787 -0.1371 -0.1155 -0.1180
46790W        W55590  19.960   2.318  14.910  0.2192 -0.1586 -0.1702
46791W        W55591  22.447   0.500  22.016 -0.0538 -0.0546 -0.1036
46792W        W55592  24.718   0.634   3.398  0.2071 -0.1546 -0.3487
46793W        W55593   0.041   3.341   8.648  0.2135  0.1132 -0.0101
46794W        W55594   4.434   1.454  31.193  0.0549  0.0426 -0.1297
46795W        W55595   1.404   3.208  22.688  0.1076 -0.2533  0.2851
46796W        W55596  26.005   6.509  21.277 -0.0405  0.0612 -0.1401
46797W        W55597   5.060   0.686  32.640 -0.1900  0.0503  0.2045
46798W        W55598  23.499   1.290  32.220 -0.0479 -0.3565 -0.0428
46799W        W55599   7.970   6.354   4.922  0.2562 -0.0635 -0.3087
46800W        W55600   5.603   4.978  29.982  0.0597  0.2819  0.1620
46801W        W55601   4.246   1.013  20.535  0.2485 -0.0523  0.0202
46802W        W55602   6.292   4.225  12.012  0.0550 -0.0138 -0.0805
46803W        W55603   0.633   2.495  21.099 -0.0125  0.1046  0.1765
46804W        W55604  24.000   5.804  24.522 -0.0367  0.0344  0.1013
46805W        W55605  24.408   0.580  32.661 -0.3198 -0.0750  0.0236
46806W        W55606   6.082   1.354  15.013 -0.2747  0.0846 -0.0192
46807W        W55607  25.023   1.971  22.431 -0.2214  0.0747  0.0397
46808W        W55608   0.577   3.179  29.879  0.1206 -0.0882 -0.3726
46809W        W55609  13.527   2.087  34.396 -0.1890 -0.3672 -0.1123
46810W        W55610  17.473   3.660  15.267 -0.2559 -0.2528 -0.0956
46811W        W55611  23.712   2.658   1.837 -0.0217  0.1830 -0.1684
46812W        W55612   4.571   4.110  30.862 -0.1972 -0.1887 -0.0460
46813W        W55613  18.474   1.334  32.419 -0.1283 -0.1266 -0.3353
46814W        W55614  11.679   4.115  25.063  0.0962  0.0431  0.0402
46815W        W55615  23.638   4.419  20.770 -0.3176 -0.0998 -0.0977
46816W        W55616   9.765   4.713  14.938  0.1879 -0.1941 -0.2508
46817W        W55617   6.775   0.218   3.896 -0.1349  0.3310  0.3942
46818W        W55618  15.933   1.052  28.499 -0.2129 -0.0502  0.1056
46819W        W55619   4.205   2.256  31.526  0.0254  0.0237  0.2454
46820W        W55620  21.515   0.181  28.842  0.0472 -0.1381  0.1294
46821W        W55621  15.167   4.983  24.971 -0.1143  0.2363  0.0010
46822W        W55622  22.779   5.620   7.461 -0.2766  0.0675  0.0146
46823W        W55623  17.759   6.112  22.237  0.0091 -0.0911  0.3508
46824W        W55624   9.041   1.413  15.301 -0.2817 -0.0435 -0.1093
46825W        W55625   7.719   5.517   0.258 -0.3026  0.0184  0.0873
46826W        W55626  23.736   3.159  20.874 -0.2498 -0.1814 -0.0807
46827W        W55627   5.170   5.780  33.609  0.1057  0.3603  0.2013
46828W        W55628   7.070   1.329   4.697  0.4597 -0.2993 -0.0938
46829W        W55629  19.907   5.775   2.968 -0.0536  0.1639 -0.3644
46830W        W55630   5.365   0.690  28.224 -0.0171  0.3095 -0.0943
46831W        W55631  10.721   0.802  30.439  0.0213 -0.4024  0.0545
46832W        W55632   4.470   2.795  13.259  0.1262  0.1651  0.1414
46833W        W55633   4.557   3.170   1.726  0.0353  0.0577 -0.1452
46834W        W55634   8.777   5.055  24.226 -0.1626  0.0181 -0.1444
46835W        W55635  10.440   2.993  34.508  0.1940 -0.0416  0.1409
46836W        W55636  17.807   5.020  34.340  0.1129 -0.0545 -0.1269
46837W        W55637  24.176   6.113  22.946 -0.2350 -0.3230  0.1145
46838W        W55638  15.064   3.114  28.266 -0.2798  0.0609 -0.1061
46839W        W55639  20.042   5.821  32.850  0.0138 -0.0578  0.0774
46840W        W55640  12.506   3.680  22.959 -0.1488 -0.2262 -0.2619
46841W        W55641  17.567   0.670  34.608  0.1142  0.2358 -0.2467
46842W        W55642  14.289   3.913  24.992 -0.0425  0.0973 -0.0051
46843W        W55643  22.183   5.998  15.646 -0.1036  0.0440  0.0120
46844W        W55644  15.530   1.354  27.526 -0.0143  0.1756 -0.1451
46845W        W55645  12.913   1.465  10.424  0.0996 -0.0160  0.4349
46846W        W55646  19.923   5.735  24.574  0.2977  0.2531 -0.2070
46847W        W55647  19.581   5.882  27.631  0.2210 -0.1270  0.0985
46848W        W55648   9.850   6.348  29.937 -0.1051  0.2667  0.0970
46849W        W55649  14.039   2.817  26.735 -0.1194 -0.0021  0.0863
46850W        W55650   1.115   0.566   2.283  0.0287  0.2612 -0.0988
46851W        W55651  12.501   1.030  13.110 -0.1400  0.1523 -0.0275
46852W        W55652  24.442   0.116  12.885  0.0146  0.2343 -0.0109
46853W        W55653  16.739   6.397  11.277 -0.0205 -0.0845  0.0134
46854W        W55654  19.751   0.400  35.273 -0.2382 -0.1997  0.1981
46855W        W55655  25.943   5.446  31.700  0.2157 -0.0027 -0.0271
46856W        W55656   2.034   5.535   8.342  0.1432 -0.0981 -0.0061
46857W        W55657   0.537   1.750  30.739  0.1182  0.2723 -0.1650
46858W        W55658   5.320   3.542   5.148 -0.0931  0.2194  0.1883
46859W        W55659  24.445   6.412  15.059  0.0190 -0.2987 -0.0530
46860W        W55660  25.623   0.729   7.862 -0.0052  0.0326  0.1204
46861W        W55661   8.114   4.325  30.278  0.1616 -0.0216  0.1072
46862W        W55662  25.972   1.380   3.705 -0.1526  0.1435 -0.1942
46863W        W55663  17.401   3.132  26.249 -0.2298 -0.0627  0.0377
46864W        W55664  10.581   3.745  25.403 -0.1774  0.0949  0.0202
46865W        W55665  20.987   1.830  34.112  0.2035  0.1348  0.0012
46866W        W55666  12.334   0.252  12.077 -0.3130 -0.0304 -0.0567
46867W        W55667   1.451   1.294  20.394  0.0151 -0.5352 -0.0226
46868W        W55668   4.812   5.701  11.068  0.0188 -0.0480 -0.0534
46869W        W55669  20.115   5.864  33.866 -0.0484 -0.1535  0.0477
46870W        W55670  14.840   1.436  32.192 -0.1265  0.0333  0.1366
46871W        W55671  18.347   3.055  27.967  0.0274 -0.0777  0.1563
46872W        W55672  22.197   4.088  35.770 -0.2506  0.0148  0.1276
46873W        W55673  23.011   4.247   8.553 -0.0803 -0.0127 -0.0202
46874W        W55674  17.269   4.865  28.732  0.1058  0.2243  0.3171
46875W        W55675  21.488   5.364  34.318 -0.0238  0.2135  0.1687
46876W        W55676   8.477   4.169  26.724  0.0025 -0.0743 -0.3314
46877W        W55677  24.379   0.437  31.681 -0.2795  0.0108 -0.0423
46878W        W55678  24.315   6.449  26.519 -0.2708  0.0356  0.0547
46879W        W55679   9.096   2.274  34.079 -0.0805  0.0737 -0.1832
46880W        W55680  11.210   0.582  15.320  0.3526  0.1356 -0.0195
46881W        W55681  16.456   2.640  34.550 -0.1488 -0.0010 -0.2049
46882W        W55682  21.467   2.986   4.228 -0.3421  0.1623  0.1396
46883W        W55683   7.072   4.974  34.210  0.0062  0.3172 -0.0941
46884W        W55684  20.694   2.818   2.694  0.0020 -0.0826 -0.1664
46885W        W55685  17.921   4.943   3.363 -0.1395 -0.0847 -0.2280
46886W        W55686   4.331   1.529  28.204 -0.1155 -0.3473 -0.0266
46887W        W55687  25.029   4.477  11.606 -0.4717 -0.0045  0.0691
46888W        W55688   3.968   0.847   7.538  0.0536 -0.0754  0.0519
46889W        W55689  14.886   1.253   5.883  0.2527  0.2309  0.1090
46890W        W55690   1.836   0.848   2.027  0.1390  0.0633 -0.0912
46891W        W55691  23.244   0.435  15.773 -0.1324  0.0762 -0.1150
46892W        W55692   2.740   2.569   1.674  0.0862  0.1969  0.0486
46893W        W55693  12.026   5.982  34.516 -0.2898  0.1501  0.0631
46894W        W55694  18.335   3.100  28.844  0.1070  0.1076  0.1530
46895W        W55695  10.651   5.748   2.261  0.1228  0.1480  0.2622
46896W        W55696   0.854   3.896  12.858  0.0799 -0.1846  0.0567
46897W        W55697   2.600   4.974  20.008 -0.1723  0.0707 -0.2428
46898W        W55698  23.632   4.525  29.416  0.0248 -0.1360  0.1544
46899W        W55699  16.597   1.250   4.742  0.3646 -0.2279  0.0276
46900W        W55700   7.224   6.460  23.483 -0.0532 -0.4760 -0.2067
46901W        W55701  10.329   3.916  15.190 -0.3230 -0.0784  0.1849
46902W        W55702   5.838   2.821  13.593 -0.3700  0.0975 -0.2322
46903W        W55703   0.814   6.252  20.940  0.2275  0.0067 -0.0786
46904W        W55704   7.640   0.194   1.330 -0.1359  0.2520  0.2621
46905W        W55705  17.347   1.705  12.884 -0.0347 -0.1614 -0.1051
46906W        W55706  14.690   5.608  27.516  0.2668  0.3242 -0.2201
46907W        W55707  12.919   3.696  29.369 -0.1286 -0.1191  0.0268
46908W        W55708  22.662   1.142   7.704  0.0551  0.0320 -0.3431
46909W        W55709  16.701   1.504  22.999  0.1912 -0.2105 -0.2265
46910W        W55710  21.470   5.115   5.299  0.1192  0.4161 -0.0950
46911W        W55711  11.350   1.515   3.003 -0.0476 -0.3038  0.0605
46912W        W55712   4.333   5.150  34.940 -0.1130  0.0674  0.0377
46913W        W55713   9.938   2.324  28.082 -0.1197 -0.3460  0.2382
46914W        W55714   1.346   0.016  29.701 -0.1445 -0.0745  0.1161
46915W        W55715  12.620   0.137  32.599 -0.0982 -0.1674  0.1009
46916W        W55716   5.662   2.721   9.296 -0.0155  0.0464 -0.0605
46917W        W55717  21.659   1.408   9.533  0.1553  0.0861 -0.0836
46918W        W55718   8.735   2.379  32.588 -0.1139 -0.0129 -0.0558
46919W        W55719   2.023   3.890  26.760 -0.1371 -0.1696  0.3543
46920W        W55720  12.092   1.223   6.283 -0.0729 -0.2145 -0.0413
46921W        W55721  16.379   5.790   2.011 -0.0191  0.0070  0.0433
46922W        W55722   4.041   0.901  33.593 -0.0843  0.0589 -0.0605
46923W        W55723  12.961   0.695  29.287 -0.0830 -0.3641  0.2530
46924W        W55724  14.597   3.470  32.859  0.1443  0.1286 -0.1571
46925W        W55725  12.306   3.081  29.764  0.0480  0.2086  0.3919
46926W        W55726  24.476   3.955   0.035 -0.0552  0.0308 -0.2045
46927W        W55727  19.827   2.145  27.790  0.1768  0.0609  0.1041
46928W        W55728  13.641   6.229   0.327 -0.3452  0.0635 -0.1019
46929W        W55729   7.030   3.293  15.298  0.2475  0.0936 -0.3444
46930W        W55730   1.397   3.815   0.049 -0.0188  0.1626 -0.1847
46931W        W55731  13.048   0.720  23.035  0.0700  0.0148  0.0785
46932W        W55732  26.258   4.419  31.198 -0.1023  0.4044 -0.2365
46933W        W55733  24.778   5.438  23.848  0.2974  0.1448  0.1383
46934W        W55734   5.016   0.042  20.836 -0.0140 -0.0928  0.2081
46935W        W55735   6.673   5.489   8.867  0.0980  0.0649 -0.0152
46936W        W55736  18.329   4.754   2.940 -0.0979 -0.0677  0.0855
46937W        W55737   0.267   2.518  23.094  0.2491  0.1274 -0.0339
46938W        W55738   3.475   3.253  22.583 -0.0305 -0.1032  0.1597
46939W        W55739   2.470   3.449  23.774 -0.0250 -0.2017 -0.1785
46940W        W55740   9.881   0.753  27.792  0.1577  0.2109 -0.0829
46941W        W55741   7.319   1.995  23.719 -0.2841  0.0432  0.0934
46942W        W55742  26.274   1.969  14.317 -0.0363  0.0128 -0.1198
46943W        W55743   8.500   0.484   9.076 -0.2798 -0.0656 -0.0054
46944W        W55744  26.018   0.074  34.740 -0.0314 -0.3407 -0.0606
46945W        W55745   1.465   3.901  21.448  0.2102 -0.0353  0.2284
46946W        W55746   5.988   1.164   7.931  0.0691  0.0162  0.0743
46947W        W55747  22.638   5.922  24.194  0.2887  0.3744 -0.1548
46948W        W55748   1.825   3.681  21.090 -0.0877 -0.1255 -0.0709
46949W        W55749   0.349   3.360  10.080  0.2257  0.2135 -0.0362
46950W        W55750  18.835   0.712   7.176 -0.1303  0.3175 -0.0364
46951W        W55751   3.874   1.388  24.783  0.0675 -0.0042 -0.4132
46952W        W55752   4.830   6.357  13.268 -0.0715 -0.0177 -0.1795
46953W        W55753  18.507   1.359  27.828  0.1783  0.0964 -0.1675
46954W        W55754  21.395   4.289  31.315  0.0306 -0.0797 -0.0101
46955W        W55755  25.874   2.826   9.253 -0.2386 -0.0066 -0.3630
46956W        W55756  25.102   4.491   7.449 -0.1003  0.0975  0.0791
46957W        W55757   0.908   1.358  21.278  0.0000  0.0050  0.1545
46958W        W55758  17.511   5.733   8.969 -0.2686  0.0035 -0.2025
46959W        W55759  11.858   5.148  13.771  0.0654  0.0388 -0.3332
46960W        W55760  17.422   4.543  11.121 -0.0696  0.1089  0.2597
46961W        W55761  25.672   3.080   5.844 -0.1230  0.1419 -0.1789
46962W        W55762  23.958   0.389   0.504 -0.0710  0.0975 -0.1673
46963W        W55763  12.054   2.185  30.432  0.0876 -0.1912  0.1534
46964W        W55764  19.006   2.474  28.930 -0.1214 -0.0270 -0.0145
46965W        W55765  18.907   1.729  25.136  0.1271  0.1512  0.1819
46966W        W55766  19.225   3.170   7.160  0.0474 -0.0948  0.2690
46967W        W55767  11.448   5.250  30.844  0.1101 -0.3385  0.3865
46968W        W55768   1.609   4.466  28.515  0.1962  0.0899 -0.2919
46969W        W55769   5.061   2.126  31.299 -0.0574 -0.1800 -0.1494
46970W        W55770  18.575   2.994  23.031  0.0244  0.0685  0.0038
46971W        W55771   1.929   5.266   4.525 -0.1834 -0.2573 -0.0198
46972W        W55772  19.830   1.424  12.162 -0.1967 -0.3045 -0.1261
46973W        W55773  11.261   5.206  33.250  0.0769  0.1677 -0.0971
46974W        W55774   3.096   5.823   3.395 -0.3112  0.2364  0.1329
46975W        W55775   7.001   0.735  26.782 -0.1138 -0.0733  0.2488
46976W        W55776  26.071   1.658   7.055 -0.3332  0.0727  0.2440
46977W        W55777  20.398   0.409   4.542  0.0805  0.0091  0.1326
46978W        W55778  19.232   1.321  12.539 -0.0466  0.1972 -0.0434
46979W        W55779  18.576   0.045  33.552 -0.0179  0.0712  0.1269
46980W        W55780  19.135   0.536  23.093 -0.1594 -0.1486 -0.1696
46981W        W55781  14.737   4.179  10.696 -0.1530  0.1595  0.1738
46982W        W55782  25.348   3.482  11.884 -0.1450  0.1325  0.2556
46983W        W55783  23.324   0.798  11.280 -0.4760 -0.0303 -0.1961
46984W        W55784   1.455   1.740  22.004  0.2660 -0.0285  0.2532
46985W        W55785   3.834   6.042  31.715 -0.0430 -0.0929  0.0231
46986W        W55786  22.524   2.512  30.924  0.0978 -0.1000  0.1620
46987W        W55787  11.296   1.079   3.349 -0.1539 -0.0716 -0.1090
46988W        W55788  18.390   5.052   3.327 -0.0816  0.1232  0.0037
46989W        W55789   8.834   1.880  32.491  0.0781 -0.1072 -0.0895
46990W        W55790  24.647   2.411  33.462  0.1908 -0.1316  0.0521
46991W        W55791  12.483   2.477  32.833 -0.2124  0.1683 -0.0496
46992W        W55792  19.814   6.200  10.418 -0.0661  0.0968 -0.0522
46993W        W55793  20.851   4.144  28.112 -0.0646 -0.0585 -0.1245
46994W        W55794   6.827   1.713  26.794 -0.4074 -0.0413 -0.0999
46995W        W55795   2.097   5.444  10.902 -0.0942  0.2113  0.0128
46996W        W55796  23.553   4.573   6.449 -0.2819  0.0427  0.0835
46997W        W55797   1.599   6.259  26.727 -0.1104 -0.0933 -0.2030
46998W        W55798   5.607   2.742  23.445 -0.1434 -0.1701 -0.1970
46999W        W55799   8.307   1.354  12.853  0.0219 -0.0051 -0.2737
47000W        W55800   3.671   5.466  32.429  0.0050 -0.1641  0.3315
47001W        W55801   9.216   6.579  10.088 -0.0807  0.1253 -0.0950
47002W        W55802  18.426   3.557  22.339  0.0665 -0.1892 -0.0594
47003W        W55803  17.563   5.288  25.185 -0.0702  0.2646 -0.0985
47004W        W55804  13.190   4.245   1.653 -0.1215  0.0300  0.0924
47005W        W55805  23.291   0.903   6.002 -0.2917  0.1532  0.1316
47006W        W55806   8.450   5.790   6.842  0.0322 -0.1180  0.1748
47007W        W55807  17.095   0.487  11.072  0.2090  0.1399 -0.0642
47008W        W55808   6.814   2.256   3.856 -0.1106 -0.1700  0.1379
47009W        W55809  25.250   1.243  11.714 -0.0617  0.3093 -0.1206
47010W        W55810  10.934   5.586  24.343 -0.1527 -0.0364 -0.0665
47011W        W55811  16.889   5.070  11.827 -0.1409  0.2654  0.1493
47012W        W55812   5.512   0.259  14.596 -0.1089 -0.4142  0.1432
47013W        W55813   8.975   5.672   0.782 -0.1621 -0.1201 -0.2079
47014W        W55814  22.475   6.255  25.981  0.2179 -0.2645  0.1410
47015W        W55815   3.549   3.938  23.572 -0.1617  0.0119 -0.0723
47016W        W55816  12.583   2.425  27.588 -0.0699  0.1709 -0.1185
47017W        W55817  19.087   2.890  33.675  0.2557  0.1848 -0.0253
47018W        W55818   4.449   6.463  24.753 -0.0152  0.1158 -0.3299
47019W        W55819   5.607   4.705   6.814  0.2097  0.1893  0.1195
47020W        W55820  15.203   5.414  27.729  0.2512 -0.4324 -0.2980
47021W        W55821   2.391   4.449  25.964 -0.0547 -0.2648  0.0992
47022W        W55822   6.592   0.418  21.169 -0.0115  0.1313 -0.0530
47023W        W55823   6.769   1.297  33.023 -0.1872 -0.0693  0.1461
47024W        W55824   2.365   4.280  33.716  0.0462 -0.1900 -0.3581
47025W        W55825  15.182   0.997  27.551 -0.1724  0.0012  0.0271
47026W        W55826  16.846   4.770  35.400  0.3725  0.0382  0.0178
47027W        W55827   6.164   3.321   6.379 -0.1933 -0.1125 -0.2158
47028W        W55828  18.010   4.586  34.462 -0.5333 -0.0555  0.0438
47029W        W55829  10.925   5.549   0.823 -0.1081  0.0807 -0.1134
47030W        W55830   6.511   1.937  11.999 -0.0585  0.0233 -0.1377
47031W        W55831  23.079   5.421  31.330  0.3343 -0.2985 -0.2540
47032W        W55832  25.337   6.421   9.333 -0.1766 -0.2022  0.1746
47033W        W55833  15.789   3.632   6.165  0.1716  0.1864  0.1023
47034W        W55834  20.526   0.436   0.519  0.3329 -0.0077 -0.0500
47035W        W55835  12.803   0.809   8.896 -0.1170  0.2523  0.0745
47036W        W55836  19.303   0.738  33.344 -0.0391  0.2021  0.0203
47037W        W55837   6.412   3.578  26.836  0.0652 -0.0043  0.3597
47038W        W55838  21.200   1.210  25.516  0.0295 -0.2206  0.2072
47039W        W55839   9.672   3.023  15.117  0.0004  0.2471 -0.0042
47040W        W55840   1.225   1.388  28.150 -0.0282 -0.2564  0.0824
47041W        W55841  21.210   6.323   3.342  0.0723  0.3002 -0.1695
47042W        W55842   3.977   0.419  30.613 -0.0569  0.1490  0.2350
47043W        W55843   2.322   5.551  15.037 -0.2189 -0.1358 -0.3631
47044W        W55844   8.994   1.458   9.034  0.0558 -0.1222 -0.0701
47045W        W55845  10.459   5.132  29.495  0.0150 -0.1656  0.2006
47046W        W55846  11.172   2.737  23.920 -0.1565 -0.1433 -0.0568
47047W        W55847  20.649   0.456   7.402 -0.1157 -0.0674 -0.3435
47048W        W55848  13.556   6.346  33.551  0.0007 -0.0535 -0.0039
47049W        W55849  21.220   2.865  29.274  0.0077  0.0807 -0.2461
47050W        W55850  13.161   5.096  28.348 -0.0252 -0.0562  0.4963
47051W        W55851  15.190   2.352  12.410  0.3010  0.1484 -0.2039
47052W        W55852  15.427   5.958   8.327  0.0693 -0.0565  0.0995
47053W        W55853   3.608   1.475  23.163 -0.0584  0.0984  0.0578
47054W        W55854   3.547   5.046   7.370  0.1838 -0.1379 -0.0454
47055W        W55855  11.599   2.405   8.486  0.0063 -0.3288  0.1097
47056W        W55856   0.758   6.550  27.095  0.2068 -0.2032  0.0127
47057W        W55857  25.200   0.762  33.759  0.1969 -0.3846  0.0101
47058W        W55858   6.208   3.205  33.731 -0.0074  0.0492 -0.3172
47059W        W55859   3.650   2.735   2.292  0.0574  0.2561  0.1586
47060W        W55860  19.638   1.917  28.593 -0.2917  0.0021 -0.0454
47061W        W55861  25.327   3.417  28.245 -0.0341 -0.3278  0.1766
47062W        W55862   3.920   5.305  11.871  0.1275  0.2107 -0.1853
47063W        W55863  23.478   6.601   9.103  0.1162  0.0739  0.0633
47064W        W55864   1.251   6.062  20.763  0.4570 -0.3886 -0.1733
47065W        W55865  10.938   5.312  33.669 -0.2770  0.0179 -0.0065
47066W        W55866  23.379   3.598  32.794  0.0536  0.1365 -0.5097
47067W        W55867  17.649   5.545   9.427  0.0485  0.2101  0.0617
47068W        W55868   1.793   2.162  28.153  0.1329  0.2389 -0.4549
47069W        W55869  18.009   6.587  22.711  0.0120  0.1096 -0.2556
47070W        W55870  24.040   6.201   2.395  0.1527  0.2231  0.2777
47071W        W55871   7.088   1.493   3.302 -0.1847  0.0016  0.2640
47072W        W55872  24.617   1.804   8.820  0.0191 -0.3471  0.0405
47073W        W55873   4.271   1.066  25.692  0.0946  0.1314  0.1057
47074W        W55874  24.909   3.888  10.382  0.1654 -0.3227  0.1353
47075W        W55875  20.421   2.113  27.096 -0.0375 -0.0403 -0.2002
47076W        W55876  10.751   0.023  21.987 -0.1123 -0.0547 -0.0599
47077W        W55877   0.570   0.706  10.308  0.1198 -0.2987  0.2132
47078W        W55878  22.410   0.467   1.681 -0.1019 -0.0925  0.1620
47079W        W55879  17.224   2.962   8.505 -0.3733  0.0594  0.0125
47080W        W55880  22.059   4.880  29.717 -0.1756  0.0452  0.2482
47081W        W55881   7.846   1.812  25.865 -0.1765 -0.0834 -0.0968
47082W        W55882  25.037   3.838   1.534 -0.1760  0.1329 -0.4908
47083W        W55883  14.318   3.651  33.298 -0.3728  0.0315 -0.1991
47084W        W55884  11.059   2.934  28.574  0.0836 -0.0349  0.1980
47085W        W55885  20.226   4.665  23.080 -0.2726 -0.0517  0.2206
47086W        W55886  20.080   3.352  11.322 -0.0099  0.1845 -0.0314
47087W        W55887  22.930   2.820   7.912  0.3111 -0.1715 -0.1246
47088W        W55888   3.167   0.122  24.595 -0.3510 -0.0620  0.0422
47089W        W55889  13.645   1.092  21.602  0.1807  0.0866 -0.0670
47090W        W55890  14.018   0.792  21.443 -0.0124  0.0388  0.1617
47091W        W55891  23.259   3.754   7.055  0.1772  0.1496 -0.2185
47092W        W55892  18.494   3.625   8.175 -0.0499 -0.1260  0.2342
47093W        W55893  18.983   1.348  32.495  0.0496 -0.1311  0.3275
47094W        W55894  14.875   4.216  30.694 -0.1096  0.5366  0.0516
47095W        W55895   2.147   0.777  34.862 -0.0640 -0.0042  0.2992
47096W        W55896  17.351   0.567  13.965 -0.1017 -0.1994  0.2533
47097W        W55897   1.349   4.729  29.330  0.3521  0.1929 -0.0461
47098W        W55898  13.482   6.001  33.217  0.0976  0.0952  0.0584
47099W        W55899   3.814   0.331  14.819  0.2057  0.0710  0.1208
47100W        W55900   3.255   5.561   1.221  0.1039  0.0453 -0.2241
47101W        W55901   5.403   0.356  30.226 -0.1232  0.0108 -0.1041
47102W        W55902   1.173   3.583  33.753 -0.3363  0.0585  0.1929
47103W        W55903  18.348   6.158  13.568 -0.1091  0.3465 -0.1046
47104W        W55904   8.953   0.406  31.134  0.0818 -0.2610  0.0098
47105W        W55905   7.189   2.315  10.474 -0.2271  0.2686 -0.3037
47106W        W55906  20.008   1.691  24.238 -0.0166  0.2690 -0.0194
47107W        W55907   7.287   0.104  30.306  0.3201 -0.0489 -0.2287
47108W        W55908   3.696   3.552  11.410 -0.1920 -0.2114  0.0915
47109W        W55909  21.375   4.597  13.092  0.2137  0.0388  0.2920
47110W        W55910  16.042   4.698  14.452 -0.0103 -0.3759 -0.2040
47111W        W55911  18.114   0.256  11.481  0.3595  0.1399  0.1514
47112W        W55912   9.155   6.433   1.463 -0.0825 -0.2515 -0.1423
47113W        W55913   3.550   5.023  12.916  0.1716 -0.2188 -0.0547
47114W        W55914   6.243   0.083  23.605  0.0995  0.0779  0.3960
47115W        W55915  21.384   0.058  35.516  0.0897  0.0178  0.1592
47116W        W55916  20.471   0.231  22.794  0.0496  0.0873  0.2047
47117W        W55917   9.552   0.660  29.608 -0.2200 -0.0844  0.2625
47118W        W55918  24.216   0.985  26.374  0.3283  0.1620  0.2030
47119W        W55919  14.412   3.541  28.738  0.2876  0.0034 -0.0432
47120W        W55920  22.282   4.736  32.233 -0.1984 -0.3810  0.0556
47121W        W55921  21.643   5.182  11.404  0.2543 -0.2039  0.1810
47122W        W55922   7.593   3.348  30.768 -0.1478 -0.2510  0.0280
47123W        W55923   7.261   1.979  28.262  0.0300  0.0398 -0.2453
47124W        W55924  19.207   1.482   8.187  0.3502  0.2223  0.2587
47125W        W55925  10.631   2.228  13.511  0.1396  0.1111 -0.1360
47126W        W55926  25.973   1.204  28.101  0.0625  0.2076 -0.3456
47127W        W55927  21.781   4.600  14.494  0.0208 -0.1731  0.1919
47128W        W55928   1.881   0.157  25.494 -0.2860 -0.0189  0.0232
47129W        W55929  21.860   6.246   1.037 -0.0462  0.0064 -0.2651
47130W        W55930  20.762   2.775  30.527 -0.0608 -0.2272 -0.0171
47131W        W55931   4.651   1.754   8.802  0.1105  0.0451 -0.0194
47132W        W55932   9.071   5.190  12.289  0.0766 -0.0785 -0.0376
47133W        W55933   2.084   2.168  34.013  0.0574 -0.0731  0.0096
47134W        W55934   9.480   5.775  25.463  0.1743  0.0308 -0.0277
47135W        W55935  10.114   2.814   1.642  0.0779 -0.1357 -0.0164
47136W        W55936  18.919   0.803  32.589 -0.0628 -0.1698  0.0124
47137W        W55937  10.157   4.309  22.687 -0.1924  0.2932 -0.1061
47138W        W55938  11.612   5.848  13.569  0.0615  0.2382  0.2232
47139W        W55939  22.484   1.263  23.179  0.1998 -0.1043 -0.2109
47140W        W55940  15.283   4.787  13.914 -0.1717  0.0471  0.0940
47141W        W55941  22.916   0.276  10.967  0.1028  0.5675 -0.3507
47142W        W55942   4.867   1.346  14.507 -0.2619  0.0845 -0.1916
47143W        W55943  18.653   0.220   8.943 -0.1072  0.0387  0.1630
47144W        W55944  11.683   0.474  12.872  0.2550  0.2200 -0.1037
47145W        W55945   6.042   6.129   8.431  0.1231 -0.4835 -0.0785
47146W        W55946  14.179   1.802  32.956  0.0799  0.0517  0.1390
47147W        W55947  16.995   4.657  22.929 -0.2778  0.2417  0.0475
47148W        W55948  17.771   5.272  26.212 -0.1925 -0.0428 -0.1615
47149W        W55949   5.944   1.670   2.267 -0.0740 -0.1150 -0.2581
47150W        W55950  16.882   0.741   1.502  0.1472  0.2189  0.1368
47151W        W55951  16.491   2.807  12.875  0.3658 -0.0162 -0.1183
47152W        W55952  13.892   4.381   7.789  0.0059  0.1286 -0.2372
47153W        W55953  11.188   4.607   0.995 -0.0670 -0.1222 -0.0278
47154W        W55954   9.484   3.524  22.660  0.0823  0.1226  0.0567
47155W        W55955   6.942   4.957   8.556  0.0566 -0.1037  0.2223
47156W        W55956   7.713   2.293  25.373 -0.0052 -0.2310 -0.3941
47157W        W55957  14.209   5.881  14.115  0.0229 -0.1392  0.0526
47158W        W55958  16.114   0.568   5.594 -0.0485 -0.0058 -0.2310
47159W        W55959   0.188   5.906  29.410 -0.1313  0.2272  0.0148
47160W        W55960   3.163   2.838  22.527 -0.4082  0.1974  0.0092
47161W        W55961  11.411   4.550  24.553 -0.0489 -0.0727 -0.1951
47162W        W55962  25.494   3.229  12.862 -0.1211  0.0563  0.0529
47163W        W55963  16.134   6.236  32.944 -0.0859 -0.3625 -0.1198
47164W        W55964   8.620   4.410  32.418  0.0091  0.1768 -0.3138
47165W        W55965   8.279   0.078  27.571 -0.1493 -0.0311  0.1311
47166W        W55966  17.028   5.012  13.332 -0.0568  0.0063  0.3251
47167W        W55967  23.782   3.893  22.371  0.0251 -0.2917 -0.0600
47168W        W55968   7.814   5.982   3.970  0.2734  0.0349 -0.3029
47169W        W55969   7.774   1.688  29.439 -0.0786 -0.0343  0.1288
47170W        W55970  21.958   4.783   0.475  0.2049 -0.0492  0.3353
47171W        W55971  12.260   5.151   3.196  0.2730 -0.1912  0.1194
47172W        W55972   2.408   4.228   8.066  0.0376  0.1786  0.0881
47173W        W55973   6.330   3.628  10.306 -0.1278  0.2589 -0.0608
47174W        W55974   5.776   6.089  29.600 -0.3200 -0.1226 -0.0173
47175W        W55975  11.850   3.184  10.193 -0.1547 -0.2066 -0.1607
47176W        W55976  17.826   5.443   0.843 -0.0913 -0.2308 -0.0386
47177W        W55977  23.949   2.795   3.112 -0.2908  0.1853  0.2334
47178W        W55978  11.284   2.928   4.224  0.1714  0.1643  0.0757
47179W        W55979  19.427   6.466  12.324 -0.0124  0.1504 -0.0181
47180W        W55980   6.917   0.143  25.933  0.1118 -0.2089 -0.3966
47181W        W55981   4.404   3.931  35.898  0.3088 -0.0431 -0.4181
47182W        W55982  23.864   1.038  31.473 -0.3459 -0.1055 -0.2632
47183W        W55983  19.151   5.327  31.115  0.2189 -0.4139 -0.2109
47184W        W55984  10.448   5.722  23.860  0.2185 -0.0398  0.0198
47185W        W55985   0.325   1.275  23.454  0.2046 -0.0195 -0.1698
47186W        W55986   4.053   3.485   9.083  0.2618 -0.3192 -0.1413
47187W        W55987  17.305   5.954   1.439  0.0790 -0.0346 -0.2191
47188W        W55988   8.415   2.500  27.538 -0.1537 -0.0494 -0.0290
47189W        W55989  18.071   5.131  25.625  0.1039  0.0697 -0.0391
47190W        W55990   4.744   4.606  33.484  0.0171  0.1595  0.3053
47191W        W55991  20.134   3.490   4.747  0.0717  0.0964 -0.0699
47192W        W55992  19.562   1.927  22.875 -0.1488  0.2980 -0.0874
47193W        W55993   2.392   6.319  20.161 -0.1195  0.0734 -0.0354
47194W        W55994  18.812   2.973  27.878  0.2396 -0.3967 -0.1381
47195W        W55995  17.628   1.562  28.187 -0.1647  0.1284  0.1582
47196W        W55996  22.434   3.174  15.281 -0.0010 -0.1103 -0.2993
47197W        W55997   3.412   3.832  28.189 -0.3102  0.0432  0.1888
47198W        W55998  10.567   3.375   7.684  0.3168 -0.1436 -0.0810
47199W        W55999  22.282   4.712   8.969 -0.1329 -0.0017  0.2081
47200W        W56000  17.854   4.731  11.449  0.2373 -0.0081 -0.2027
47201W        W56001  14.720   6.400   1.208 -0.1715  0.1337  0.2735
47202W        W56002   5.465   2.358  31.256 -0.3236 -0.0442  0.0166
47203W        W56003   3.006   3.871  27.502  0.0219 -0.0174 -0.3609
47204W        W56004   7.947   6.430  35.529  0.0170  0.1934  0.1995
47205W        W56005  12.114   4.395  25.945  0.1552  0.3175  0.0407
47206W        W56006   7.814   4.063  30.509 -0.0798  0.5252  0.1536
47207W        W56007  20.357   2.573   5.882  0.0111 -0.1992  0.0724
47208W        W56008   1.994   4.006   8.386  0.2462 -0.0512 -0.0444
47209W        W56009   9.123   5.507  21.508  0.0553 -0.0745 -0.1716
47210W        W56010   9.103   0.373  28.351 -0.0587  0.1999  0.0653
47211W        W56011   7.436   5.882  31.131 -0.0425 -0.2309 -0.0607
47212W        W56012   3.322   2.938  34.064 -0.2513  0.1265  0.0586
47213W        W56013  26.331   6.518  20.847 -0.3965 -0.0372  0.0629
47214W        W56014  17.916   1.013  35.979 -0.2075  0.2013  0.0330
47215W        W56015  24.574   3.232  28.851  0.3427  0.2125  0.2408
47216W        W56016  15.074   5.447  22.497  0.0623 -0.1958 -0.1804
47217W        W56017   7.378   3.324  26.830 -0.0289 -0.2035 -0.1288
47218W        W56018   5.090   1.849   9.735  0.1184  0.0008  0.1219
47219W        W56019   6.018   5.534  11.551 -0.1613  0.3089 -0.2053
47220W        W56020  20.847   1.066   6.806  0.1708 -0.0662 -0.0200
47221W        W56021  18.917   1.615   7.188 -0.3319  0.1882 -0.2556
47222W        W56022   2.586   2.198   5.226 -0.1707 -0.1704 -0.2178
47223W        W56023  21.332   4.810  11.239 -0.1704 -0.0313 -0.0744
47224W        W56024  20.039   5.487  28.735 -0.1665  0.4075  0.0292
47225W        W56025   9.306   3.964   6.106  0.1252 -0.3177  0.0065
47226W        W56026  13.886   0.572   6.542  0.0471 -0.0866  0.1355
47227W        W56027  22.171   5.667   4.899 -0.1221  0.1269 -0.3069
47228W        W56028  14.388   4.883  33.811  0.1573  0.1226 -0.0436
47229W        W56029   4.373   0.151   8.688 -0.0079 -0.3660  0.2711
47230W        W56030  14.925   4.645   9.082  0.2815 -0.2810  0.1511
47231W        W56031   8.172   0.797  23.067 -0.0851 -0.1138  0.1439
47232W        W56032  20.179   3.888  14.811 -0.2053 -0.1001 -0.0103
47233W        W56033   1.428   4.634  34.653 -0.2065 -0.0477 -0.1644
47234W        W56034   0.250   2.126  24.964 -0.0692 -0.0401 -0.0699
47235W        W56035  19.420   0.291   6.297 -0.2790 -0.0966  0.0155
47236W        W56036  18.114   5.825   8.121 -0.1159 -0.0715 -0.1304
47237W        W56037  25.611   2.827   0.651  0.1094 -0.1282 -0.3321
47238W        W56038   9.500   3.587   2.080  0.0394  0.2479 -0.1756
47239W        W56039   1.518   5.644   8.051  0.0676 -0.2177  0.1741
47240W        W56040  16.969   6.504  22.565 -0.2975  0.0609  0.0451
47241W        W56041   0.959   0.416  26.936 -0.3958  0.1575 -0.1230
47242W        W56042  14.719   3.751  30.525  0.1538 -0.1717  0.0202
47243W        W56043  22.523   1.526  27.373 -0.2321 -0.2757 -0.1425
47244W        W56044   2.254   4.249   3.968  0.1056  0.0411  0.0737
47245W        W56045  25.515   0.107  34.820 -0.0137  0.0599  0.4952
47246W        W56046  21.321   5.337  11.736  0.1483  0.0099 -0.1759
47247W        W56047  15.784   0.729  32.998 -0.3965  0.1155  0.1341
47248W        W56048   2.407   4.510  35.178  0.0753 -0.0251  0.0832
47249W        W56049   0.198   1.851  34.908 -0.0121 -0.1295  0.0468
47250W        W56050   4.854   2.074   4.001 -0.1534 -0.2600  0.0608
47251W        W56051  15.394   4.261  12.106 -0.0183  0.0986  0.3656
47252W        W56052  14.849   0.441  24.762 -0.0647  0.0986  0.0081
47253W        W56053  19.899   4.174  15.172 -0.1291  0.0790 -0.0200
47254W        W56054   8.722   0.307  33.531 -0.1098 -0.1232 -0.0487
47255W        W56055  23.330   2.957   9.107 -0.0724  0.1893  0.2613
47256W        W56056  10.209   0.317   1.139 -0.2862  0.0953  0.3343
47257W        W56057   3.367   1.541   9.042 -0.0030  0.2342  0.0643
47258W        W56058  12.371   6.472  10.000  0.0329 -0.1340 -0.0064
47259W        W56059  23.148   5.661  23.624  0.1693 -0.0910  0.2996
47260W        W56060  22.921   3.154  10.723 -0.2547  0.0543 -0.0060
47261W        W56061  12.643   2.928  22.601  0.0495  0.1522  0.0673
47262W        W56062   0.939   5.972  24.534  0.1036 -0.0499 -0.1770
47263W        W56063   2.645   0.180   1.986 -0.0168 -0.2212  0.1341
47264W        W56064   6.829   5.959  32.906  0.0044 -0.1639  0.0540
47265W        W56065   7.575   3.898   8.205 -0.2135 -0.1612  0.0334
47266W        W56066  12.144   5.555  11.912 -0.3133 -0.2443  0.1098
47267W        W56067   6.560   2.181  26.892 -0.1313  0.2853  0.1258
47268W        W56068   8.001   1.043  34.306  0.1647 -0.1895  0.1280
47269W        W56069   3.820   4.048  25.154 -0.0922  0.0503 -0.0117
47270W        W56070  23.898   1.078   6.911  0.0335 -0.1505  0.0051
47271W        W56071  19.773   5.534  24.996 -0.0392 -0.3729  0.0587
47272W        W56072   9.011   4.688  30.018 -0.3908 -0.2702 -0.2546
47273W        W56073  26.265   4.581   5.261  0.0431  0.0571  0.0832
47274W        W56074   6.580   0.586   1.838 -0.0702 -0.1187 -0.2770
47275W        W56075   3.439   1.615  11.868 -0.0835  0.3070 -0.0634
47276W        W56076  18.691   2.200  26.288  0.2092  0.0461  0.0723
47277W        W56077   5.283   1.666  31.370  0.3054  0.0667 -0.2366
47278W        W56078   9.140   3.637  11.448  0.0141  0.1440  0.4114
47279W        W56079  19.425   2.930  29.053  0.1635 -0.1380  0.2472
47280W        W56080  10.612   3.644  14.425 -0.1033  0.1576  0.3796
47281W        W56081  13.131   0.280  10.334  0.2399  0.0134 -0.0804
47282W        W56082  11.609   0.948  14.050  0.0821  0.0770  0.1277
47283W        W56083  12.092   3.915  35.542 -0.1657  0.0397 -0.3451
47284W        W56084  10.929   5.776  21.552  0.0819  0.0557  0.0202
47285W        W56085  12.038   1.064  34.465 -0.1535  0.3250 -0.0853
47286W        W56086  17.422   3.882   6.833 -0.0694 -0.3029  0.1215
47287W        W56087   8.831   2.581  30.472  0.2806  0.0398  0.0795
47288W        W56088  25.859   3.871   3.639  0.3307  0.1468  0.1920
47289W        W56089  12.014   6.497  21.902  0.0785  0.0810 -0.1935
47290W        W56090  18.849   2.454  33.788 -0.0808  0.2119  0.1282
47291W        W56091  22.441   1.731   7.115 -0.1745 -0.3046 -0.2256
47292W        W56092  21.684   1.963   3.465 -0.0269  0.0705 -0.2291
47293W        W56093   8.802   1.402   4.818  0.0178 -0.3136 -0.0501
47294W        W56094  18.499   2.652   5.850  0.0994 -0.0663  0.0109
47295W        W56095  12.094   2.213  10.899 -0.1092  0.1549 -0.2631
47296W        W56096  18.162   3.775  36.030 -0.1263 -0.0980 -0.0989
47297W        W56097  17.086   0.263   1.536  0.4005 -0.0721 -0.1005
47298W        W56098  10.468   2.664  21.472  0.0108  0.3302  0.3043
47299W        W56099   6.640   4.629   6.269 -0.2048  0.0635 -0.1252
47300W        W56100   4.040   4.206  20.447 -0.0409 -0.0725  0.1092
47301W        W56101  22.746   2.498  14.412 -0.1256  0.2859  0.2089
47302W        W56102  21.386   4.121   6.208 -0.1491 -0.0062  0.0650
47303W        W56103  12.774   5.877  21.846 -0.0094 -0.0885 -0.2735
47304W        W56104  10.587   2.132  28.731  0.1874  0.2530 -0.0902
47305W        W56105  10.956   1.332  21.645 -0.2350  0.2244  0.0715
47306W        W56106  25.810   0.008  35.304  0.0512  0.1856  0.1385
47307W        W56107  20.637   5.430   2.363 -0.1300 -0.2089 -0.1708
47308W        W56108  26.389   0.587  30.595  0.1000  0.0336  0.3018
47309W        W56109   2.024   5.129  29.878  0.2594  0.1201 -0.1239
47310W        W56110  20.361   4.320  35.288  0.1570  0.0575  0.0566
47311W        W56111   3.286   3.920   6.485  0.2395 -0.1006 -0.1272
47312W        W56112  15.896   4.016  31.244 -0.0255 -0.1285 -0.0910
47313W        W56113  17.857   1.927  31.004 -0.0898  0.2594 -0.2135
47314W        W56114   5.500   5.645  14.331  0.0951 -0.0638  0.0233
47315W        W56115  25.951   0.596  21.955 -0.0058 -0.1606 -0.0915
47316W        W56116  11.147   1.706  27.813  0.1257 -0.1195 -0.1969
47317W        W56117   3.205   4.018   8.239 -0.0859 -0.1059  0.1168
47318W        W56118  11.614   6.523  11.919  0.1611 -0.1195 -0.1150
47319W        W56119  18.759   4.124  31.155 -0.0084  0.0958 -0.1308
47320W        W56120  26.219   1.241  23.799 -0.3793  0.3175  0.2434
47321W        W56121  17.644   1.588   0.088  0.1578  0.5191  0.3915
47322W        W56122  18.254   2.917  33.365  0.1253  0.0263  0.2909
47323W        W56123  17.527   3.239  26.748 -0.0128 -0.1226  0.2348
47324W        W56124  21.098   3.865  28.950  0.0380 -0.2156  0.1634
47325W        W56125  15.222   1.206   2.058  0.0335 -0.1435 -0.0326
47326W        W56126  21.214   1.774   5.476 -0.4384 -0.3281  0.1029
47327W        W56127   9.970   2.809  26.123 -0.0604  0.1338  0.2048
47328W        W56128  15.310   3.219  13.135  0.3456 -0.2236  0.2487
47329W        W56129  20.752   1.040  20.804  0.0457  0.0543  0.0829
47330W        W56130   0.450   4.195  30.281 -0.0166  0.2923 -0.0200
47331W        W56131  10.018   0.156  30.137  0.1989 -0.1205 -0.3272
47332W        W56132  17.138   1.114  12.296  0.0931  0.1597 -0.1717
47333W        W56133  10.722   1.339  11.520  0.3005  0.1739 -0.1111
47334W        W56134  15.889   4.289   8.173  0.0685  0.5674  0.2362
47335W        W56135   5.905   1.053   2.756  0.0039  0.1752  0.0886
47336W        W56136  19.754   5.359  32.762 -0.0873 -0.0370  0.2815
47337W        W56137  14.182   2.687   3.835  0.3678 -0.1164 -0.0026
47338W        W56138   0.155   0.363  12.537  0.1127 -0.1111 -0.0634
47339W        W56139   7.645   1.650  28.220 -0.1297  0.3709  0.3383
47340W        W56140  17.227   6.109  35.429  0.1480  0.1803  0.0260
47341W        W56141   8.435   1.127   9.718 -0.1137 -0.0962  0.1089
47342W        W56142   9.789   1.725  26.454 -0.0588  0.2412 -0.2957
47343W        W56143   6.787   5.363  34.000 -0.0048 -0.0717 -0.1151
47344W        W56144   3.940   0.515  13.764  0.1459 -0.0116 -0.0887
47345W        W56145  16.541   0.728  31.011 -0.1927 -0.5282  0.1630
47346W        W56146  25.240   6.232  24.446 -0.0234 -0.0814 -0.3492
47347W        W56147  20.178   0.523  28.485  0.2095  0.1164  0.0278
47348W        W56148  14.043   6.150  12.516 -0.1026 -0.1171  0.1501
47349W        W56149   6.353   2.025   6.501  0.0386 -0.1938 -0.0647
47350W        W56150   7.354   0.977  25.834  0.0166 -0.0896 -0.1609
47351W        W56151  15.605   1.988  11.305 -0.1574 -0.0391 -0.1352
47352W        W56152   6.784   6.092  35.880 -0.1026 -0.1497 -0.0815
47353W        W56153  26.301   1.389  35.482  0.1803  0.0013 -0.0731
47354W        W56154   0.717   0.875   1.417 -0.1687 -0.3305 -0.0885
47355W        W56155  22.272   5.134  31.182  0.2334  0.3145  0.0532
47356W        W56156  22.713   1.670  23.036 -0.0657 -0.0217 -0.0028
47357W        W56157  19.484   0.816  32.610  0.1225 -0.1130  0.2191
47358W        W56158  14.549   3.719  12.021 -0.1178  0.0340 -0.1253
47359W        W56159  15.676   2.607   9.224  0.1485 -0.0445 -0.0931
47360W        W56160   3.095   5.076  25.602 -0.0383  0.3109 -0.1564
47361W        W56161   5.638   6.500  32.269 -0.0510 -0.2504  0.2712
47362W        W56162  12.127   0.375  13.742 -0.1802  0.0274  0.0763
47363W        W56163  23.138   0.383  34.284 -0.0950 -0.2652  0.1263
47364W        W56164  10.871   0.199   3.106 -0.0398 -0.0660 -0.2447
47365W        W56165  20.806   5.560  10.109 -0.2728  0.2415 -0.2655
47366W        W56166   1.860   2.411   4.986 -0.2372  0.1555 -0.0895
47367W        W56167  21.138   5.700  10.457  0.2242  0.1493 -0.1598
47368W        W56168  17.634   2.689   1.041  0.0628  0.1651  0.4159
47369W        W56169   6.405   3.071   5.952 -0.0552 -0.1137  0.0825
47370W        W56170   3.542   4.716   1.393 -0.2076 -0.1715  0.0903
47371W        W56171  16.701   6.101  34.156 -0.1103 -0.4014 -0.0896
47372W        W56172   1.592   0.559  10.243 -0.1100 -0.1945  0.1422
47373W        W56173   6.466   1.972   7.967  0.1153  0.0389 -0.0721
47374W        W56174  15.238   3.501  11.257  0.4451 -0.2684  0.3109
47375W        W56175   7.142   4.502  23.562 -0.2512  0.0789 -0.0255
47376W        W56176  21.790   4.795  25.424  0.1006 -0.0265  0.3529
47377W        W56177   9.679   0.208   4.559  0.0317  0.0201 -0.0180
47378W        W56178  19.910   6.312  29.000  0.1567 -0.3078  0.2641
47379W        W56179   9.377   0.231  26.899 -0.0282  0.0829 -0.0953
47380W        W56180  22.618   4.428  35.144  0.0576 -0.2432 -0.1728
47381W        W56181  19.877   3.106  35.875  0.0152 -0.1372  0.1880
47382W        W56182   3.106   1.805  22.466  0.2077 -0.1190 -0.0401
47383W        W56183   6.889   0.170  11.312 -0.0473 -0.0371 -0.1986
47384W        W56184   8.034   4.815  22.590  0.1217  0.0566 -0.0552
47385W        W56185  17.170   0.607  33.272  0.2721  0.2673  0.0416
47386W        W56186  16.911   3.395   1.084  0.0590 -0.1317  0.1781
47387W        W56187  16.171   3.933  24.097  0.5079 -0.1245 -0.1797
47388W        W56188   8.566   3.233  29.264 -0.0672  0.0210 -0.0950
47389W        W56189  24.112   0.435   6.494 -0.2867 -0.1536  0.0409
47390W        W56190  24.426   4.538  25.636 -0.3356  0.3630 -0.2322
47391W        W56191   1.473   6.409  21.116 -0.0425 -0.1847 -0.0353
47392W        W56192   9.337   1.841  21.889  0.0399  0.0217  0.4507
47393W        W56193  16.546   0.305   2.425  0.0671 -0.1105 -0.0497
47394W        W56194  10.285   3.472  35.426 -0.0886 -0.0775 -0.0472
47395W        W56195  14.294   0.502  32.955 -0.3473  0.0869  0.2284
47396W        W56196  10.145   3.268  14.409  0.4930  0.1569 -0.1900
47397W        W56197   3.573   0.045  25.179 -0.2302 -0.0283 -0.3414
47398W        W56198  11.466   2.208  22.003 -0.1669  0.0880 -0.0951
47399W        W56199   0.534   1.931   4.453  0.2271 -0.3967  0.2086
47400W        W56200  18.194   1.067   3.171  0.1814  0.0793  0.3153
47401W        W56201   1.688   1.388  22.731 -0.1918 -0.0299 -0.3540
47402W        W56202   5.747   0.695   7.753 -0.0183 -0.1385 -0.0066
47403W        W56203   0.723   4.921  34.096 -0.1795  0.1398 -0.1336
47404W        W56204  16.257   5.339   0.051  0.0800 -0.0806 -0.1636
47405W        W56205  10.131   2.709  35.817  0.1592  0.0085  0.1352
47406W        W56206   7.018   5.912  10.263  0.0744  0.1439  0.1289
47407W        W56207  21.638   3.517  12.708  0.4085 -0.2220 -0.0040
47408W        W56208  15.778   5.528  23.929  0.0077  0.1865 -0.0288
47409W        W56209   6.607   6.318  11.854 -0.2436  0.0391  0.3602
47410W        W56210  10.517   3.752  34.365  0.1325  0.0182  0.2325
47411W        W56211   5.393   5.185  14.180 -0.0947  0.0116  0.1133
47412W        W56212   8.190   5.520   6.131 -0.0075 -0.1357  0.1684
47413W        W56213  20.903   3.091  22.841 -0.1231  0.1448  0.0147
47414W        W56214  19.983   6.173  16.045  0.0415  0.1622  0.3038
47415W        W56215  16.435   2.385   3.272  0.0712 -0.0266  0.2258
47416W        W56216  19.653   0.393   7.271 -0.2253  0.1941 -0.0317
47417W        W56217  12.942   0.250  27.535 -0.1903 -0.3901 -0.1002
47418W        W56218   2.115   6.056  23.787 -0.0445  0.0115 -0.4050
47419W        W56219   8.260   5.540   9.305 -0.1138 -0.1255  0.0065
47420W        W56220  24.942   4.653  14.718 -0.0751 -0.2824  0.3016
47421W        W56221  12.027   5.489   0.460  0.1525  0.1538 -0.0554
47422W        W56222  14.225   4.778   6.252 -0.3901 -0.1313 -0.4056
47423W        W56223   8.473   2.597   3.617  0.0406  0.0808  0.1703
47424W        W56224  13.341   0.209   4.104 -0.1915  0.4092 -0.1177
47425W        W56225   6.863   6.543  30.731 -0.2548  0.0712 -0.2658
47426W        W56226  18.129   4.191   7.331 -0.1486 -0.0104  0.0037
47427W        W56227  18.882   3.873  26.607  0.0592  0.1586 -0.1076
47428W        W56228   3.085   3.912   4.413  0.2087  0.1250 -0.2415
47429W        W56229  10.421   6.476  33.292  0.4344  0.2514  0.1119
47430W        W56230  21.543   5.554  22.623 -0.1214  0.1650  0.3480
47431W        W56231  12.302   0.897   5.930  0.1861 -0.0471 -0.0030
47432W        W56232   9.006   4.417  13.519 -0.0803  0.1064 -0.2569
47433W        W56233  25.429   4.792   2.441  0.0015  0.2870 -0.0235
47434W        W56234  18.008   3.471   8.286  0.3300 -0.0441 -0.3255
47435W        W56235  17.850   3.058  32.928  0.0265  0.0637  0.1041
47436W        W56236   9.504   1.616  30.929  0.3355  0.2296 -0.1766
47437W        W56237  26.373   3.420   7.028  0.1616 -0.3443 -0.0786
47438W        W56238   9.065   1.206  28.272  0.0117 -0.2659 -0.0700
47439W        W56239  10.861   0.812  13.658 -0.1768 -0.0028 -0.0047
47440W        W56240  20.603   3.652  20.346 -0.1391  0.0481  0.3023
47441W        W56241   7.447   0.125  26.147  0.0541  0.0933  0.2127
47442W        W56242  22.402   2.349   7.085 -0.0689  0.2395 -0.1643
47443W        W56243   2.930   3.278   8.927  0.0687 -0.0397 -0.1659
47444W        W56244   0.186   3.957   8.460  0.0088  0.2046 -0.0099
47445W        W56245  17.810   4.722  14.295  0.1648 -0.0364  0.1497
47446W        W56246   6.057   2.028  10.486 -0.2814  0.1214  0.1872
47447W        W56247  21.379   4.469   1.618  0.0344 -0.1670 -0.3348
47448W        W56248   3.149   0.124   2.880 -0.0489 -0.2541  0.1949
47449W        W56249   9.651   3.942  32.845 -0.1429  0.1439 -0.1769
47450W        W56250   5.989   2.368  10.103 -0.0735  0.0482  0.0179
47451W        W56251   2.753   1.623  29.465  0.1715 -0.0600  0.2772
47452W        W56252   0.532   1.231  33.354  0.1101 -0.0265 -0.0825
47453W        W56253   6.803   5.991   1.023  0.1110  0.3438  0.0796
47454W        W56254  26.247   2.654  35.238 -0.0649  0.1024 -0.3626
47455W        W56255   1.484   4.722  10.835  0.2070 -0.0944  0.1609
47456W        W56256  16.204   5.293  28.417  0.1789  0.0276  0.2065
47457W        W56257   6.874   4.384   2.637  0.3561 -0.1763  0.0527
47458W        W56258  15.389   5.928  23.576  0.1074  0.2823  0.0588
47459W        W56259  23.563   0.322  26.233  0.2812  0.1244  0.0991
47460W        W56260   7.078   3.239  32.558 -0.2765  0.1147  0.0186
47461W        W56261  23.399   1.555  23.255 -0.0791 -0.0389  0.0247
47462W        W56262  26.105   2.630   8.761 -0.0674  0.0675 -0.0571
47463W        W56263  12.708   4.747  32.870  0.2152  0.0306 -0.2694
47464W        W56264   0.834   0.277   9.532  0.1422 -0.1724 -0.1789
47465W        W56265  22.732   1.247  25.400  0.1668  0.1246 -0.2602
47466W        W56266  14.250   6.525  10.736 -0.1793  0.2122 -0.1175
47467W        W56267  26.009   0.569   9.025 -0.0970  0.1243  0.0355
47468W        W56268   6.590   4.772  14.423 -0.0355  0.0832 -0.0023
47469W        W56269  22.373   5.930  14.605  0.0617 -0.0987 -0.1363
47470W        W56270  12.366   3.293  10.239 -0.2822 -0.1034  0.0021
47471W        W56271   2.472   3.714  26.958 -0.3213 -0.3554  0.0475
47472W        W56272  17.253   1.795  32.302 -0.2674 -0.0383  0.0315
47473W        W56273   6.914   1.888  22.379 -0.3077 -0.1416  0.1762
47474W        W56274  15.765   5.264  27.854 -0.2188  0.1951 -0.0194
47475W        W56275  15.935   3.283   4.346  0.1720  0.1745 -0.0086
47476W        W56276  12.857   2.376   2.995  0.1036  0.0168 -0.1074
47477W        W56277   7.038   1.922  34.669  0.0339 -0.0933  0.0535
47478W        W56278   0.860   5.533  13.595  0.0206 -0.4468  0.2572
47479W        W56279   3.696   1.548   9.863 -0.0571  0.3733 -0.1338
47480W        W56280  16.258   2.237  30.112  0.1731  0.0502  0.0344
47481W        W56281  19.321   0.845  33.937 -0.1459 -0.0033  0.1494
47482W        W56282  21.187   6.085   9.670  0.0179  0.0012  0.2487
47483W        W56283  16.745   4.329   0.867 -0.1535 -0.1275 -0.0942
47484W        W56284  17.900   6.552   2.061  0.0694 -0.1812  0.0038
47485W        W56285  18.760   2.281   7.157 -0.0673 -0.1050  0.0042
47486W        W56286   7.468   0.902  34.238 -0.2735 -0.0685  0.2029
47487W        W56287  15.101   6.438  27.498  0.0071  0.0194 -0.2398
47488W        W56288   3.058   5.010  24.365 -0.3536 -0.1249 -0.0385
47489W        W56289  26.016   4.611   8.693  0.2424 -0.0731  0.1503
47490W        W56290  13.483   0.401  35.776 -0.0361  0.0134  0.3480
47491W        W56291  16.886   3.316  23.494  0.0701  0.0337  0.1462
47492W        W56292  22.290   4.764  20.713 -0.0335  0.2194  0.0126
47493W        W56293   9.438   1.463  35.877  0.0016  0.2608  0.0915
47494W        W56294  21.014   0.909  20.315  0.1620  0.0643  0.2874
47495W        W56295   2.539   4.205   8.619 -0.0880 -0.2517 -0.2227
47496W        W56296  19.560   6.489  26.727 -0.3012  0.0437  0.2024
47497W        W56297  25.700   4.458  10.999  0.2453  0.1170  0.2289
47498W        W56298  12.050   3.360  30.071  0.0534 -0.0116 -0.1272
47499W        W56299  15.324   2.291  13.613 -0.0749  0.4704  0.0703
47500W        W56300  17.377   2.098  11.220 -0.2956 -0.1143  0.0703
47501W        W56301  14.840   1.786  11.657  0.1892 -0.1995  0.0989
47502W        W56302   7.793   3.644   0.621 -0.0145 -0.1809  0.0004
47503W        W56303   2.035   5.272   3.922  0.2879 -0.0128 -0.0264
47504W        W56304  21.220   2.302  29.181  0.0896  0.2285 -0.1058
47505W        W56305  25.111   5.771  12.047  0.1822 -0.3621  0.1103
47506W        W56306   0.002   2.327  13.439 -0.1430 -0.1681 -0.0944
47507W        W56307   7.673   1.250  29.642 -0.2542  0.0645  0.2912
47508W        W56308   7.435   3.506  14.980  0.1846  0.3712 -0.1796
47509W        W56309  19.764   1.175   1.719  0.0698 -0.0477  0.1273
47510W        W56310  20.181   5.417   8.109 -0.0973 -0.2495  0.0306
47511W        W56311  21.950   3.820  33.563  0.1107  0.0287 -0.0075
47512W        W56312   9.068   4.946  33.581 -0.0039 -0.1078  0.1528
47513W        W56313   4.712   5.673   8.058 -0.1916 -0.0110 -0.1522
47514W        W56314  16.114   4.114  35.249 -0.1076  0.0233 -0.1612
47515W        W56315  22.557   4.691  29.912  0.0015 -0.2368  0.0312
47516W        W56316   1.548   4.663   0.313 -0.1423 -0.2347 -0.1972
47517W        W56317  24.425   6.136  22.485 -0.2201  0.2295  0.2361
47518W        W56318  23.615   4.315   7.140 -0.2394  0.1294  0.0954
47519W        W56319  19.817   0.483   4.215 -0.0312  0.0918  0.2974
47520W        W56320   8.858   1.276   9.594 -0.2419  0.1276 -0.2679
47521W        W56321  11.941   0.033  15.343  0.4241  0.1358  0.1601
47522W        W56322   6.111   0.157  27.742 -0.3581  0.2618  0.0219
47523W        W56323   0.542   0.378  27.902 -0.0374  0.2027  0.1680
47524W        W56324   0.986   2.439  32.117  0.0652 -0.0729 -0.3026
47525W        W56325  26.023   6.322  30.658  0.0724  0.2411 -0.2509
47526W        W56326  24.405   0.026  24.201  0.2657  0.2322  0.1359
47527W        W56327   1.717   0.381  25.023 -0.0058  0.2265 -0.0380
47528W        W56328  22.147   0.714  26.432  0.2282  0.2782 -0.1009
47529W        W56329   2.302   3.803  35.714  0.0429 -0.2038 -0.0119
47530W        W56330  16.811   3.203  13.028 -0.1022  0.0382  0.1272
47531W        W56331  12.138   5.319   5.174 -0.3150 -0.0113 -0.0298
47532W        W56332  25.288   3.553  31.587 -0.0736  0.0566  0.0404
47533W        W56333  16.386   2.057   3.733  0.2576 -0.2077  0.0207
47534W        W56334  24.301   4.409  32.486  0.1043  0.0470 -0.3312
47535W        W56335  21.623   4.447  24.421 -0.3416  0.1313  0.1247
47536W        W56336  11.818   3.531  34.544 -0.1035 -0.3062  0.0812
47537W        W56337   4.458   0.094  28.527 -0.0394  0.1783 -0.0978
47538W        W56338  13.584   4.855  23.721 -0.1265 -0.4217  0.3915
47539W        W56339   2.940   0.351  29.180 -0.0958  0.2119  0.0611
47540W        W56340  11.651   1.562   9.762 -0.1784 -0.0095 -0.0441
47541W        W56341   9.589   3.232  11.012  0.2117  0.1045  0.1414
47542W        W56342  19.717   2.380  11.321  0.1153 -0.0295 -0.0461
47543W        W56343  25.101   5.871  29.433 -0.2437  0.2064  0.2402
47544W        W56344   7.010   2.449   2.063 -0.1104 -0.0303 -0.2639
47545W        W56345  14.956   4.511   6.900 -0.1672 -0.0152 -0.1000
47546W        W56346   2.128   6.545   0.801 -0.1498  0.0963  0.0296
47547W        W56347   1.037   4.011  11.941 -0.0174  0.5585 -0.3091
47548W        W56348   3.644   1.198  13.049  0.0155  0.0840  0.2591
47549W        W56349   7.454   3.577  33.332 -0.3411  0.0935  0.0114
47550W        W56350   3.013   4.274  29.509  0.1720 -0.4098 -0.1117
47551W        W56351  11.539   1.878  23.925 -0.0460  0.1091 -0.0922
47552W        W56352   8.077   6.408   5.632  0.1199 -0.0765 -0.1625
47553W        W56353  24.534   3.731  15.024  0.3508 -0.2286  0.0773
47554W        W56354  14.836   1.688  23.459 -0.1533 -0.0339  0.1278
47555W        W56355   0.006   1.226   7.128 -0.0304  0.0579  0.0472
47556W        W56356   0.833   6.503  10.234  0.1298 -0.1004 -0.2330
47557W        W56357  11.875   1.098  15.396  0.0172 -0.0104 -0.1915
47558W        W56358   2.565   1.927   3.177 -0.0731 -0.2642  0.1835
47559W        W56359   4.048   0.297   3.397 -0.0511 -0.0437 -0.0815
47560W        W56360  14.070   1.200  27.200  0.0116 -0.1638 -0.2354
47561W        W56361   1.004   5.809   1.186  0.2047  0.1165 -0.2308
47562W        W56362   0.393   5.599  11.398  0.0689 -0.2226  0.1304
47563W        W56363  11.920   6.208  32.300 -0.0090 -0.0558  0.1541
47564W        W56364   9.640   6.393   1.638  0.0221 -0.0377  0.1084
47565W        W56365  11.589   5.014   6.201  0.0743  0.1473 -0.0780
47566W        W56366  23.228   2.753  35.206  0.0046  0.1901 -0.1440
47567W        W56367  26.235   0.082  33.657  0.0854 -0.0949 -0.3005
47568W        W56368  10.479   2.076   2.268  0.1297  0.0277 -0.0530
47569W        W56369   1.114   1.237  33.510  0.0314 -0.0829 -0.2187
47570W        W56370   7.300   1.426  33.840 -0.2262 -0.0659 -0.1257
47571W        W56371   8.102   1.374  14.005  0.0311 -0.2623 -0.0953
47572W        W56372  19.645   6.063  15.124 -0.1011 -0.1168 -0.0962
47573W        W56373   0.718   4.548  35.841 -0.2062  0.1701  0.0482
47574W        W56374  22.820   0.720   4.115  0.1952  0.1866 -0.0128
47575W        W56375  13.419   4.623  11.037 -0.0871  0.0592  0.1054
47576W        W56376   8.104   1.866  21.031  0.0203  0.0686 -0.1116
47577W        W56377  12.741   1.396  25.883 -0.0865 -0.3652  0.1986
47578W        W56378   6.095   1.646   3.192 -0.1242 -0.1416  0.1067
47579W        W56379   8.029   3.714  23.623 -0.2351  0.2561 -0.2271
47580W        W56380   8.676   0.097   1.401 -0.0947 -0.2796 -0.1286
47581W        W56381  25.004   0.156  29.748  0.3352  0.3786  0.0306
47582W        W56382  21.344   6.470  21.282 -0.0835 -0.5000  0.3430
47583W        W56383  16.122   5.926  21.828 -0.1141  0.0989 -0.1851
47584W        W56384  10.499   5.436  11.380  0.0108  0.1850 -0.0770
47585W        W56385   6.346   5.269   3.105  0.2165  0.0671 -0.0926
47586W        W56386  18.483   0.820  24.974 -0.0609 -0.1178  0.0704
47587W        W56387  12.022   2.166  11.404  0.1441  0.2531 -0.1429
47588W        W56388  22.576   5.273  10.543  0.0203 -0.1310 -0.0971
47589W        W56389   3.619   4.828   6.408 -0.3239 -0.1643 -0.2123
47590W        W56390  20.310   3.204   5.997  0.3905  0.1873  0.1162
47591W        W56391  15.470   3.390   6.471 -0.1442 -0.2171  0.2984
47592W        W56392  23.544   4.023   1.205  0.3225  0.0021  0.0502
47593W        W56393   8.986   0.348   6.338 -0.0210  0.0709 -0.1547
47594W        W56394   9.397   3.982   5.630  0.1095 -0.1429  0.0199
47595W        W56395  10.779   2.052  34.670  0.0279 -0.1811 -0.1781
47596W        W56396  15.622   6.573  35.791 -0.0465 -0.1071 -0.3422
47597W        W56397   9.017   5.897   4.759  0.1433  0.0298  0.0165
47598W        W56398  23.750   4.922  28.430 -0.1866 -0.0471 -0.0137
47599W        W56399  17.010   1.628   2.327 -0.1009  0.1717 -0.0024
47600W        W56400  14.027   5.297   0.058 -0.0675  0.1727 -0.0194
47601W        W56401  15.413   1.052  34.837 -0.3260  0.3243 -0.3657
47602W        W56402   1.181   5.333  23.022  0.1626  0.0087 -0.0050
47603W        W56403   0.096   2.824  21.693  0.1456 -0.3996 -0.1473
47604W        W56404   0.134   4.761   2.185  0.2443  0.1784  0.0840
47605W        W56405  14.780   0.252  13.026  0.0189 -0.0037  0.1179
47606W        W56406  22.349   2.682  14.627  0.2008  0.3258 -0.1612
47607W        W56407  17.578   0.563  24.737  0.1173 -0.0456  0.0212
47608W        W56408   1.932   5.364   2.815  0.0210 -0.3084 -0.1681
47609W        W56409  25.109   0.641   4.317 -0.0422  0.0196  0.4594
47610W        W56410   5.976   3.276   4.486  0.0747  0.1657 -0.1493
47611W        W56411  20.110   0.038  24.627 -0.0243  0.1938  0.1859
47612W        W56412  19.584   4.218   8.338  0.0291 -0.3746 -0.0605
47613W        W56413  12.927   3.750   8.349 -0.2509 -0.0439 -0.1306
47614W        W56414  12.411   2.004  22.403  0.1125  0.4243  0.0156
47615W        W56415  13.353   5.486   0.906  0.0453 -0.1468 -0.0541
47616W        W56416  23.180   4.249   9.973 -0.2384  0.2784  0.2084
47617W        W56417   9.157   2.109   8.477  0.0873 -0.0023  0.1643
47618W        W56418   3.654   0.336   6.715 -0.0061  0.1421 -0.0337
47619W        W56419  21.965   2.170  22.922 -0.0533  0.3641  0.1295
47620W        W56420   8.866   6.562  26.621 -0.2270  0.0991  0.3125
47621W        W56421   4.038   1.880   6.848  0.1490  0.2675  0.0519
47622W        W56422  23.474   1.262   4.259 -0.2128 -0.0334  0.0764
47623W        W56423  23.528   5.167  14.881 -0.1131  0.0544  0.0838
47624W        W56424  16.640   0.701  14.776 -0.2122  0.1113 -0.1182
47625W        W56425  15.707   2.101   3.557  0.1244 -0.0313  0.2115
47626W        W56426   9.247   0.718  14.058 -0.1834  0.1866  0.2385
47627W        W56427  17.084   3.666  33.247  0.1895 -0.0278  0.1361
47628W        W56428   3.902   1.170  10.211  0.1453  0.1236 -0.1618
47629W        W56429  12.493   1.451  27.772  0.0258  0.1547 -0.1424
47630W        W56430  24.532   0.883  24.599 -0.0485  0.2967  0.1189
47631W        W56431  11.226   5.652  33.074 -0.2770  0.0700 -0.0188
47632W        W56432  10.645   0.616  22.659 -0.2401  0.0754  0.0829
47633W        W56433   7.274   0.459  25.609 -0.1860 -0.0355 -0.1526
47634W        W56434  17.162   1.576  25.327 -0.0687  0.1576 -0.1577
47635W        W56435   3.062   2.471   6.867 -0.2845  0.0671  0.0680
47636W        W56436   7.566   4.187   4.928  0.0617 -0.1276 -0.1027
47637W        W56437  21.033   0.066  27.551 -0.3728  0.1319 -0.0915
47638W        W56438  18.009   5.077  25.055  0.2705 -0.1004  0.0070
47639W        W56439  12.162   6.538  27.829  0.1022  0.0915 -0.0556
47640W        W56440   7.053   3.749   3.695 -0.0815  0.1298  0.0050
47641W        W56441   6.101   2.466  24.340  0.0282 -0.2776  0.0361
47642W        W56442   7.937   3.697   6.661 -0.2143 -0.3928  0.2230
47643W        W56443  16.272   4.053  30.985  0.1045 -0.0730  0.2970
47644W        W56444   0.052   3.225   1.852 -0.3741  0.2393 -0.0011
47645W        W56445   4.715   6.418  12.688  0.0232  0.1588  0.3888
47646W        W56446  12.558   1.209   9.047  0.1347  0.3509  0.0905
47647W        W56447   6.002   0.435  28.143  0.0988 -0.1552  0.0112
47648W        W56448  10.028   3.201  11.589 -0.0201  0.0208  0.2232
47649W        W56449  12.597   0.113  25.590 -0.0529  0.0842  0.0879
47650W        W56450  13.087   3.199  25.561  0.1788  0.1068 -0.0571
47651W        W56451   1.004   6.372  23.703 -0.0846 -0.2494 -0.2290
47652W        W56452  25.381   0.310  35.226 -0.0169  0.0849  0.0241
47653W        W56453  15.476   0.993  31.255 -0.1234  0.2389  0.0783
47654W        W56454  22.171   1.502   9.115 -0.1638 -0.0073 -0.0732
47655W        W56455  14.247   3.405   4.457  0.1719 -0.2579  0.0661
47656W        W56456  16.972   2.989   5.035  0.3424 -0.0609  0.0745
47657ION     NA56457  25.457   1.859  33.395 -0.1959  0.3726 -0.1609
47658ION     NA56458  19.972   5.667   4.163 -0.4151 -0.1061 -0.5448
47659ION     NA56459   8.173   4.285  26.326 -0.3014  0.2700 -0.3249
47660ION     NA56460   0.496   3.931  29.385  0.1697  0.0349  0.4393
47661ION     NA56461  21.655   1.328  13.319 -0.2438 -0.1929 -0.3499
47662ION     NA56462  14.985   1.565   5.396 -0.1508 -0.4624  0.0307
47663ION     NA56463   1.925   5.242  26.700 -0.2997  0.2288 -0.1762
47664ION     NA56464   5.480   0.395  33.358  0.1613 -0.0172 -0.3115
47665ION     NA56465   0.766   1.560  34.466  0.4543  0.2053  0.5033
47666ION     NA56466  12.828   4.487  24.726  0.0415  0.1880 -0.2334
47667ION     NA56467  21.128   2.652   2.219 -0.2695 -0.1114 -0.3205
47668ION     NA56468   1.138   0.414  14.242  0.5145  0.0525 -0.3075
47669ION     NA56469  21.487   5.908  12.521 -0.2369 -0.2090  0.5078
47670ION     NA56470  16.542   4.660   5.528  0.0287 -0.1168  0.2830
47671ION     NA56471  15.105   1.666  20.970 -0.0583 -0.0028  0.1635
47672ION     NA56472  21.038   0.383   9.098 -0.0510  0.4051  0.1034
47673ION     NA56473  16.704   0.376  24.990 -0.2405 -0.0164 -0.0564
47674ION     NA56474  17.056   3.240   3.801  0.2036  0.5245 -0.1686
47675ION     NA56475   0.754   1.554  32.546 -0.0303 -0.1393 -0.0946
47676ION     NA56476  26.151   4.405   1.463 -0.1167 -0.5028 -0.1343
47677ION     NA56477  14.615   6.127   6.857  0.4618  0.4624  0.6089
47678ION     NA56478   9.137   5.596  15.390 -0.1600  0.4507 -0.2736
47679ION     NA56479  18.693   0.379   5.362  0.4763 -0.0240  0.2003
47680ION     NA56480  11.447   3.684  13.952 -0.5205  0.3339 -0.0023
47681ION     NA56481  22.424   5.795  31.714  0.1359 -0.2899  0.3127
47682ION     NA56482  26.353   2.929   0.947  0.2231  0.3547 -0.1782
47683ION     NA56483  11.779   0.912   9.486 -0.4077  0.0018 -0.3495
47684ION     NA56484  10.261   4.141  24.761  0.0862 -0.4393 -0.0309
47685ION     NA56485  16.898   3.860  20.331 -0.6561  0.1015 -0.1278
47686ION     NA56486  12.486   0.757  27.180 -0.4102 -0.3901  0.2332
47687ION     NA56487  15.786   1.250   0.492 -0.2658 -0.1400 -0.1401
47688ION     NA56488   2.665   3.327  34.049 -0.5150  0.1922 -0.0710
47689ION     NA56489  20.817   5.109  28.367  0.1067 -0.1086 -0.1494
47690ION     NA56490  15.732   4.775  28.619 -0.1514  0.1373  0.4159
47691ION     NA56491  19.236   4.025  10.674  0.0230 -0.3904 -0.0106
47692ION     NA56492  11.477   1.355  10.064 -0.0431 -0.2163 -0.0943
47693ION     NA56493   3.490   0.229   6.335 -0.5673  0.1176 -0.1601
47694ION     NA56494   4.264   2.456   6.356 -0.2785 -0.1765 -0.2465
47695ION     NA56495  24.434   2.157   8.660 -0.1035  0.1493 -0.2563
47696ION     NA56496   4.358   0.500  11.263 -0.0456  0.2446 -0.2895
47697ION     NA56497  21.646   3.203   0.371  0.3707 -0.3528 -0.0636
47698ION     NA56498  20.148   0.362   1.704 -0.0621 -0.1856  0.2948
47699ION     NA56499  24.126   2.385  31.644 -0.2753  0.1194 -0.0767
47700ION     NA56500  16.839   4.706  10.429 -0.1460 -0.0738 -0.2952
47701ION     NA56501   8.851   3.025  30.469 -0.2293  0.1819  0.0562
47702ION     NA56502  13.089   6.398  15.945  0.0388  0.0755  0.0775
47703ION     NA56503  24.072   6.243  15.088  0.2054 -0.0207 -0.4062
47704ION     NA56504   6.181   4.167   1.963 -0.2881  0.1711  0.7581
47705ION     NA56505  26.194   0.589  30.997  0.0311 -0.1963  0.0033
47706ION     NA56506   1.643   1.885   9.102 -0.2278  0.2453 -0.0005
47707ION     NA56507  10.406   4.355  15.321  0.0953 -0.1287  0.4089
47708ION     NA56508   2.688   2.547   2.116 -0.0644 -0.1230 -0.2600
47709ION     NA56509  14.476   2.040   9.075  0.2412 -0.0666  0.3910
47710ION     NA56510  17.202   5.821   5.506 -0.0228 -0.3097 -0.0405
47711ION     NA56511  12.877   0.142  24.095  0.1101  0.1885  0.4614
47712ION     NA56512  16.097   2.334   3.551 -0.0511  0.0251 -0.1232
47713ION     NA56513   8.660   1.347  14.202 -0.2496 -0.4935 -0.0234
47714ION     NA56514   8.074   3.832   2.648 -0.1556 -0.1856  0.4423
47715ION     NA56515   1.192   6.529  22.013  0.2145  0.0862 -0.0263
47716ION     NA56516  11.602   3.598   3.869 -0.0037 -0.0789  0.0687
47717ION     NA56517   7.503   5.501  31.406 -0.0185  0.0734  0.2836
47718ION     NA56518   4.155   4.167   6.899 -0.2830  0.2875 -0.1731
47719ION     NA56519   2.098   5.745   3.578 -0.3855  0.2697  0.1046
47720ION     NA56520  25.217   4.282  32.718 -0.1879 -0.0384  0.0085
47721ION     NA56521   4.561   5.917  12.430 -0.1797 -0.2094  0.0587
47722ION     NA56522   6.069   2.833  26.125 -0.0690  0.1982  0.0279
47723ION     NA56523  26.184   0.991   1.648  0.3393  0.4561 -0.0086
47724ION     NA56524  17.316   0.031  30.476  0.2384 -0.2481  0.1980
47725ION     NA56525  22.973   5.924   8.946  0.0903  0.0370  0.1853
47726ION     NA56526  14.094   2.721  20.817  0.2675 -0.0518 -0.1101
47727ION     NA56527   4.463   2.663  22.150  0.1318  0.3260 -0.1077
47728ION     NA56528  13.092   5.226   6.725  0.1620  0.1301 -0.1321
47729ION     NA56529   2.603   5.708  27.720 -0.0248  0.0419  0.4056
47730ION     NA56530  18.326   3.136   5.875  0.2467 -0.3626 -0.1409
47731ION     NA56531   0.323   1.434  25.189 -0.0230 -0.0520 -0.1567
47732ION     NA56532  12.960   3.499   0.878 -0.2055 -0.1116  0.1507
47733ION     NA56533  16.571   0.902   3.129  0.1829  0.1783  0.1769
47734ION     NA56534  13.876   5.866   5.059  0.0559 -0.0229 -0.2675
47735ION     NA56535  25.024   0.634  12.035 -0.3271  0.2696  0.0118
47736ION     NA56536   5.028   6.087  25.284 -0.1279  0.0749  0.2037
47737ION     NA56537   9.854   4.665  21.070  0.1186 -0.2310  0.1844
47738ION     NA56538  10.054   5.147   2.652 -0.5036  0.2727 -0.2586
47739ION     NA56539  22.290   1.161  34.605  0.1821 -0.4713  0.6276
47740ION     NA56540  21.248   5.229  35.160  0.3468  0.0708 -0.5343
47741ION     NA56541   2.590   6.123  29.387  0.0145  0.1122  0.3706
47742ION     NA56542  22.571   1.528   5.315  0.1150  0.2431  0.2223
47743ION     NA56543   7.630   0.184  12.324 -0.0948  0.1247  0.2987
47744ION     NA56544  23.478   6.129  20.300 -0.7400 -0.1549  0.1238
47745ION     NA56545  20.696   4.495  34.048 -0.3512  0.0852  0.1408
47746ION     NA56546  16.151   0.935  28.849 -0.3831 -0.0180  0.3705
47747ION     NA56547  17.049   1.134  10.454  0.0879 -0.3811 -0.2942
47748ION     NA56548   0.763   2.181  21.385 -0.4985 -0.2078  0.2871
47749ION     NA56549  13.829   5.183  27.475 -0.4283  0.5644  0.2460
47750ION     NA56550   0.231   0.771  14.374 -0.0489  0.4205 -0.2330
47751ION     NA56551   6.683   4.401  10.842  0.2289 -0.0884  0.0572
47752ION     NA56552  12.537   4.561   6.065 -0.0900 -0.5210  0.0128
47753ION     NA56553   0.100   3.332   3.819 -0.0323 -0.0822 -0.2546
47754ION     NA56554  21.157   6.273  26.841 -0.1865 -0.2996 -0.0550
47755ION     NA56555  23.910   6.226  24.645 -0.1879  0.2450 -0.0468
47756ION     NA56556  24.878   4.084  33.571 -0.2305  0.2217 -0.1152
47757ION     NA56557  13.405   1.293  12.360  0.4150  0.5267  0.1373
47758ION     NA56558  17.159   1.490  23.616 -0.6279 -0.3134 -0.4880
47759ION     NA56559  11.298   6.043  11.452  0.2454 -0.2846 -0.3424
47760ION     NA56560  20.481   1.088  32.151  0.3075  0.0346 -0.0398
47761ION     NA56561  16.762   3.449  22.992  0.2254  0.0332 -0.1270
47762ION     NA56562  15.237   5.921   1.946 -0.1325  0.5123 -0.4844
47763ION     NA56563  11.257   5.196   3.171 -0.3045  0.4002 -0.8111
47764ION     NA56564  16.613   5.424  22.706 -0.0082  0.5068  0.1024
47765ION     NA56565   2.241   0.221  29.867  0.1825 -0.1649 -0.1195
47766ION     NA56566  24.378   1.898  11.078 -0.3276 -0.0268  0.1457
47767ION     NA56567   7.218   1.983   7.167  0.0242  0.0533  0.0825
47768ION     NA56568  20.746   6.365  32.915 -0.2167  0.3641 -0.4134
47769ION     NA56569  17.300   0.494  20.873  0.0424 -0.1370  0.3838
47770ION     NA56570   1.941   0.561   3.193 -0.1298  0.4064  0.0339
47771ION     NA56571  19.098   4.556  35.342 -0.0501 -0.1952  0.1468
47772ION     NA56572  24.349   0.910  27.430  0.1710  0.2205  0.0115
47773ION     NA56573  11.689   3.425  27.126 -0.4091 -0.1867  0.0087
47774ION     NA56574  22.807   0.466  23.461  0.0948  0.0539 -0.0603
47775ION     NA56575  16.711   4.868  25.073 -0.0200 -0.1884  0.0315
47776ION     NA56576  21.488   3.226  27.055 -0.1632  0.0289  0.1766
47777ION     NA56577   4.780   6.268   1.325  0.2491  0.1180 -0.1453
47778ION     NA56578  16.964   2.044  15.810  0.1937 -0.0149  0.0426
47779ION     NA56579  13.897   0.142   0.231 -0.0380 -0.1036 -0.1170
47780ION     NA56580  17.621   6.330  29.857  0.2261  0.2585  0.2052
47781ION     NA56581   9.505   4.558  29.468 -0.0991 -0.4863  0.0588
47782ION     NA56582  22.053   3.701  12.458  0.2523  0.4504 -0.1533
47783ION     NA56583  21.799   4.432  14.118 -0.0121 -0.1984  0.0422
47784ION     NA56584  22.783   3.843  29.895  0.3347  0.2215 -0.2937
47785ION     NA56585  23.451   5.848  23.881  0.1163 -0.3513  0.1683
47786ION     NA56586   0.008   1.581  36.054 -0.3262 -0.1872 -0.2098
47787ION     NA56587   4.516   6.293  30.524 -0.1141 -0.2737  0.3160
47788ION     NA56588  14.120   2.811   4.223  0.1964  0.2207 -0.0948
47789ION     NA56589  17.887   3.642  31.017 -0.0006  0.1220  0.2922
47790ION     NA56590   1.557   2.204   1.015  0.1823 -0.0697 -0.4121
47791ION     NA56591  22.120   6.522  13.898 -0.1084  0.4248 -0.0625
47792ION     NA56592  12.622   2.394  23.562  0.4059 -0.0540 -0.0926
47793ION     NA56593  24.274   2.034  12.783  0.2166 -0.0586 -0.1934
47794ION     NA56594   2.016   5.056  28.352 -0.1324  0.4217  0.3269
47795ION     NA56595  20.954   0.446  12.989 -0.3154  0.1659 -0.0956
47796ION     NA56596   1.544   3.274   3.705 -0.3125 -0.1892  0.1777
47797ION     NA56597  23.647   0.550  15.627  0.4841  0.1300  0.3014
47798ION     NA56598   9.503   0.962  27.088  0.1391 -0.0867  0.0366
47799ION     NA56599   3.906   4.863  27.838  0.1088 -0.0800  0.0748
47800ION     NA56600   5.161   6.287  32.124 -0.1357 -0.0620 -0.1820
47801ION     NA56601   0.701   5.144  12.599  0.2063 -0.0620  0.2329
47802ION     NA56602   3.651   0.079  21.051  0.1234 -0.1415 -0.2859
47803ION     NA56603   7.795   4.946  25.634  0.1646  0.2623  0.0257
47804ION     NA56604   6.201   0.041  24.955 -0.4482  0.2793  0.2593
47805ION     NA56605  18.959   4.551   5.565  0.0222 -0.3462  0.1114
47806ION     NA56606   9.579   0.712  25.870  0.1745 -0.4532 -0.2959
47807ION     NA56607   3.754   0.118  33.082 -0.3714  0.3171  0.0988
47808ION     NA56608   5.936   1.618  22.215  0.0352 -0.1164  0.1098
47809ION     NA56609  20.093   5.204  30.301  0.3256 -0.1232  0.0518
47810ION     NA56610  19.101   6.137  28.599 -0.3814 -0.8272 -0.1730
47811ION     NA56611  13.319   0.856   5.363  0.2452 -0.0478  0.2366
47812ION     NA56612  12.091   2.845  22.255 -0.2011  0.3661 -0.0516
47813ION     NA56613   2.407   5.002  20.373  0.4237 -0.2218  0.1340
47814ION     NA56614  18.589   0.202  33.076 -0.2074 -0.0602 -0.1927
47815ION     NA56615  19.328   0.569  10.476  0.1409  0.0219  0.0997
47816ION     NA56616   2.697   0.860  25.702 -0.2776  0.1702 -0.0360
47817ION     NA56617   6.831   0.647   9.070 -0.1276  0.2824 -0.2550
47818ION     NA56618  14.187   5.120   0.410  0.2981  0.1036  0.1107
47819ION     NA56619  24.871   5.534  11.133  0.0983  0.0089  0.1844
47820ION     NA56620  12.398   1.559  23.595 -0.0922 -0.1108  0.2988
47821ION     NA56621  20.026   4.202   9.866  0.1099 -0.0764 -0.1168
47822ION     NA56622   6.376   5.679   4.442 -0.0153  0.2917 -0.4679
47823ION     NA56623   1.781   6.510  28.117 -0.0780 -0.0270 -0.4788
47824ION     NA56624  23.505   1.065   6.692 -0.0591  0.1026  0.1370
47825ION     NA56625  21.750   5.956  32.047 -0.0781  0.4176 -0.0198
47826ION     NA56626  15.974   1.432   9.771 -0.0665  0.1360 -0.3553
47827ION     NA56627  20.290   3.560  24.362 -0.7620  0.3543  0.4036
47828ION     NA56628  25.984   0.940  15.240 -0.1788 -0.1351  0.0318
47829ION     NA56629  22.006   0.232   5.905 -0.3831 -0.0122 -0.1344
47830ION     NA56630  17.301   4.580  35.840  0.1317 -0.0781  0.0385
47831ION     NA56631  20.168   3.969  13.310 -0.2730  0.5404 -0.2268
47832ION     NA56632  10.626   0.173  21.212 -0.0045 -0.2660 -0.1318
47833ION     NA56633  24.092   2.985  23.910 -0.0389 -0.3565 -0.0929
47834ION     NA56634  13.376   1.773  21.569 -0.1465 -0.1710 -0.2795
47835ION     NA56635   2.107   0.043  21.552 -0.2721 -0.1531  0.0095
47836ION     NA56636   6.534   6.446  35.056 -0.0313 -0.2943 -0.4649
47837ION     NA56637  20.353   0.798  10.700 -0.5670  0.3811  0.2533
47838ION     NA56638  14.844   0.303   4.569  0.0849 -0.2676  0.3489
47839ION     NA56639  24.436   0.299  21.841 -0.0769  0.2171  0.3517
47840ION     NA56640   9.340   0.484  23.720 -0.0980  0.0097 -0.1163
47841ION     NA56641  15.978   1.594  11.806  0.2353  0.1551 -0.2931
47842ION     NA56642  11.302   6.502   4.194  0.0918  0.2241 -0.4854
47843ION     NA56643   8.106   4.775   4.145  0.4068 -0.2936 -0.3439
47844ION     NA56644   3.944   3.338  11.184 -0.1038  0.2856 -0.2898
47845ION     NA56645   4.202   3.745   8.216  0.0933  0.0046  0.2914
47846ION     NA56646  16.251   2.532  22.062  0.1315  0.1052 -0.3113
47847ION     NA56647   4.987   3.448   3.550  0.0935 -0.0038 -0.0786
47848ION     NA56648  23.832   1.342  21.466  0.0538 -0.2338  0.4056
47849ION     NA56649   7.213   6.419  27.259 -0.1963  0.3582 -0.2002
47850ION     NA56650  21.765   3.601  27.851  0.1755 -0.0247  0.0942
47851ION     NA56651  17.663   1.541   0.899  0.2132 -0.1874 -0.4073
47852ION     CL56652  17.044   4.247   5.786 -0.1483  0.3825  0.1478
47853ION     CL56653   5.640   4.511  25.577  0.6967  0.4777 -0.1748
47854ION     CL56654  15.017   1.792  12.851 -0.4475 -0.2093  0.3132
47855ION     CL56655  17.030   3.831   2.128 -0.1522  0.1413 -0.1138
47856ION     CL56656   8.549   1.773  30.748 -0.1807  0.0709  0.4034
47857ION     CL56657  12.359   0.470   3.885 -0.3677 -0.4617 -0.4388
47858ION     CL56658   4.754   0.686  34.206 -0.2962  0.0359  0.3699
47859ION     CL56659  15.585   1.866  23.087 -0.0623 -0.1908  0.0107
47860ION     CL56660  20.618   0.532   9.105 -0.0415  0.1876 -0.3849
47861ION     CL56661  22.437   2.217   6.651  0.0994  0.2672 -0.1694
47862ION     CL56662  24.296   0.868   8.646  0.1729 -0.1815 -0.5920
47863ION     CL56663  12.093   1.449  29.909 -0.0663  0.2675 -0.4875
47864ION     CL56664   9.124   5.904  30.555 -0.1217 -0.2717  0.1184
47865ION     CL56665   7.073   0.017  11.922 -0.0103 -0.4241 -0.3222
47866ION     CL56666  19.764   4.730  21.835  0.0465 -0.2847  0.4601
47867ION     CL56667  16.003   4.543  10.651 -0.5812 -0.1589  0.0687
47868ION     CL56668  25.126   0.290  24.752  0.3757  0.6118 -0.1160
47869ION     CL56669  25.313   1.391  21.136 -0.0286 -0.0926 -0.1691
47870ION     CL56670  22.888   1.542   3.712  0.1127  0.2930  0.3343
47871ION     CL56671   9.967   5.523  36.060  0.2843 -0.4047 -0.0702
47872ION     CL56672  10.144   3.829  31.226 -0.2436 -0.1472 -0.1587
47873ION     CL56673  12.916   2.569   4.186 -0.0433  0.2931 -0.0359
47874ION     CL56674  16.648   6.058   0.383 -0.6092  0.2770 -0.3089
47875ION     CL56675   6.664   4.778  10.887 -0.1591  0.4131 -0.0053
47876ION     CL56676  15.436   4.963  21.750 -0.3838 -0.1817  0.0167
47877ION     CL56677  22.363   2.697  25.458 -0.2921  0.1352 -0.3312
47878ION     CL56678   8.276   5.546   1.192  0.1395  0.1903 -0.5851
47879ION     CL56679   8.366   5.332  12.847  0.1268  0.3830  0.4176
47880ION     CL56680  18.190   3.236   5.237 -0.2631 -0.2579  0.0631
47881ION     CL56681  15.630   5.313   1.917 -0.1704 -0.3910  0.1061
47882ION     CL56682  16.941   5.624  22.769 -0.1117 -0.1277 -0.1188
47883ION     CL56683   7.146   2.462  21.729  0.1401 -0.1372 -0.2513
47884ION     CL56684   5.515   6.362  21.765 -0.2807 -0.0633  0.1793
47885ION     CL56685   5.377   1.414   9.145 -0.3191  0.4019  0.3638
47886ION     CL56686  18.063   4.095  21.446  0.8320  0.3407 -0.1344
47887ION     CL56687   8.227   4.186  15.137  0.0326  0.4717  0.3335
47888ION     CL56688  16.007   4.442  14.786  0.0010  0.3502 -0.1083
47889ION     CL56689   7.459   1.214  36.044 -0.1395 -0.7440 -0.2096
47890ION     CL56690   7.198   3.360   9.043  0.4984  0.0236 -0.1299
47891ION     CL56691  16.546   6.543   4.253 -0.2131  0.2590  0.0558
47892ION     CL56692  15.173   6.048   6.956  0.1555 -0.1298  0.0796
47893ION     CL56693   3.981   0.420  15.216  0.2478 -0.1694  0.3758
47894ION     CL56694  11.779   2.908   4.229  0.2269 -0.0736 -0.0015
47895ION     CL56695  13.895   2.824  25.488 -0.2214 -0.0252 -0.2324
47896ION     CL56696  21.009   0.162  13.266  0.3856  0.2906 -0.0818
47897ION     CL56697  14.721   5.726   9.851 -0.0491  0.3673  0.3044
47898ION     CL56698   3.130   5.927   7.359 -0.1885 -0.0504 -0.3702
47899ION     CL56699  17.805   6.005   1.484  0.0692 -0.1705 -0.4844
47900ION     CL56700   0.450   5.146  27.622 -0.1915  0.2833  0.4166
47901ION     CL56701  23.199   5.865  13.886  0.1911  0.1034 -0.1107
47902ION     CL56702   0.905   2.192  13.814 -0.1345  0.0342 -0.2042
47903ION     CL56703   6.017   6.572   9.174  0.0231 -0.0437 -0.4833
47904ION     CL56704   4.208   1.049  14.855  0.0292  0.1084 -0.2325
47905ION     CL56705  20.635   2.026   7.615 -0.1930  0.0415  0.1155
47906ION     CL56706  26.127   1.200  21.020  0.0044  0.1297  0.2686
47907ION     CL56707   5.437   1.301  35.063 -0.0098  0.2181  0.2656
47908ION     CL56708  17.650   1.918   6.720  0.1880 -0.2740 -0.2632
47909ION     CL56709  24.256   2.521  33.612 -0.0671 -0.2148 -0.2297
47910ION     CL56710  22.982   0.976  11.516 -0.0696 -0.1073  0.3379
47911ION     CL56711  22.323   2.103   9.602 -0.2762  0.2237 -0.4186
47912ION     CL56712  21.058   4.042  21.476 -0.3024  0.2382 -0.2057
47913ION     CL56713   3.261   6.293  21.645  0.1705  0.3230  0.0673
47914ION     CL56714   3.025   2.163  31.240  0.3244  0.4410  0.0142
47915ION     CL56715  26.269   4.565  12.088 -0.2140  0.2207 -0.3377
47916ION     CL56716   7.683   5.849  30.539 -0.0850 -0.0336 -0.2728
47917ION     CL56717  19.465   0.431  21.900  0.5556  0.0376 -0.0856
47918ION     CL56718   8.335   4.960  35.943  0.2667  0.0710  0.3390
47919ION     CL56719  21.510   1.558   0.076 -0.1977  0.4431  0.1674
47920ION     CL56720  26.333   0.923  10.744 -0.1850  0.4245  0.4936
47921ION     CL56721  21.508   5.128  12.600  0.1839  0.1696  0.0664
47922ION     CL56722   4.449   3.934   7.696 -0.0220 -0.2110  0.1435
47923ION     CL56723   2.158   0.399   9.567 -0.2094  0.1241 -0.1090
47924ION     CL56724  13.947   5.481   4.551 -0.0558  0.4302 -0.1294
47925ION     CL56725   4.626   5.578  12.241  0.2395  0.4273  0.0571
47926ION     CL56726   0.091   2.555   9.684 -0.1149  0.0172 -0.0441
47927ION     CL56727  11.232   3.972  30.754 -0.2143  0.0106 -0.0994
47928ION     CL56728   3.146   4.643  34.932  0.3246  0.1565 -0.0959
47929ION     CL56729  13.787   4.863  27.333  0.1831 -0.2231  0.3659
47930ION     CL56730  16.051   1.139   4.358  0.2115 -0.4836  0.2395
47931ION     CL56731  24.766   5.261  11.658 -0.0256  0.2073 -0.4336
47932ION     CL56732  21.576   3.738   6.191  0.3474  0.0663  0.0895
47933ION     CL56733  19.953   3.878  24.044  0.0221  0.0913 -0.1280
47934ION     CL56734  19.025   0.072   8.766 -0.2891 -0.0808 -0.3468
47935ION     CL56735  19.269   5.700  28.384 -0.3609 -0.2587 -0.0439
47936ION     CL56736   8.003   1.414  10.681  0.1817 -0.1721  0.3084
47937ION     CL56737   6.060   5.670  26.484 -0.2707  0.4504 -0.2897
47938ION     CL56738  24.358   0.578  31.134 -0.0264  0.0353  0.2631
47939ION     CL56739  21.667   5.153  33.945 -0.1795 -0.2303 -0.0202
47940ION     CL56740   2.701   5.502  32.591  0.2254 -0.3018 -0.3750
47941ION     CL56741   8.040   1.175  14.422  0.3402 -0.2304  0.2942
47942ION     CL56742   5.360   6.597  11.630  0.0991 -0.1381 -0.4414
47943ION     CL56743  22.014   0.680  27.529  0.1716 -0.0171  0.0206
47944ION     CL56744   0.971   0.047  28.664  0.2499 -0.2129 -0.0813
47945ION     CL56745   1.383   2.708   1.443  0.0543  0.3560  0.4527
47946ION     CL56746  18.861   0.698  12.469  0.3187  0.1937 -0.5140
47947ION     CL56747   1.444   1.563  21.560  0.4554 -0.3550 -0.1286
47948ION     CL56748  19.472   1.200  28.527 -0.2842 -0.0716 -0.0599
47949ION     CL56749  25.666   0.940  22.167 -0.6653  0.2118  0.4941
47950ION     CL56750  16.877   5.624  28.509 -0.0567  0.0692  0.0483
47951ION     CL56751  20.540   0.963  26.604 -0.2882  0.0737  0.0795
47952ION     CL56752  19.051   4.604   5.252 -0.0485  0.0254  0.3405
47953ION     CL56753   1.388   3.230  15.185  0.1636  0.1278 -0.0436
47954ION     CL56754   5.169   0.293  33.492 -0.0506 -0.2852  0.0423
47955ION     CL56755  18.048   5.759  10.642  0.0727  0.5421 -0.1194
47956ION     CL56756   1.766   2.372  14.637  0.0853 -0.5823  0.2255
47957ION     CL56757   4.648   5.632  27.703 -0.4416  0.2694  0.3845
47958ION     CL56758  15.073   5.502  31.474 -0.0335 -0.0296  0.2447
47959ION     CL56759  24.266   1.677  14.209  0.2283 -0.1007  0.0040
47960ION     CL56760   5.086   0.847   3.085  0.2654  0.0155  0.1917
47961ION     CL56761   7.884   1.527   9.939  0.1089  0.1544  0.0562
47962ION     CL56762  20.626   5.042  31.961 -0.3168  0.2426 -0.0513
47963ION     CL56763  23.855   0.760   6.595 -0.3612 -0.0502 -0.6887
47964ION     CL56764  11.038   0.480  35.276 -0.3308 -0.0004 -0.3632
47965ION     CL56765  16.164   0.531  29.013  0.0354 -0.4340  0.0270
47966ION     CL56766   7.443   6.371   5.044  0.2243 -0.2474 -0.3286
47967ION     CL56767  11.750   4.113   9.215 -0.0800  0.0937 -0.0114
47968ION     CL56768   6.314   6.144  25.881  0.0267 -0.0859  0.1243
47969ION     CL56769   2.772   4.508  21.810  0.2338 -0.1952  0.1857
47970ION     CL56770  24.619   0.750  28.048 -0.0738  0.1562 -0.3191
47971ION     CL56771  12.634   4.748  22.374 -0.6227  0.4781 -0.3823
47972ION     CL56772   1.086   5.097   7.613  0.1832  0.0170 -0.2527
47973ION     CL56773  18.434   3.345  12.361  0.2162 -0.1239 -0.0605
47974ION     CL56774  12.731   3.090  29.603  0.2754  0.2716  0.0757
47975ION     CL56775   2.844   3.314   1.783 -0.1738 -0.1744 -0.0557
47976ION     CL56776   4.748   6.188  14.693 -0.1977  0.5617  0.1989
47977ION     CL56777  21.247   3.537   5.543 -0.5073  0.3024 -0.1159
47978ION     CL56778  21.306   6.089  10.607 -0.1277  0.2384  0.2411
47979ION     CL56779   0.913   3.761   7.786  0.2827 -0.2019  0.2983
47980ION     CL56780  13.272   3.235   6.075 -0.6411 -0.2933 -0.2042
47981ION     CL56781   3.831   3.301  28.547 -0.1251 -0.1021 -0.1893
47982ION     CL56782  23.190   3.431  23.540 -0.2833 -0.0455  0.1202
47983ION     CL56783  16.997   6.322  15.103  0.3645 -0.2701  0.2318
47984ION     CL56784  11.836   3.406  26.758  0.2876 -0.0976 -0.3686
47985ION     CL56785   4.112   2.493  21.502 -0.1203 -0.2301 -0.3323
47986ION     CL56786  17.786   5.930  33.514  0.5233  0.0978 -0.1044
47987ION     CL56787   0.947   0.912  13.375  0.5110  0.0299 -0.2174
47988ION     CL56788  12.705   6.522   9.077  0.0426 -0.0267  0.1768
47989ION     CL56789  24.443   3.213  30.240  0.0677 -0.3863 -0.2111
47990ION     CL56790  14.015   5.194   1.520  0.1962  0.3895  0.0733
47991ION     CL56791  14.850   1.495   9.270  0.0194  0.0492  0.2434
47992ION     CL56792  17.555   4.332  31.967  0.1042 -0.2595  0.1546
47993ION     CL56793   4.064   3.899   4.844 -0.2720 -0.2431  0.0828
47994ION     CL56794  16.144   3.046   7.128 -0.2640 -0.0916  0.0423
47995ION     CL56795   7.211   1.850  13.100  0.3106  0.1122  0.1683
47996ION     CL56796   0.859   4.334  30.442  0.1296  0.2937  0.3245
  26.40746   6.60186  36.07367
