Written by MDAnalysis
 9600
    1DOPC   NC3    1  24.000   0.314   7.923
    1DOPC   PO4    2  24.400   0.334   7.853
    1DOPC   GL1    3  24.440   0.374   7.393
    1DOPC   GL2    4  24.560   0.097   7.463
    1DOPC   C1A    5  24.660   0.364   6.983
    1DOPC   D2A    6  24.630   0.264   6.523
    1DOPC   C3A    7  24.860   7.744   6.243
    1DOPC   C4A    8   0.144   7.354   6.093
    1DOPC   C1B    9  24.990   0.234   7.313
    1DOPC   D2B   10   0.384   0.374   7.233
    1DOPC   C3B   11   0.744   0.664   7.173
    1DOPC   C4B   12   1.054   0.864   7.543
    2DOPC   NC3   13  12.234   0.944  16.093
    2DOPC   PO4   14  11.874   1.094  16.013
    2DOPC   GL1   15  11.604   1.244  15.753
    2DOPC   GL2   16  11.724   1.014  15.573
    2DOPC   C1A   17  11.354   1.534  15.503
    2DOPC   D2A   18  11.364   1.914  15.143
    2DOPC   C3A   19  11.564   2.034  14.803
    2DOPC   C4A   20  11.834   2.064  14.393
    2DOPC   C1B   21  11.504   1.094  15.203
    2DOPC   D2B   22  11.124   1.434  15.093
    2DOPC   C3B   23  11.014   1.724  14.773
    2DOPC   C4B   24  10.814   1.824  14.313
    3DOPC   NC3   25   3.504   0.284  11.963
    3DOPC   PO4   26   3.784   0.117  12.223
    3DOPC   GL1   27   4.094   7.644  11.963
    3DOPC   GL2   28   3.934   7.734  11.713
    3DOPC   C1A   29   4.464   0.027  11.863
    3DOPC   D2A   30   4.614   0.254  11.413
    3DOPC   C3A   31   4.764   0.177  10.963
    3DOPC   C4A   32   5.104   7.804  10.693
    3DOPC   C1B   33   4.084   0.077  11.303
    3DOPC   D2B   34   4.264   0.117  10.823
    3DOPC   C3B   35   4.104   7.754  10.413
    3DOPC   C4B   36   4.154   7.584   9.883
    4DOPC   NC3   37  10.784   2.554  16.243
    4DOPC   PO4   38  10.644   2.904  16.103
    4DOPC   GL1   39  10.374   3.034  15.813
    4DOPC   GL2   40  10.694   3.014  15.633
    4DOPC   C1A   41  10.164   2.734  15.583
    4DOPC   D2A   42  10.114   2.544  15.143
    4DOPC   C3A   43  10.134   2.144  14.923
    4DOPC   C4A   44   9.964   2.134  14.483
    4DOPC   C1B   45  10.634   2.754  15.273
    4DOPC   D2B   46  10.474   2.944  14.853
    4DOPC   C3B   47  10.624   3.054  14.423
    4DOPC   C4B   48  10.484   3.494  14.243
    5DOPC   NC3   49  10.014   5.534  16.543
    5DOPC   PO4   50   9.874   5.524  16.133
    5DOPC   GL1   51  10.014   5.674  15.863
    5DOPC   GL2   52   9.904   5.934  15.833
    5DOPC   C1A   53  10.204   5.514  15.403
    5DOPC   D2A   54  10.404   5.314  14.993
    5DOPC   C3A   55  10.264   5.284  14.563
    5DOPC   C4A   56  10.124   5.244  14.113
    5DOPC   C1B   57   9.694   5.964  15.483
    5DOPC   D2B   58   9.474   6.074  15.073
    5DOPC   C3B   59   9.654   5.944  14.663
    5DOPC   C4B   60   9.784   5.564  14.333
    6DOPC   NC3   61  16.894   1.854  14.183
    6DOPC   PO4   62  16.584   1.724  14.423
    6DOPC   GL1   63  16.334   1.564  14.253
    6DOPC   GL2   64  16.474   1.394  14.083
    6DOPC   C1A   65  15.884   1.684  14.033
    6DOPC   D2A   66  15.474   1.754  13.823
    6DOPC   C3A   67  15.104   1.464  13.593
    6DOPC   C4A   68  14.874   1.134  13.263
    6DOPC   C1B   69  16.074   1.254  13.923
    6DOPC   D2B   70  15.594   1.214  13.663
    6DOPC   C3B   71  15.354   1.204  13.243
    6DOPC   C4B   72  15.144   1.094  12.803
    7DOPC   NC3   73  23.580   4.624   7.873
    7DOPC   PO4   74  23.524   4.914   7.573
    7DOPC   GL1   75  23.770   4.884   7.233
    7DOPC   GL2   76  23.870   4.684   7.273
    7DOPC   C1A   77  23.960   5.034   6.813
    7DOPC   D2A   78  24.130   5.224   6.383
    7DOPC   C3A   79  24.510   5.364   6.313
    7DOPC   C4A   80  24.860   5.664   6.393
    7DOPC   C1B   81  24.220   4.674   7.083
    7DOPC   D2B   82  24.550   4.664   6.673
    7DOPC   C3B   83  24.480   4.844   6.273
    7DOPC   C4B   84  24.270   5.174   5.913
    8DOPC   NC3   85  20.764   4.454   8.913
    8DOPC   PO4   86  21.114   4.474   8.823
    8DOPC   GL1   87  21.034   4.154   8.513
    8DOPC   GL2   88  20.814   4.424   8.473
    8DOPC   C1A   89  21.054   4.234   8.003
    8DOPC   D2A   90  21.164   4.334   7.483
    8DOPC   C3A   91  21.034   4.244   7.023
    8DOPC   C4A   92  20.934   4.094   6.553
    8DOPC   C1B   93  20.534   4.114   8.643
    8DOPC   D2B   94  20.194   3.844   8.833
    8DOPC   C3B   95  19.744   3.974   8.673
    8DOPC   C4B   96  19.434   3.894   8.253
    9DOPC   NC3   97   2.394   4.794  10.953
    9DOPC   PO4   98   2.384   5.174  10.963
    9DOPC   GL1   99   2.644   5.254  10.833
    9DOPC   GL2  100   2.474   5.304  10.543
    9DOPC   C1A  101   2.894   4.894  10.643
    9DOPC   D2A  102   3.264   4.544  10.443
    9DOPC   C3A  103   3.694   4.484  10.243
    9DOPC   C4A  104   4.134   4.554  10.063
    9DOPC   C1B  105   2.774   5.354  10.303
    9DOPC   D2B  106   3.164   5.554  10.013
    9DOPC   C3B  107   3.554   5.554   9.723
    9DOPC   C4B  108   3.784   5.564   9.283
   10DOPC   NC3  109  24.740   4.764   8.223
   10DOPC   PO4  110  24.420   4.564   8.373
   10DOPC   GL1  111  24.460   4.504   7.933
   10DOPC   GL2  112  24.420   4.784   7.873
   10DOPC   C1A  113  24.560   4.424   7.483
   10DOPC   D2A  114  24.760   4.274   7.033
   10DOPC   C3A  115  24.850   4.164   6.583
   10DOPC   C4A  116  24.640   3.864   6.263
   10DOPC   C1B  117  24.770   4.944   7.643
   10DOPC   D2B  118   0.124   5.104   7.393
   10DOPC   C3B  119   0.224   4.984   6.983
   10DOPC   C4B  120   0.234   5.194   6.463
   11DOPC   NC3  121   2.514   6.264  10.953
   11DOPC   PO4  122   2.574   6.694  11.003
   11DOPC   GL1  123   2.704   6.954  10.763
   11DOPC   GL2  124   2.974   6.924  10.813
   11DOPC   C1A  125   2.594   6.914  10.273
   11DOPC   D2A  126   2.664   6.774   9.723
   11DOPC   C3A  127   3.014   6.924   9.483
   11DOPC   C4A  128   3.304   7.184   9.193
   11DOPC   C1B  129   3.144   7.124  10.483
   11DOPC   D2B  130   3.154   7.034   9.983
   11DOPC   C3B  131   3.504   7.184   9.673
   11DOPC   C4B  132   3.924   7.354   9.403
   12DOPC   NC3  133   3.134   5.554  12.143
   12DOPC   PO4  134   2.954   5.574  11.763
   12DOPC   GL1  135   3.114   5.614  11.353
   12DOPC   GL2  136   3.074   5.354  11.313
   12DOPC   C1A  137   3.484   5.774  11.333
   12DOPC   D2A  138   3.944   5.914  11.213
   12DOPC   C3A  139   4.294   5.944  10.923
   12DOPC   C4A  140   4.604   6.064  10.473
   12DOPC   C1B  141   3.294   5.174  10.933
   12DOPC   D2B  142   3.514   4.994  10.543
   12DOPC   C3B  143   3.204   5.104  10.213
   12DOPC   C4B  144   2.904   5.144   9.873
   13DOPC   NC3  145  18.064   0.794  12.593
   13DOPC   PO4  146  18.394   0.604  12.623
   13DOPC   GL1  147  18.404   0.374  12.213
   13DOPC   GL2  148  18.114   0.314  12.343
   13DOPC   C1A  149  18.214   0.204  11.843
   13DOPC   D2A  150  17.924   0.127  11.523
   13DOPC   C3A  151  17.514   7.694  11.413
   13DOPC   C4A  152  17.204   7.604  11.063
   13DOPC   C1B  153  17.864   0.564  12.093
   13DOPC   D2B  154  17.634   0.654  11.723
   13DOPC   C3B  155  17.374   0.454  11.383
   13DOPC   C4B  156  17.274   0.214  10.953
   14DOPC   NC3  157  19.524   7.244  11.903
   14DOPC   PO4  158  19.164   6.964  11.863
   14DOPC   GL1  159  18.784   7.054  11.783
   14DOPC   GL2  160  18.854   7.264  11.593
   14DOPC   C1A  161  18.414   7.034  11.563
   14DOPC   D2A  162  17.984   6.914  11.313
   14DOPC   C3A  163  17.914   6.724  10.943
   14DOPC   C4A  164  17.674   6.754  10.543
   14DOPC   C1B  165  18.724   7.434  11.213
   14DOPC   D2B  166  18.354   7.474  10.813
   14DOPC   C3B  167  18.014   7.684  10.523
   14DOPC   C4B  168  17.694   0.037  10.133
   15DOPC   NC3  169   2.014   5.114  10.613
   15DOPC   PO4  170   2.074   5.524  10.613
   15DOPC   GL1  171   2.314   5.674  10.233
   15DOPC   GL2  172   2.224   5.384  10.193
   15DOPC   C1A  173   2.694   5.814  10.093
   15DOPC   D2A  174   3.164   6.024   9.943
   15DOPC   C3A  175   3.534   6.134   9.743
   15DOPC   C4A  176   3.964   6.424   9.743
   15DOPC   C1B  177   2.294   5.064   9.913
   15DOPC   D2B  178   2.614   4.754   9.663
   15DOPC   C3B  179   2.644   4.874   9.223
   15DOPC   C4B  180   2.524   5.254   8.873
   16DOPC   NC3  181  24.150   5.784   7.953
   16DOPC   PO4  182  24.340   5.594   8.223
   16DOPC   GL1  183  24.620   5.444   8.033
   16DOPC   GL2  184  24.730   5.164   8.053
   16DOPC   C1A  185  24.920   5.644   7.753
   16DOPC   D2A  186   0.144   5.794   7.313
   16DOPC   C3A  187   0.534   5.684   7.223
   16DOPC   C4A  188   0.964   5.564   6.953
   16DOPC   C1B  189   0.104   5.084   7.913
   16DOPC   D2B  190   0.644   5.054   7.853
   16DOPC   C3B  191   0.794   4.694   8.063
   16DOPC   C4B  192   0.974   4.244   8.263
   17DOPC   NC3  193   5.214   3.354  13.273
   17DOPC   PO4  194   4.884   3.114  13.213
   17DOPC   GL1  195   4.834   3.254  12.873
   17DOPC   GL2  196   5.184   3.214  12.823
   17DOPC   C1A  197   4.744   3.154  12.463
   17DOPC   D2A  198   4.574   2.984  12.013
   17DOPC   C3A  199   4.754   2.724  11.613
   17DOPC   C4A  200   4.774   2.544  11.193
   17DOPC   C1B  201   5.264   3.044  12.423
   17DOPC   D2B  202   5.204   2.914  11.933
   17DOPC   C3B  203   5.554   2.774  11.643
   17DOPC   C4B  204   5.954   2.664  11.383
   18DOPC   NC3  205  10.134   7.034  16.173
   18DOPC   PO4  206  10.454   7.264  16.243
   18DOPC   GL1  207  10.694   7.344  15.933
   18DOPC   GL2  208  10.624   7.564  15.843
   18DOPC   C1A  209  11.084   7.514  15.853
   18DOPC   D2A  210  11.364   0.127  15.783
   18DOPC   C3A  211  11.474   0.224  15.333
   18DOPC   C4A  212  11.684   0.234  14.933
   18DOPC   C1B  213  10.554   7.514  15.423
   18DOPC   D2B  214  10.404   7.774  15.083
   18DOPC   C3B  215  10.744   7.644  14.753
   18DOPC   C4B  216  10.944   7.614  14.313
   19DOPC   NC3  217  18.154   5.814  12.183
   19DOPC   PO4  218  18.544   5.904  12.123
   19DOPC   GL1  219  18.434   6.054  11.753
   19DOPC   GL2  220  18.594   6.284  11.623
   19DOPC   C1A  221  18.034   6.094  11.703
   19DOPC   D2A  222  17.534   6.124  11.723
   19DOPC   C3A  223  17.354   6.384  11.403
   19DOPC   C4A  224  17.434   6.664  11.053
   19DOPC   C1B  225  18.254   6.544  11.593
   19DOPC   D2B  226  17.734   6.564  11.613
   19DOPC   C3B  227  17.434   6.904  11.493
   19DOPC   C4B  228  17.144   7.324  11.463
   20DOPC   NC3  229  17.414   5.484  13.743
   20DOPC   PO4  230  17.724   5.514  13.483
   20DOPC   GL1  231  17.454   5.444  13.113
   20DOPC   GL2  232  17.484   5.704  13.033
   20DOPC   C1A  233  17.024   5.304  12.833
   20DOPC   D2A  234  16.594   5.234  12.543
   20DOPC   C3A  235  16.274   5.274  12.153
   20DOPC   C4A  236  15.784   5.184  12.003
   20DOPC   C1B  237  17.214   5.814  12.723
   20DOPC   D2B  238  16.964   5.614  12.383
   20DOPC   C3B  239  16.534   5.744  12.203
   20DOPC   C4B  240  16.184   6.074  12.303
   21DOPC   NC3  241  17.824   5.154  13.053
   21DOPC   PO4  242  17.604   4.824  13.043
   21DOPC   GL1  243  17.274   4.944  12.893
   21DOPC   GL2  244  17.454   4.754  12.623
   21DOPC   C1A  245  16.924   4.794  12.703
   21DOPC   D2A  246  16.434   4.724  12.763
   21DOPC   C3A  247  16.084   4.444  12.733
   21DOPC   C4A  248  15.754   4.244  12.513
   21DOPC   C1B  249  17.244   4.574  12.273
   21DOPC   D2B  250  16.944   4.624  11.933
   21DOPC   C3B  251  16.534   4.394  11.843
   21DOPC   C4B  252  16.304   4.054  11.603
   22DOPC   NC3  253  12.054   1.424  16.333
   22DOPC   PO4  254  12.284   1.474  16.043
   22DOPC   GL1  255  12.054   1.374  15.723
   22DOPC   GL2  256  12.244   1.184  15.663
   22DOPC   C1A  257  11.864   1.434  15.323
   22DOPC   D2A  258  11.624   1.454  14.893
   22DOPC   C3A  259  11.714   1.594  14.523
   22DOPC   C4A  260  11.774   1.734  14.003
   22DOPC   C1B  261  12.354   1.254  15.243
   22DOPC   D2B  262  12.604   1.304  14.813
   22DOPC   C3B  263  12.524   0.904  14.553
   22DOPC   C4B  264  12.904   0.764  14.233
   23DOPC   NC3  265   5.274   1.834  13.913
   23DOPC   PO4  266   5.604   2.014  13.833
   23DOPC   GL1  267   5.834   2.144  13.443
   23DOPC   GL2  268   5.984   2.064  13.593
   23DOPC   C1A  269   6.104   2.014  13.143
   23DOPC   D2A  270   6.314   1.904  12.703
   23DOPC   C3A  271   6.444   1.694  12.213
   23DOPC   C4A  272   6.794   1.464  11.913
   23DOPC   C1B  273   6.264   1.754  13.493
   23DOPC   D2B  274   6.474   1.344  13.453
   23DOPC   C3B  275   6.754   1.224  13.083
   23DOPC   C4B  276   7.104   1.104  12.773
   24DOPC   NC3  277  24.120   7.314   8.373
   24DOPC   PO4  278  24.410   7.184   8.163
   24DOPC   GL1  279  24.500   7.134   7.773
   24DOPC   GL2  280  24.380   7.394   7.763
   24DOPC   C1A  281  24.790   7.084   7.393
   24DOPC   D2A  282  24.720   7.214   6.883
   24DOPC   C3A  283  24.850   7.154   6.433
   24DOPC   C4A  284  24.730   6.964   5.973
   24DOPC   C1B  285  24.400   7.464   7.363
   24DOPC   D2B  286  24.450   7.684   6.913
   24DOPC   C3B  287  24.380   7.504   6.533
   24DOPC   C4B  288  24.310   7.434   6.013
   25DOPC   NC3  289   6.514   4.484  14.903
   25DOPC   PO4  290   6.494   4.724  14.583
   25DOPC   GL1  291   6.684   4.504  14.303
   25DOPC   GL2  292   6.684   4.774  14.173
   25DOPC   C1A  293   6.644   4.264  13.983
   25DOPC   D2A  294   6.484   3.924  13.653
   25DOPC   C3A  295   6.544   4.064  13.193
   25DOPC   C4A  296   6.574   4.434  12.853
   25DOPC   C1B  297   6.824   4.794  13.803
   25DOPC   D2B  298   7.144   4.794  13.463
   25DOPC   C3B  299   7.244   4.874  13.033
   25DOPC   C4B  300   7.014   4.634  12.713
   26DOPC   NC3  301   3.234   2.494  11.803
   26DOPC   PO4  302   3.434   2.814  11.733
   26DOPC   GL1  303   3.704   2.784  11.353
   26DOPC   GL2  304   3.464   2.984  11.203
   26DOPC   C1A  305   3.824   2.554  11.033
   26DOPC   D2A  306   3.854   2.624  10.493
   26DOPC   C3A  307   3.714   2.574  10.083
   26DOPC   C4A  308   3.494   2.614   9.633
   26DOPC   C1B  309   3.744   3.074  10.843
   26DOPC   D2B  310   4.214   3.064  10.623
   26DOPC   C3B  311   4.554   3.254  10.373
   26DOPC   C4B  312   4.934   3.444  10.173
   27DOPC   NC3  313  24.100   3.764   8.293
   27DOPC   PO4  314  24.300   4.094   8.103
   27DOPC   GL1  315  24.440   3.874   7.813
   27DOPC   GL2  316  24.310   4.084   7.593
   27DOPC   C1A  317  24.830   3.964   7.593
   27DOPC   D2A  318   0.144   4.164   7.353
   27DOPC   C3A  319   0.184   4.464   6.953
   27DOPC   C4A  320   0.014   4.674   6.553
   27DOPC   C1B  321  24.290   4.134   7.113
   27DOPC   D2B  322  24.350   4.114   6.653
   27DOPC   C3B  323  24.360   4.314   6.223
   27DOPC   C4B  324  24.360   4.574   5.853
   28DOPC   NC3  325  21.534   0.127   8.453
   28DOPC   PO4  326  21.494   7.564   8.373
   28DOPC   GL1  327  21.384   7.574   8.013
   28DOPC   GL2  328  21.104   7.644   8.243
   28DOPC   C1A  329  21.474   7.334   7.663
   28DOPC   D2A  330  21.204   7.134   7.383
   28DOPC   C3A  331  20.834   7.114   7.053
   28DOPC   C4A  332  20.514   7.174   6.723
   28DOPC   C1B  333  20.724   7.544   8.223
   28DOPC   D2B  334  20.294   7.564   8.073
   28DOPC   C3B  335  20.104   7.794   7.663
   28DOPC   C4B  336  19.914   7.824   7.223
   29DOPC   NC3  337   5.754   7.574  14.683
   29DOPC   PO4  338   5.964   7.724  14.363
   29DOPC   GL1  339   6.314   7.604  14.283
   29DOPC   GL2  340   6.424   7.794  14.133
   29DOPC   C1A  341   6.464   7.224  14.063
   29DOPC   D2A  342   6.704   7.154  13.673
   29DOPC   C3A  343   7.004   7.124  13.333
   29DOPC   C4A  344   7.254   7.214  12.883
   29DOPC   C1B  345   6.544   7.674  13.753
   29DOPC   D2B  346   6.694   7.534  13.303
   29DOPC   C3B  347   6.524   7.364  12.883
   29DOPC   C4B  348   6.304   7.134  12.533
   30DOPC   NC3  349  22.324   0.504   8.083
   30DOPC   PO4  350  22.464   0.334   7.713
   30DOPC   GL1  351  22.654   0.514   7.353
   30DOPC   GL2  352  22.774   0.254   7.243
   30DOPC   C1A  353  22.604   0.734   6.983
   30DOPC   D2A  354  22.384   0.814   6.563
   30DOPC   C3A  355  22.274   0.804   6.093
   30DOPC   C4A  356  22.424   1.224   5.913
   30DOPC   C1B  357  22.564   7.714   7.163
   30DOPC   D2B  358  22.334   7.594   6.753
   30DOPC   C3B  359  22.054   7.224   6.713
   30DOPC   C4B  360  21.734   6.904   6.683
   31DOPC   NC3  361   6.584   2.814  14.263
   31DOPC   PO4  362   6.574   2.394  14.183
   31DOPC   GL1  363   6.684   2.114  13.933
   31DOPC   GL2  364   6.524   2.054  13.703
   31DOPC   C1A  365   7.014   1.864  13.813
   31DOPC   D2A  366   7.444   1.724  13.603
   31DOPC   C3A  367   7.674   1.694  13.233
   31DOPC   C4A  368   7.854   1.764  12.823
   31DOPC   C1B  369   6.544   2.254  13.313
   31DOPC   D2B  370   6.394   2.454  12.923
   31DOPC   C3B  371   6.404   2.444  12.463
   31DOPC   C4B  372   6.484   2.254  12.023
   32DOPC   NC3  373   3.564   5.854  12.703
   32DOPC   PO4  374   3.414   5.574  12.533
   32DOPC   GL1  375   3.644   5.624  12.153
   32DOPC   GL2  376   3.844   5.424  12.183
   32DOPC   C1A  377   3.674   5.524  11.733
   32DOPC   D2A  378   3.934   5.384  11.303
   32DOPC   C3A  379   4.384   5.454  11.013
   32DOPC   C4A  380   4.754   5.724  10.913
   32DOPC   C1B  381   4.244   5.314  11.933
   32DOPC   D2B  382   4.574   5.124  11.523
   32DOPC   C3B  383   4.694   5.094  11.063
   32DOPC   C4B  384   4.994   4.844  10.793
   33DOPC   NC3  385  19.814   0.524  11.033
   33DOPC   PO4  386  19.874   0.514  10.613
   33DOPC   GL1  387  19.494   0.314  10.523
   33DOPC   GL2  388  19.384   0.384  10.763
   33DOPC   C1A  389  19.294   0.147  10.213
   33DOPC   D2A  390  19.104   0.037   9.763
   33DOPC   C3A  391  18.744   7.734   9.473
   33DOPC   C4A  392  18.454   7.364   9.243
   33DOPC   C1B  393  19.024   0.394  10.533
   33DOPC   D2B  394  18.664   0.304  10.143
   33DOPC   C3B  395  18.394   0.107   9.773
   33DOPC   C4B  396  18.134   7.734   9.393
   34DOPC   NC3  397   1.414   2.104  10.373
   34DOPC   PO4  398   1.754   2.284  10.303
   34DOPC   GL1  399   1.834   2.434   9.933
   34DOPC   GL2  400   1.994   2.114   9.903
   34DOPC   C1A  401   2.144   2.684   9.763
   34DOPC   D2A  402   2.534   2.914   9.693
   34DOPC   C3A  403   2.534   2.534   9.403
   34DOPC   C4A  404   2.424   2.134   9.123
   34DOPC   C1B  405   2.384   2.054   9.733
   34DOPC   D2B  406   2.784   2.054   9.453
   34DOPC   C3B  407   2.954   2.134   9.093
   34DOPC   C4B  408   3.164   2.064   8.633
   35DOPC   NC3  409  10.584   6.054  16.253
   35DOPC   PO4  410  10.864   5.794  16.303
   35DOPC   GL1  411  10.754   5.734  15.963
   35DOPC   GL2  412  10.974   5.854  15.803
   35DOPC   C1A  413  10.584   5.394  15.763
   35DOPC   D2A  414  10.674   4.954  15.563
   35DOPC   C3A  415  10.834   4.774  15.213
   35DOPC   C4A  416  11.084   4.544  14.843
   35DOPC   C1B  417  11.164   5.674  15.483
   35DOPC   D2B  418  11.494   5.474  15.183
   35DOPC   C3B  419  11.854   5.624  14.873
   35DOPC   C4B  420  12.114   5.534  14.483
   36DOPC   NC3  421  20.334   6.534  10.083
   36DOPC   PO4  422  20.644   6.304   9.923
   36DOPC   GL1  423  20.504   6.144   9.523
   36DOPC   GL2  424  20.484   6.404   9.453
   36DOPC   C1A  425  20.124   5.974   9.433
   36DOPC   D2A  426  19.784   5.634   9.493
   36DOPC   C3A  427  19.724   5.204   9.613
   36DOPC   C4A  428  19.664   4.754   9.453
   36DOPC   C1B  429  20.144   6.484   9.173
   36DOPC   D2B  430  19.784   6.164   9.213
   36DOPC   C3B  431  19.704   6.124   8.743
   36DOPC   C4B  432  19.394   6.194   8.393
   37DOPC   NC3  433  22.794   4.444   7.833
   37DOPC   PO4  434  23.124   4.624   7.703
   37DOPC   GL1  435  23.204   4.654   7.333
   37DOPC   GL2  436  23.474   4.474   7.353
   37DOPC   C1A  437  22.974   4.594   7.013
   37DOPC   D2A  438  22.724   4.254   6.803
   37DOPC   C3A  439  22.774   4.294   6.363
   37DOPC   C4A  440  23.054   4.494   5.973
   37DOPC   C1B  441  23.750   4.364   7.023
   37DOPC   D2B  442  24.030   4.524   6.643
   37DOPC   C3B  443  23.980   4.754   6.173
   37DOPC   C4B  444  23.620   4.734   5.893
   38DOPC   NC3  445  20.104   5.344  10.053
   38DOPC   PO4  446  20.044   5.614  10.313
   38DOPC   GL1  447  19.814   5.744  10.033
   38DOPC   GL2  448  19.774   6.034  10.063
   38DOPC   C1A  449  19.474   5.584   9.813
   38DOPC   D2A  450  19.064   5.654   9.643
   38DOPC   C3A  451  18.684   5.954   9.783
   38DOPC   C4A  452  18.364   6.314  10.003
   38DOPC   C1B  453  19.614   6.064   9.683
   38DOPC   D2B  454  19.374   5.874   9.253
   38DOPC   C3B  455  19.304   6.274   9.093
   38DOPC   C4B  456  19.274   6.584   8.713
   39DOPC   NC3  457  17.754   0.994  13.283
   39DOPC   PO4  458  17.694   0.954  12.853
   39DOPC   GL1  459  17.364   0.634  12.713
   39DOPC   GL2  460  17.594   0.734  12.513
   39DOPC   C1A  461  17.014   0.624  12.573
   39DOPC   D2A  462  16.534   0.524  12.513
   39DOPC   C3A  463  16.364   0.394  12.103
   39DOPC   C4A  464  16.014   0.474  11.713
   39DOPC   C1B  465  17.354   0.754  12.143
   39DOPC   D2B  466  16.864   0.894  12.073
   39DOPC   C3B  467  16.894   1.284  12.293
   39DOPC   C4B  468  17.044   1.594  12.623
   40DOPC   NC3  469   0.864   4.264  10.043
   40DOPC   PO4  470   0.844   4.404   9.663
   40DOPC   GL1  471   1.194   4.444   9.403
   40DOPC   GL2  472   1.154   4.724   9.363
   40DOPC   C1A  473   1.544   4.274   9.273
   40DOPC   D2A  474   1.934   4.344   8.933
   40DOPC   C3A  475   2.144   4.494   8.593
   40DOPC   C4A  476   2.344   4.874   8.303
   40DOPC   C1B  477   1.534   4.934   9.353
   40DOPC   D2B  478   1.934   5.154   9.533
   40DOPC   C3B  479   2.364   5.304   9.403
   40DOPC   C4B  480   2.894   5.264   9.313
   41DOPC   NC3  481  17.034   2.984  13.863
   41DOPC   PO4  482  17.204   3.314  13.723
   41DOPC   GL1  483  16.994   3.614  13.493
   41DOPC   GL2  484  17.214   3.634  13.293
   41DOPC   C1A  485  16.674   3.614  13.213
   41DOPC   D2A  486  16.204   3.554  13.133
   41DOPC   C3A  487  15.974   3.494  12.733
   41DOPC   C4A  488  15.694   3.334  12.393
   41DOPC   C1B  489  17.084   3.914  12.933
   41DOPC   D2B  490  17.124   4.334  12.683
   41DOPC   C3B  491  16.784   4.394  12.353
   41DOPC   C4B  492  16.464   4.734  12.223
   42DOPC   NC3  493   6.864   5.134  15.083
   42DOPC   PO4  494   6.944   4.724  15.083
   42DOPC   GL1  495   7.184   4.754  14.773
   42DOPC   GL2  496   6.994   4.844  14.653
   42DOPC   C1A  497   7.474   4.924  14.603
   42DOPC   D2A  498   7.724   5.064  14.213
   42DOPC   C3A  499   7.784   5.294  13.783
   42DOPC   C4A  500   7.714   5.514  13.333
   42DOPC   C1B  501   7.154   4.634  14.233
   42DOPC   D2B  502   7.404   4.424  13.763
   42DOPC   C3B  503   7.504   4.484  13.333
   42DOPC   C4B  504   7.724   4.614  12.953
   43DOPC   NC3  505  12.674   0.394  16.443
   43DOPC   PO4  506  12.644   0.654  16.143
   43DOPC   GL1  507  12.664   0.664  15.763
   43DOPC   GL2  508  12.424   0.394  15.783
   43DOPC   C1A  509  12.744   0.994  15.483
   43DOPC   D2A  510  12.904   1.394  15.233
   43DOPC   C3A  511  12.974   1.794  15.423
   43DOPC   C4A  512  12.894   2.114  15.693
   43DOPC   C1B  513  12.304   0.197  15.383
   43DOPC   D2B  514  12.264   0.234  14.933
   43DOPC   C3B  515  12.554   0.384  14.623
   43DOPC   C4B  516  12.874   0.244  14.283
   44DOPC   NC3  517   0.134   0.574   9.653
   44DOPC   PO4  518   0.434   0.374   9.733
   44DOPC   GL1  519   0.864   0.434   9.653
   44DOPC   GL2  520   0.734   0.404   9.403
   44DOPC   C1A  521   1.204   0.157   9.573
   44DOPC   D2A  522   1.514   7.614   9.403
   44DOPC   C3A  523   1.744   7.744   9.023
   44DOPC   C4A  524   2.094   7.794   8.633
   44DOPC   C1B  525   1.094   0.554   9.133
   44DOPC   D2B  526   1.514   0.694   8.863
   44DOPC   C3B  527   1.714   1.134   8.963
   44DOPC   C4B  528   1.784   1.644   9.003
   45DOPC   NC3  529  20.184   2.154   9.643
   45DOPC   PO4  530  20.254   2.524   9.773
   45DOPC   GL1  531  19.824   2.674   9.643
   45DOPC   GL2  532  19.894   2.894   9.803
   45DOPC   C1A  533  19.584   2.774   9.273
   45DOPC   D2A  534  19.174   2.684   9.023
   45DOPC   C3A  535  18.764   2.884   8.953
   45DOPC   C4A  536  18.414   3.044   8.673
   45DOPC   C1B  537  19.494   3.114   9.713
   45DOPC   D2B  538  19.064   2.954   9.503
   45DOPC   C3B  539  18.624   2.874   9.493
   45DOPC   C4B  540  18.294   3.084   9.203
   46DOPC   NC3  541  15.434   1.194  15.193
   46DOPC   PO4  542  15.134   0.994  15.173
   46DOPC   GL1  543  14.824   0.994  14.833
   46DOPC   GL2  544  14.984   1.074  14.623
   46DOPC   C1A  545  14.474   1.064  14.673
   46DOPC   D2A  546  14.194   1.334  14.433
   46DOPC   C3A  547  14.334   1.334  14.063
   46DOPC   C4A  548  14.324   1.764  13.763
   46DOPC   C1B  549  14.774   1.484  14.463
   46DOPC   D2B  550  14.564   1.854  14.293
   46DOPC   C3B  551  14.254   2.144  14.253
   46DOPC   C4B  552  14.014   2.584  14.303
   47DOPC   NC3  553  18.644   2.594  12.833
   47DOPC   PO4  554  18.344   2.794  12.693
   47DOPC   GL1  555  18.094   3.054  12.453
   47DOPC   GL2  556  18.204   3.234  12.423
   47DOPC   C1A  557  17.704   2.914  12.433
   47DOPC   D2A  558  17.244   3.004  12.403
   47DOPC   C3A  559  16.824   3.154  12.513
   47DOPC   C4A  560  16.504   3.544  12.683
   47DOPC   C1B  561  17.984   3.524  12.203
   47DOPC   D2B  562  17.894   3.914  11.833
   47DOPC   C3B  563  17.464   3.884  11.763
   47DOPC   C4B  564  17.144   3.744  11.373
   48DOPC   NC3  565   8.714   1.874  15.503
   48DOPC   PO4  566   8.324   1.944  15.413
   48DOPC   GL1  567   8.344   1.984  15.003
   48DOPC   GL2  568   8.474   1.734  14.953
   48DOPC   C1A  569   8.204   2.224  14.703
   48DOPC   D2A  570   7.874   2.344  14.373
   48DOPC   C3A  571   8.084   2.464  13.973
   48DOPC   C4A  572   8.494   2.594  13.663
   48DOPC   C1B  573   8.494   1.684  14.523
   48DOPC   D2B  574   8.894   1.544  14.243
   48DOPC   C3B  575   9.204   1.504  13.873
   48DOPC   C4B  576   9.404   1.344  13.493
   49DOPC   NC3  577   1.494   7.364  10.903
   49DOPC   PO4  578   1.814   7.194  10.723
   49DOPC   GL1  579   2.094   7.384  10.553
   49DOPC   GL2  580   1.984   7.454  10.293
   49DOPC   C1A  581   2.494   7.354  10.423
   49DOPC   D2A  582   2.734   7.324   9.983
   49DOPC   C3A  583   3.024   7.374   9.663
   49DOPC   C4A  584   3.354   7.654   9.483
   49DOPC   C1B  585   2.284   7.714  10.073
   49DOPC   D2B  586   2.544   7.694   9.673
   49DOPC   C3B  587   2.814   7.704   9.333
   49DOPC   C4B  588   3.134   7.654   8.963
   50DOPC   NC3  589  12.734   6.524  16.293
   50DOPC   PO4  590  12.324   6.464  16.203
   50DOPC   GL1  591  12.174   6.234  15.953
   50DOPC   GL2  592  11.954   6.144  15.853
   50DOPC   C1A  593  12.234   6.294  15.543
   50DOPC   D2A  594  12.194   6.454  15.063
   50DOPC   C3A  595  11.914   6.534  14.703
   50DOPC   C4A  596  11.684   6.524  14.263
   50DOPC   C1B  597  11.724   6.324  15.553
   50DOPC   D2B  598  11.604   6.424  15.113
   50DOPC   C3B  599  11.464   6.714  14.743
   50DOPC   C4B  600  11.234   6.934  14.393
   51DOPC   NC3  601  21.274   5.364   9.023
   51DOPC   PO4  602  20.984   5.154   9.073
   51DOPC   GL1  603  20.624   4.994   8.933
   51DOPC   GL2  604  20.824   4.934   8.693
   51DOPC   C1A  605  20.284   5.214   8.803
   51DOPC   D2A  606  19.824   5.144   8.613
   51DOPC   C3A  607  19.464   4.824   8.443
   51DOPC   C4A  608  19.304   4.384   8.503
   51DOPC   C1B  609  20.804   4.934   8.233
   51DOPC   D2B  610  20.854   4.684   7.823
   51DOPC   C3B  611  20.704   4.914   7.453
   51DOPC   C4B  612  20.284   5.094   7.243
   52DOPC   NC3  613   7.374   3.524  15.113
   52DOPC   PO4  614   7.704   3.334  15.143
   52DOPC   GL1  615   7.894   3.414  14.843
   52DOPC   GL2  616   7.694   3.384  14.623
   52DOPC   C1A  617   8.284   3.614  14.623
   52DOPC   D2A  618   8.454   3.744  14.153
   52DOPC   C3A  619   8.794   3.904  14.013
   52DOPC   C4A  620   9.334   4.004  13.913
   52DOPC   C1B  621   7.894   3.564  14.323
   52DOPC   D2B  622   8.034   3.964  14.063
   52DOPC   C3B  623   8.364   4.184  13.923
   52DOPC   C4B  624   8.774   4.414  13.773
   53DOPC   NC3  625  16.644   2.634  14.833
   53DOPC   PO4  626  16.564   2.934  14.543
   53DOPC   GL1  627  16.444   2.704  14.213
   53DOPC   GL2  628  16.504   2.934  14.003
   53DOPC   C1A  629  15.994   2.574  14.133
   53DOPC   D2A  630  15.614   2.274  14.053
   53DOPC   C3A  631  15.264   2.254  13.733
   53DOPC   C4A  632  14.954   2.324  13.373
   53DOPC   C1B  633  16.134   3.074  13.963
   53DOPC   D2B  634  15.724   2.804  13.793
   53DOPC   C3B  635  15.324   2.764  13.533
   53DOPC   C4B  636  14.874   2.854  13.273
   54DOPC   NC3  637  24.810   2.534   8.183
   54DOPC   PO4  638  24.950   2.164   8.113
   54DOPC   GL1  639   0.054   2.284   7.873
   54DOPC   GL2  640   0.074   2.564   7.803
   54DOPC   C1A  641   0.274   2.054   7.593
   54DOPC   D2A  642   0.504   1.694   7.353
   54DOPC   C3A  643   0.644   1.814   6.903
   54DOPC   C4A  644   1.004   1.584   6.713
   54DOPC   C1B  645   0.444   2.664   7.523
   54DOPC   D2B  646   0.894   2.754   7.303
   54DOPC   C3B  647   1.174   2.504   7.483
   54DOPC   C4B  648   1.664   2.434   7.643
   55DOPC   NC3  649  24.950   1.054   8.363
   55DOPC   PO4  650   0.154   1.314   8.433
   55DOPC   GL1  651   0.544   1.464   8.353
   55DOPC   GL2  652   0.604   1.184   8.173
   55DOPC   C1A  653   0.914   1.544   8.213
   55DOPC   D2A  654   1.394   1.594   7.993
   55DOPC   C3A  655   1.794   1.614   8.103
   55DOPC   C4A  656   2.104   1.824   8.433
   55DOPC   C1B  657   0.994   1.094   7.973
   55DOPC   D2B  658   1.474   1.174   7.723
   55DOPC   C3B  659   1.664   0.864   7.533
   55DOPC   C4B  660   1.964   0.634   7.283
   56DOPC   NC3  661  18.344   1.624  13.093
   56DOPC   PO4  662  18.284   1.814  12.783
   56DOPC   GL1  663  17.964   1.984  12.583
   56DOPC   GL2  664  17.944   1.814  12.333
   56DOPC   C1A  665  17.484   2.004  12.533
   56DOPC   D2A  666  17.084   1.984  12.253
   56DOPC   C3A  667  16.694   1.804  12.183
   56DOPC   C4A  668  16.214   1.894  12.193
   56DOPC   C1B  669  17.624   2.084  12.043
   56DOPC   D2B  670  17.204   2.074  11.773
   56DOPC   C3B  671  17.364   1.974  11.343
   56DOPC   C4B  672  17.554   1.644  11.053
   57DOPC   NC3  673   6.134   3.894  14.703
   57DOPC   PO4  674   6.204   3.744  14.343
   57DOPC   GL1  675   6.464   3.654  14.043
   57DOPC   GL2  676   6.724   3.804  14.123
   57DOPC   C1A  677   6.584   3.454  13.673
   57DOPC   D2A  678   6.744   3.194  13.313
   57DOPC   C3A  679   6.734   3.324  12.833
   57DOPC   C4A  680   6.814   3.324  12.343
   57DOPC   C1B  681   7.064   3.674  13.893
   57DOPC   D2B  682   7.204   3.324  13.543
   57DOPC   C3B  683   7.204   3.164  13.093
   57DOPC   C4B  684   7.074   2.964  12.733
   58DOPC   NC3  685  14.314   2.994  15.743
   58DOPC   PO4  686  14.154   2.714  16.023
   58DOPC   GL1  687  13.824   2.674  15.703
   58DOPC   GL2  688  14.054   2.414  15.673
   58DOPC   C1A  689  13.484   2.834  15.493
   58DOPC   D2A  690  13.064   3.014  15.213
   58DOPC   C3A  691  12.794   2.864  14.883
   58DOPC   C4A  692  12.594   2.714  14.483
   58DOPC   C1B  693  14.164   2.194  15.263
   58DOPC   D2B  694  14.354   2.014  14.823
   58DOPC   C3B  695  13.924   2.214  14.663
   58DOPC   C4B  696  13.554   2.464  14.543
   59DOPC   NC3  697  21.014   3.474   9.633
   59DOPC   PO4  698  20.984   3.554   9.283
   59DOPC   GL1  699  20.784   3.304   8.983
   59DOPC   GL2  700  20.924   3.474   8.793
   59DOPC   C1A  701  20.374   3.204   8.883
   59DOPC   D2A  702  19.964   3.014   8.683
   59DOPC   C3A  703  19.574   2.794   8.773
   59DOPC   C4A  704  19.334   2.444   8.593
   59DOPC   C1B  705  20.564   3.604   8.623
   59DOPC   D2B  706  20.184   3.724   8.343
   59DOPC   C3B  707  20.034   4.074   8.133
   59DOPC   C4B  708  19.634   4.374   8.143
   60DOPC   NC3  709   5.134   4.254  13.213
   60DOPC   PO4  710   5.214   3.854  13.223
   60DOPC   GL1  711   5.544   3.784  12.993
   60DOPC   GL2  712   5.364   3.584  12.873
   60DOPC   C1A  713   5.794   3.864  12.603
   60DOPC   D2A  714   5.974   3.624  12.153
   60DOPC   C3A  715   6.354   3.694  12.343
   60DOPC   C4A  716   6.614   3.794  12.743
   60DOPC   C1B  717   5.454   3.664  12.423
   60DOPC   D2B  718   5.504   3.784  11.953
   60DOPC   C3B  719   5.794   3.724  11.633
   60DOPC   C4B  720   5.874   3.604  11.203
   61DOPC   NC3  721  12.304   4.784  16.093
   61DOPC   PO4  722  12.634   4.644  15.883
   61DOPC   GL1  723  12.684   4.764  15.513
   61DOPC   GL2  724  12.864   4.584  15.423
   61DOPC   C1A  725  12.534   4.954  15.183
   61DOPC   D2A  726  12.314   5.264  14.843
   61DOPC   C3A  727  12.614   5.394  14.523
   61DOPC   C4A  728  13.084   5.414  14.283
   61DOPC   C1B  729  12.814   4.564  14.953
   61DOPC   D2B  730  12.644   4.634  14.483
   61DOPC   C3B  731  12.764   4.954  14.183
   61DOPC   C4B  732  12.554   5.054  13.803
   62DOPC   NC3  733   4.734   2.174  13.373
   62DOPC   PO4  734   4.994   1.864  13.473
   62DOPC   GL1  735   5.384   1.884  13.243
   62DOPC   GL2  736   5.424   2.114  13.353
   62DOPC   C1A  737   5.584   1.914  12.883
   62DOPC   D2A  738   5.894   2.164  12.633
   62DOPC   C3A  739   5.914   2.104  12.153
   62DOPC   C4A  740   6.084   1.824  11.823
   62DOPC   C1B  741   5.604   2.354  13.063
   62DOPC   D2B  742   5.664   2.734  12.643
   62DOPC   C3B  743   6.114   2.844  12.453
   62DOPC   C4B  744   6.564   2.914  12.683
   63DOPC   NC3  745  20.264   0.077   9.373
   63DOPC   PO4  746  20.594   0.234   9.213
   63DOPC   GL1  747  20.554   0.197   8.763
   63DOPC   GL2  748  20.304   0.197   8.883
   63DOPC   C1A  749  20.414   0.087   8.403
   63DOPC   D2A  750  20.014   0.137   8.123
   63DOPC   C3A  751  19.634   0.177   7.913
   63DOPC   C4A  752  19.284   0.177   7.533
   63DOPC   C1B  753  20.004   0.314   8.683
   63DOPC   D2B  754  19.704   0.624   8.433
   63DOPC   C3B  755  19.414   0.594   8.083
   63DOPC   C4B  756  19.014   0.594   7.863
   64DOPC   NC3  757   8.614   6.724  15.683
   64DOPC   PO4  758   8.374   6.874  15.423
   64DOPC   GL1  759   8.494   7.044  15.113
   64DOPC   GL2  760   8.184   7.004  14.993
   64DOPC   C1A  761   8.764   7.164  14.673
   64DOPC   D2A  762   8.954   7.324  14.283
   64DOPC   C3A  763   9.344   7.364  14.463
   64DOPC   C4A  764   9.834   7.234  14.343
   64DOPC   C1B  765   8.304   6.974  14.543
   64DOPC   D2B  766   8.674   6.954  14.243
   64DOPC   C3B  767   8.934   6.994  13.813
   64DOPC   C4B  768   9.144   7.134  13.383
   65DOPC   NC3  769  18.004   4.324  13.233
   65DOPC   PO4  770  18.114   4.634  12.983
   65DOPC   GL1  771  17.934   4.784  12.643
   65DOPC   GL2  772  17.894   4.994  12.553
   65DOPC   C1A  773  17.724   4.574  12.273
   65DOPC   D2A  774  17.794   4.384  11.843
   65DOPC   C3A  775  17.364   4.344  11.613
   65DOPC   C4A  776  16.944   4.484  11.453
   65DOPC   C1B  777  17.634   5.074  12.243
   65DOPC   D2B  778  17.384   4.894  11.923
   65DOPC   C3B  779  17.174   5.184  11.623
   65DOPC   C4B  780  17.164   5.464  11.203
   66DOPC   NC3  781  22.004   6.754   8.113
   66DOPC   PO4  782  22.284   6.874   7.873
   66DOPC   GL1  783  22.224   6.904   7.453
   66DOPC   GL2  784  22.534   7.134   7.403
   66DOPC   C1A  785  22.034   6.734   7.103
   66DOPC   D2A  786  21.654   6.474   6.873
   66DOPC   C3A  787  21.284   6.234   6.803
   66DOPC   C4A  788  20.854   6.314   6.723
   66DOPC   C1B  789  22.564   7.134   6.923
   66DOPC   D2B  790  22.444   7.114   6.423
   66DOPC   C3B  791  22.124   7.434   6.193
   66DOPC   C4B  792  21.844   7.444   5.803
   67DOPC   NC3  793  19.454   4.354  10.573
   67DOPC   PO4  794  19.374   4.184  10.923
   67DOPC   GL1  795  19.004   4.004  10.823
   67DOPC   GL2  796  18.984   4.194  10.583
   67DOPC   C1A  797  18.604   3.774  10.583
   67DOPC   D2A  798  18.234   3.714  10.253
   67DOPC   C3A  799  17.964   4.004   9.993
   67DOPC   C4A  800  17.504   3.984   9.743
   67DOPC   C1B  801  18.694   4.144  10.233
   67DOPC   D2B  802  18.464   4.264   9.873
   67DOPC   C3B  803  18.394   4.744   9.873
   67DOPC   C4B  804  18.214   5.194   9.833
   68DOPC   NC3  805   2.624   1.704  11.263
   68DOPC   PO4  806   2.534   1.314  11.133
   68DOPC   GL1  807   2.584   1.154  10.763
   68DOPC   GL2  808   2.294   1.214  10.643
   68DOPC   C1A  809   2.884   1.134  10.353
   68DOPC   D2A  810   3.054   1.204   9.863
   68DOPC   C3A  811   3.244   1.134   9.423
   68DOPC   C4A  812   3.534   1.194   9.083
   68DOPC   C1B  813   2.314   0.974  10.283
   68DOPC   D2B  814   2.674   0.884  10.003
   68DOPC   C3B  815   3.034   0.664  10.183
   68DOPC   C4B  816   3.134   0.264  10.383
   69DOPC   NC3  817  15.714   5.484  14.753
   69DOPC   PO4  818  15.714   5.094  14.803
   69DOPC   GL1  819  15.444   5.004  14.613
   69DOPC   GL2  820  15.304   5.264  14.563
   69DOPC   C1A  821  15.144   4.824  14.273
   69DOPC   D2A  822  15.014   4.364  14.153
   69DOPC   C3A  823  14.984   3.874  14.033
   69DOPC   C4A  824  14.864   3.364  14.093
   69DOPC   C1B  825  15.084   5.274  14.163
   69DOPC   D2B  826  14.924   5.304  13.683
   69DOPC   C3B  827  14.664   5.354  13.353
   69DOPC   C4B  828  14.254   5.434  13.123
   70DOPC   NC3  829  13.994   5.874  16.163
   70DOPC   PO4  830  13.864   5.884  15.793
   70DOPC   GL1  831  13.644   5.764  15.463
   70DOPC   GL2  832  13.604   5.514  15.693
   70DOPC   C1A  833  13.764   5.644  15.043
   70DOPC   D2A  834  13.844   5.354  14.663
   70DOPC   C3A  835  13.524   5.234  14.383
   70DOPC   C4A  836  13.344   5.024  14.033
   70DOPC   C1B  837  13.514   5.224  15.373
   70DOPC   D2B  838  13.444   5.054  14.843
   70DOPC   C3B  839  13.844   4.794  14.953
   70DOPC   C4B  840  14.304   4.614  15.023
   71DOPC   NC3  841   3.194   7.374  11.433
   71DOPC   PO4  842   3.134   7.014  11.503
   71DOPC   GL1  843   3.444   6.854  11.513
   71DOPC   GL2  844   3.704   6.984  11.683
   71DOPC   C1A  845   3.734   6.524  11.463
   71DOPC   D2A  846   4.224   6.324  11.483
   71DOPC   C3A  847   4.614   6.134  11.263
   71DOPC   C4A  848   4.994   6.214  10.943
   71DOPC   C1B  849   4.074   6.894  11.483
   71DOPC   D2B  850   4.434   6.814  11.203
   71DOPC   C3B  851   4.634   7.164  11.063
   71DOPC   C4B  852   4.974   7.534  11.113
   72DOPC   NC3  853  13.534   0.994  16.483
   72DOPC   PO4  854  13.324   1.144  16.173
   72DOPC   GL1  855  13.194   1.054  15.693
   72DOPC   GL2  856  13.224   1.294  15.593
   72DOPC   C1A  857  13.244   0.684  15.493
   72DOPC   D2A  858  13.304   0.434  15.093
   72DOPC   C3A  859  13.224   0.464  14.643
   72DOPC   C4A  860  13.354   0.424  14.213
   72DOPC   C1B  861  13.414   1.094  15.293
   72DOPC   D2B  862  13.404   0.874  14.853
   72DOPC   C3B  863  13.344   0.964  14.433
   72DOPC   C4B  864  13.274   1.014  13.933
   73DOPC   NC3  865  22.224   4.994   8.173
   73DOPC   PO4  866  22.324   4.884   7.783
   73DOPC   GL1  867  22.224   4.894   7.393
   73DOPC   GL2  868  21.974   4.764   7.293
   73DOPC   C1A  869  22.474   5.044   7.053
   73DOPC   D2A  870  22.764   5.054   6.683
   73DOPC   C3A  871  23.184   5.154   6.693
   73DOPC   C4A  872  23.610   5.364   6.883
   73DOPC   C1B  873  21.934   4.874   6.893
   73DOPC   D2B  874  21.834   4.784   6.433
   73DOPC   C3B  875  22.174   4.594   6.193
   73DOPC   C4B  876  22.544   4.524   5.913
   74DOPC   NC3  877   5.404   0.354  13.923
   74DOPC   PO4  878   5.554   7.824  13.833
   74DOPC   GL1  879   5.774   0.097  13.543
   74DOPC   GL2  880   5.764   0.434  13.533
   74DOPC   C1A  881   5.774   0.057  13.083
   74DOPC   D2A  882   5.774   7.674  12.643
   74DOPC   C3A  883   6.054   7.434  12.263
   74DOPC   C4A  884   6.414   7.294  12.053
   74DOPC   C1B  885   5.904   0.764  13.443
   74DOPC   D2B  886   6.224   1.034  13.213
   74DOPC   C3B  887   6.374   1.104  12.783
   74DOPC   C4B  888   6.294   0.804  12.443
   75DOPC   NC3  889   8.304   5.204  15.633
   75DOPC   PO4  890   8.124   5.444  15.443
   75DOPC   GL1  891   8.284   5.804  15.203
   75DOPC   GL2  892   8.114   5.764  14.953
   75DOPC   C1A  893   8.624   5.714  14.983
   75DOPC   D2A  894   9.124   5.754  14.753
   75DOPC   C3A  895   9.494   5.434  14.673
   75DOPC   C4A  896   9.704   4.994  14.453
   75DOPC   C1B  897   8.274   5.594  14.653
   75DOPC   D2B  898   8.334   5.264  14.293
   75DOPC   C3B  899   8.364   5.184  13.813
   75DOPC   C4B  900   8.114   5.164  13.343
   76DOPS   CNO  901  13.484   0.017  16.303
   76DOPS   PO4  902  13.204   7.754  16.483
   76DOPS   GL1  903  12.984   7.694  16.063
   76DOPS   GL2  904  12.924   0.097  16.043
   76DOPS   C1A  905  13.124   7.514  15.763
   76DOPS   D2A  906  13.184   7.324  15.353
   76DOPS   C3A  907  13.244   7.534  14.933
   76DOPS   C4A  908  13.434   0.037  14.613
   76DOPS   C1B  909  12.894   0.324  15.613
   76DOPS   D2B  910  12.754   0.454  15.183
   76DOPS   C3B  911  12.904   0.117  14.873
   76DOPS   C4B  912  13.004   7.634  14.463
   77DOPS   CNO  913   7.054   5.294  15.533
   77DOPS   PO4  914   7.274   5.534  15.373
   77DOPS   GL1  915   7.354   5.544  15.023
   77DOPS   GL2  916   7.334   5.734  14.853
   77DOPS   C1A  917   7.634   5.344  14.783
   77DOPS   D2A  918   8.054   5.044  14.653
   77DOPS   C3A  919   8.004   4.584  14.633
   77DOPS   C4A  920   7.974   4.084  14.623
   77DOPS   C1B  921   7.364   5.654  14.363
   77DOPS   D2B  922   7.344   5.494  13.863
   77DOPS   C3B  923   6.964   5.304  13.753
   77DOPS   C4B  924   6.504   5.534  13.933
   78DOPS   CNO  925  18.674   3.094  12.403
   78DOPS   PO4  926  18.614   3.454  12.373
   78DOPS   GL1  927  18.454   3.564  12.033
   78DOPS   GL2  928  18.324   3.844  12.053
   78DOPS   C1A  929  18.144   3.404  11.663
   78DOPS   D2A  930  18.154   3.094  11.203
   78DOPS   C3A  931  17.684   2.964  11.123
   78DOPS   C4A  932  17.414   2.594  10.863
   78DOPS   C1B  933  18.264   4.154  11.673
   78DOPS   D2B  934  17.784   4.104  11.403
   78DOPS   C3B  935  17.554   4.354  11.073
   78DOPS   C4B  936  17.404   4.504  10.583
   79DOPS   CNO  937   1.054   5.274  10.223
   79DOPS   PO4  938   1.054   5.484   9.883
   79DOPS   GL1  939   1.144   5.354   9.533
   79DOPS   GL2  940   1.424   5.354   9.573
   79DOPS   C1A  941   1.064   5.354   9.123
   79DOPS   D2A  942   1.314   5.584   8.893
   79DOPS   C3A  943   1.654   5.684   8.653
   79DOPS   C4A  944   1.804   5.864   8.193
   79DOPS   C1B  945   1.704   5.404   9.173
   79DOPS   D2B  946   1.994   5.284   8.743
   79DOPS   C3B  947   1.914   5.414   8.283
   79DOPS   C4B  948   2.154   5.514   7.853
   80DOPS   CNO  949   8.964   3.834  15.753
   80DOPS   PO4  950   9.024   4.124  15.503
   80DOPS   GL1  951   9.074   3.964  15.113
   80DOPS   GL2  952   9.384   3.884  15.163
   80DOPS   C1A  953   9.214   4.124  14.723
   80DOPS   D2A  954   9.454   4.394  14.413
   80DOPS   C3A  955   9.484   4.544  13.973
   80DOPS   C4A  956   9.624   4.834  13.593
   80DOPS   C1B  957   9.744   4.094  15.043
   80DOPS   D2B  958  10.064   4.274  14.773
   80DOPS   C3B  959  10.064   4.394  14.323
   80DOPS   C4B  960   9.974   4.654  13.953
   81DOPS   CNO  961   4.594   6.624  12.843
   81DOPS   PO4  962   4.704   6.504  13.193
   81DOPS   GL1  963   5.094   6.594  13.143
   81DOPS   GL2  964   5.094   6.634  12.843
   81DOPS   C1A  965   5.444   6.394  13.083
   81DOPS   D2A  966   5.864   6.384  12.803
   81DOPS   C3A  967   6.094   6.714  12.623
   81DOPS   C4A  968   6.414   6.674  12.253
   81DOPS   C1B  969   5.544   6.774  12.773
   81DOPS   D2B  970   5.854   7.154  12.563
   81DOPS   C3B  971   6.004   6.964  12.133
   81DOPS   C4B  972   6.374   6.844  11.803
   82DOPS   CNO  973  17.814   4.064  13.693
   82DOPS   PO4  974  17.814   3.844  13.383
   82DOPS   GL1  975  17.684   4.084  13.013
   82DOPS   GL2  976  17.614   3.784  12.963
   82DOPS   C1A  977  17.624   4.264  12.683
   82DOPS   D2A  978  17.474   4.084  12.223
   82DOPS   C3A  979  17.054   4.144  11.973
   82DOPS   C4A  980  16.814   4.034  11.533
   82DOPS   C1B  981  17.394   3.704  12.603
   82DOPS   D2B  982  16.944   3.834  12.373
   82DOPS   C3B  983  16.534   4.014  12.203
   82DOPS   C4B  984  16.204   4.334  12.293
   83DOPS   CNO  985  20.164   3.534  10.563
   83DOPS   PO4  986  19.934   3.234  10.453
   83DOPS   GL1  987  19.674   3.164  10.133
   83DOPS   GL2  988  19.924   3.234  10.093
   83DOPS   C1A  989  19.384   3.494   9.993
   83DOPS   D2A  990  19.054   3.834   9.893
   83DOPS   C3A  991  18.764   4.074   9.593
   83DOPS   C4A  992  18.394   4.224   9.343
   83DOPS   C1B  993  19.984   3.294   9.663
   83DOPS   D2B  994  19.694   3.294   9.233
   83DOPS   C3B  995  19.334   3.194   8.993
   83DOPS   C4B  996  19.084   2.974   8.613
   84DOPS   CNO  997   6.134   2.634  14.363
   84DOPS   PO4  998   6.064   2.924  14.123
   84DOPS   GL1  999   6.284   3.034  13.683
   84DOPS   GL2 1000   6.474   3.094  13.913
   84DOPS   C1A 1001   6.514   2.734  13.383
   84DOPS   D2A 1002   6.844   2.664  13.013
   84DOPS   C3A 1003   7.284   2.484  13.033
   84DOPS   C4A 1004   7.834   2.344  12.943
   84DOPS   C1B 1005   6.864   3.024  13.823
   84DOPS   D2B 1006   7.184   2.784  13.503
   84DOPS   C3B 1007   7.564   2.784  13.203
   84DOPS   C4B 1008   7.984   2.924  13.063
   85DOPS   CNO 1009   3.724   1.164  12.033
   85DOPS   PO4 1010   3.634   0.764  11.953
   85DOPS   GL1 1011   3.934   0.464  11.883
   85DOPS   GL2 1012   4.134   0.444  12.073
   85DOPS   C1A 1013   4.184   0.494  11.533
   85DOPS   D2A 1014   4.254   0.624  11.053
   85DOPS   C3A 1015   4.594   0.584  10.723
   85DOPS   C4A 1016   5.054   0.504  10.563
   85DOPS   C1B 1017   4.544   0.524  11.903
   85DOPS   D2B 1018   4.974   0.724  11.763
   85DOPS   C3B 1019   5.314   0.644  11.533
   85DOPS   C4B 1020   5.744   0.574  11.243
   86DOPS   CNO 1021   1.284   3.704  10.353
   86DOPS   PO4 1022   1.364   4.024  10.123
   86DOPS   GL1 1023   1.664   4.214   9.913
   86DOPS   GL2 1024   1.694   4.084   9.673
   86DOPS   C1A 1025   2.054   4.094  10.133
   86DOPS   D2A 1026   2.464   3.904   9.943
   86DOPS   C3A 1027   2.584   3.904   9.513
   86DOPS   C4A 1028   2.744   3.864   9.103
   86DOPS   C1B 1029   2.014   4.104   9.363
   86DOPS   D2B 1030   2.294   3.994   8.963
   86DOPS   C3B 1031   2.524   3.954   8.623
   86DOPS   C4B 1032   2.674   3.834   8.143
   87DOPS   CNO 1033  21.474   6.204   9.133
   87DOPS   PO4 1034  21.154   6.394   9.043
   87DOPS   GL1 1035  21.164   6.454   8.623
   87DOPS   GL2 1036  20.904   6.664   8.713
   87DOPS   C1A 1037  21.004   6.174   8.353
   87DOPS   D2A 1038  20.494   6.174   8.223
   87DOPS   C3A 1039  20.154   6.114   7.873
   87DOPS   C4A 1040  19.914   6.144   7.413
   87DOPS   C1B 1041  20.564   6.594   8.513
   87DOPS   D2B 1042  20.234   6.564   8.153
   87DOPS   C3B 1043  20.144   6.734   7.703
   87DOPS   C4B 1044  20.344   6.954   7.283
   88DOPS   CNO 1045  17.534   0.994  13.733
   88DOPS   PO4 1046  17.384   0.664  13.713
   88DOPS   GL1 1047  17.184   0.644  13.313
   88DOPS   GL2 1048  17.284   0.904  13.183
   88DOPS   C1A 1049  16.954   0.394  13.023
   88DOPS   D2A 1050  16.874   0.037  12.673
   88DOPS   C3A 1051  16.644   7.744  12.293
   88DOPS   C4A 1052  16.214   7.704  12.013
   88DOPS   C1B 1053  16.964   0.974  12.863
   88DOPS   D2B 1054  16.554   1.014  12.573
   88DOPS   C3B 1055  16.374   0.934  12.183
   88DOPS   C4B 1056  15.984   0.974  11.853
   89DOPS   CNO 1057  12.484   2.904  16.013
   89DOPS   PO4 1058  12.504   3.194  16.243
   89DOPS   GL1 1059  12.444   3.414  15.813
   89DOPS   GL2 1060  12.174   3.234  15.863
   89DOPS   C1A 1061  12.584   3.344  15.433
   89DOPS   D2A 1062  12.714   3.364  14.913
   89DOPS   C3A 1063  12.554   3.594  14.593
   89DOPS   C4A 1064  12.174   3.594  14.353
   89DOPS   C1B 1065  12.064   3.194  15.403
   89DOPS   D2B 1066  12.174   3.394  14.993
   89DOPS   C3B 1067  11.834   3.504  14.653
   89DOPS   C4B 1068  11.434   3.714  14.373
   90DOPS   CNO 1069  18.034   1.384  13.833
   90DOPS   PO4 1070  17.974   1.574  13.463
   90DOPS   GL1 1071  17.624   1.504  13.133
   90DOPS   GL2 1072  17.884   1.584  12.973
   90DOPS   C1A 1073  17.254   1.374  13.013
   90DOPS   D2A 1074  16.834   1.404  13.123
   90DOPS   C3A 1075  16.504   1.384  12.813
   90DOPS   C4A 1076  16.094   1.254  12.543
   90DOPS   C1B 1077  17.664   1.574  12.643
   90DOPS   D2B 1078  17.474   1.674  12.213
   90DOPS   C3B 1079  17.174   1.594  11.923
   90DOPS   C4B 1080  16.704   1.644  11.723
   91DOPS   CNO 1081   9.274   6.734  16.313
   91DOPS   PO4 1082   9.614   6.864  16.263
   91DOPS   GL1 1083   9.604   6.714  15.843
   91DOPS   GL2 1084   9.894   6.734  15.883
   91DOPS   C1A 1085   9.524   6.534  15.443
   91DOPS   D2A 1086   9.254   6.494  15.003
   91DOPS   C3A 1087   9.434   6.364  14.513
   91DOPS   C4A 1088   9.804   6.114  14.233
   91DOPS   C1B 1089  10.024   6.934  15.503
   91DOPS   D2B 1090  10.304   7.134  15.133
   91DOPS   C3B 1091  10.524   7.164  14.763
   91DOPS   C4B 1092  10.814   7.124  14.423
   92DOPS   CNO 1093   6.624   3.044  14.723
   92DOPS   PO4 1094   6.954   2.884  14.573
   92DOPS   GL1 1095   7.154   2.804  14.173
   92DOPS   GL2 1096   6.964   2.634  14.093
   92DOPS   C1A 1097   7.434   2.974  13.873
   92DOPS   D2A 1098   7.704   3.164  13.523
   92DOPS   C3A 1099   8.164   3.354  13.413
   92DOPS   C4A 1100   8.594   3.394  13.203
   92DOPS   C1B 1101   7.074   2.394  13.743
   92DOPS   D2B 1102   7.104   2.154  13.353
   92DOPS   C3B 1103   7.544   2.124  13.323
   92DOPS   C4B 1104   8.034   2.004  13.243
   93DOPS   CNO 1105  23.544   7.504   8.143
   93DOPS   PO4 1106  23.860   7.464   7.963
   93DOPS   GL1 1107  23.830   7.434   7.513
   93DOPS   GL2 1108  23.610   7.594   7.553
   93DOPS   C1A 1109  23.810   7.024   7.303
   93DOPS   D2A 1110  23.890   6.834   6.863
   93DOPS   C3A 1111  23.790   6.664   6.473
   93DOPS   C4A 1112  23.660   6.444   6.093
   93DOPS   C1B 1113  23.404   7.294   7.303
   93DOPS   D2B 1114  23.044   7.324   6.963
   93DOPS   C3B 1115  22.804   7.524   6.553
   93DOPS   C4B 1116  22.614   7.454   6.143
   94DOPS   CNO 1117  24.480   7.744   8.513
   94DOPS   PO4 1118  24.740   7.464   8.533
   94DOPS   GL1 1119  24.810   7.424   8.103
   94DOPS   GL2 1120  24.750   7.644   7.973
   94DOPS   C1A 1121   0.034   7.204   7.793
   94DOPS   D2A 1122   0.454   7.044   7.523
   94DOPS   C3A 1123   0.794   6.904   7.823
   94DOPS   C4A 1124   1.124   6.674   8.193
   94DOPS   C1B 1125  24.850   7.624   7.573
   94DOPS   D2B 1126  24.970   7.564   7.123
   94DOPS   C3B 1127   0.034   0.007   6.783
   94DOPS   C4B 1128   0.304   0.087   6.463
   95DOPS   CNO 1129   7.724   7.504  15.513
   95DOPS   PO4 1130   7.854   7.824  15.303
   95DOPS   GL1 1131   7.964   7.554  15.003
   95DOPS   GL2 1132   8.114   7.734  14.853
   95DOPS   C1A 1133   7.874   7.304  14.673
   95DOPS   D2A 1134   7.894   7.164  14.213
   95DOPS   C3A 1135   7.764   6.974  13.783
   95DOPS   C4A 1136   8.034   6.814  13.353
   95DOPS   C1B 1137   8.144   0.027  14.463
   95DOPS   D2B 1138   8.154   0.197  13.963
   95DOPS   C3B 1139   8.434   0.364  13.703
   95DOPS   C4B 1140   8.664   0.714  13.453
   96DOPS   CNO 1141   1.554   5.784   9.823
   96DOPS   PO4 1142   1.814   5.514   9.823
   96DOPS   GL1 1143   2.274   5.574   9.743
   96DOPS   GL2 1144   2.154   5.714   9.483
   96DOPS   C1A 1145   2.694   5.654   9.603
   96DOPS   D2A 1146   3.124   5.704   9.393
   96DOPS   C3A 1147   3.184   6.104   9.253
   96DOPS   C4A 1148   3.454   6.304   8.853
   96DOPS   C1B 1149   2.114   5.724   9.053
   96DOPS   D2B 1150   2.314   5.604   8.523
   96DOPS   C3B 1151   2.484   5.344   8.183
   96DOPS   C4B 1152   2.624   5.114   7.793
   97DOPS   CNO 1153  20.044   1.414  11.123
   97DOPS   PO4 1154  19.844   1.374  10.773
   97DOPS   GL1 1155  19.444   1.284  10.633
   97DOPS   GL2 1156  19.244   1.244  10.763
   97DOPS   C1A 1157  19.224   1.224  10.223
   97DOPS   D2A 1158  19.024   1.044   9.753
   97DOPS   C3A 1159  18.634   1.224   9.673
   97DOPS   C4A 1160  18.484   1.614   9.433
   97DOPS   C1B 1161  18.854   1.414  10.643
   97DOPS   D2B 1162  18.314   1.524  10.623
   97DOPS   C3B 1163  18.054   1.384  10.283
   97DOPS   C4B 1164  18.204   0.974   9.983
   98DOPS   CNO 1165   9.034   0.464  15.903
   98DOPS   PO4 1166   8.904   0.264  15.603
   98DOPS   GL1 1167   8.964   0.197  15.203
   98DOPS   GL2 1168   8.974   7.704  15.273
   98DOPS   C1A 1169   8.954   0.364  14.793
   98DOPS   D2A 1170   9.114   0.524  14.333
   98DOPS   C3A 1171   9.514   0.764  14.203
   98DOPS   C4A 1172   9.954   0.754  14.023
   98DOPS   C1B 1173   9.144   7.384  14.993
   98DOPS   D2B 1174   9.274   7.024  14.763
   98DOPS   C3B 1175   9.574   6.814  14.543
   98DOPS   C4B 1176   9.694   6.584  14.093
   99DOPS   CNO 1177   4.814   2.394  13.903
   99DOPS   PO4 1178   5.124   2.294  13.673
   99DOPS   GL1 1179   5.164   2.504  13.253
   99DOPS   GL2 1180   5.104   2.274  13.113
   99DOPS   C1A 1181   5.444   2.834  13.033
   99DOPS   D2A 1182   5.654   3.284  13.063
   99DOPS   C3A 1183   5.764   3.274  12.603
   99DOPS   C4A 1184   5.674   3.104  12.133
   99DOPS   C1B 1185   5.234   2.314  12.713
   99DOPS   D2B 1186   5.234   2.494  12.273
   99DOPS   C3B 1187   5.684   2.604  12.153
   99DOPS   C4B 1188   6.114   2.604  11.853
  100DOPS   CNO 1189  19.824   7.794  11.663
  100DOPS   PO4 1190  19.464   7.734  11.843
  100DOPS   GL1 1191  19.104   7.774  11.533
  100DOPS   GL2 1192  18.944   0.007  11.693
  100DOPS   C1A 1193  19.124   7.704  11.153
  100DOPS   D2A 1194  19.214   7.804  10.683
  100DOPS   C3A 1195  18.844   7.804  10.393
  100DOPS   C4A 1196  18.424   7.674  10.203
  100DOPS   C1B 1197  18.594   0.177  11.493
  100DOPS   D2B 1198  18.264   0.234  11.123
  100DOPS   C3B 1199  17.784   0.324  11.043
  100DOPS   C4B 1200  17.504   0.624  10.843
  101DOPC   NC3 1201  20.384   4.554   4.233
  101DOPC   PO4 1202  20.744   4.694   4.363
  101DOPC   GL1 1203  20.914   4.824   4.763
  101DOPC   GL2 1204  20.884   4.484   4.753
  101DOPC   C1A 1205  21.234   4.984   4.963
  101DOPC   D2A 1206  21.724   5.024   5.123
  101DOPC   C3A 1207  21.924   5.154   5.533
  101DOPC   C4A 1208  21.814   4.944   5.973
  101DOPC   C1B 1209  20.774   4.584   5.203
  101DOPC   D2B 1210  20.594   4.814   5.593
  101DOPC   C3B 1211  20.764   5.074   5.933
  101DOPC   C4B 1212  21.044   5.104   6.323
  102DOPC   NC3 1213  12.574   7.524  11.833
  102DOPC   PO4 1214  12.484   7.094  11.753
  102DOPC   GL1 1215  12.364   6.884  12.083
  102DOPC   GL2 1216  12.664   6.774  12.043
  102DOPC   C1A 1217  12.234   6.914  12.483
  102DOPC   D2A 1218  12.424   6.914  12.923
  102DOPC   C3A 1219  12.334   7.014  13.353
  102DOPC   C4A 1220  12.234   7.124  13.823
  102DOPC   C1B 1221  12.764   6.984  12.413
  102DOPC   D2B 1222  12.744   7.264  12.793
  102DOPC   C3B 1223  12.914   7.324  13.223
  102DOPC   C4B 1224  13.084   7.594  13.573
  103DOPC   NC3 1225  12.454   1.024  11.953
  103DOPC   PO4 1226  12.654   1.384  12.003
  103DOPC   GL1 1227  12.854   1.174  12.303
  103DOPC   GL2 1228  12.754   1.414  12.433
  103DOPC   C1A 1229  12.974   0.884  12.583
  103DOPC   D2A 1230  12.894   0.624  13.023
  103DOPC   C3A 1231  13.234   0.844  13.303
  103DOPC   C4A 1232  13.654   0.934  13.483
  103DOPC   C1B 1233  12.884   1.334  12.813
  103DOPC   D2B 1234  13.124   1.384  13.283
  103DOPC   C3B 1235  13.354   1.204  12.993
  103DOPC   C4B 1236  13.784   0.954  12.973
  104DOPC   NC3 1237  25.030   2.714   4.103
  104DOPC   PO4 1238  24.940   3.114   4.153
  104DOPC   GL1 1239  24.790   3.124   4.613
  104DOPC   GL2 1240  24.890   2.844   4.533
  104DOPC   C1A 1241   0.034   3.164   4.933
  104DOPC   D2A 1242   0.484   2.874   4.893
  104DOPC   C3A 1243   0.604   2.934   5.353
  104DOPC   C4A 1244   0.864   3.154   5.733
  104DOPC   C1B 1245  24.670   2.544   4.743
  104DOPC   D2B 1246  24.630   2.414   5.233
  104DOPC   C3B 1247  25.040   2.224   5.343
  104DOPC   C4B 1248   0.384   1.974   5.413
  105DOPC   NC3 1249   7.464   0.047  10.053
  105DOPC   PO4 1250   7.344   0.404  10.193
  105DOPC   GL1 1251   6.964   0.614  10.473
  105DOPC   GL2 1252   6.974   0.364  10.663
  105DOPC   C1A 1253   6.544   0.554  10.393
  105DOPC   D2A 1254   6.264   0.127  10.363
  105DOPC   C3A 1255   5.944   7.674  10.173
  105DOPC   C4A 1256   5.624   7.284  10.133
  105DOPC   C1B 1257   6.724   0.434  11.033
  105DOPC   D2B 1258   6.624   0.664  11.433
  105DOPC   C3B 1259   6.954   0.704  11.773
  105DOPC   C4B 1260   7.114   1.134  12.043
  106DOPC   NC3 1261  18.084   3.374   6.073
  106DOPC   PO4 1262  18.474   3.254   6.013
  106DOPC   GL1 1263  18.574   3.324   6.383
  106DOPC   GL2 1264  18.924   3.404   6.343
  106DOPC   C1A 1265  18.614   3.134   6.823
  106DOPC   D2A 1266  18.694   3.124   7.333
  106DOPC   C3A 1267  18.824   3.024   7.793
  106DOPC   C4A 1268  18.754   3.144   8.313
  106DOPC   C1B 1269  19.224   3.344   6.623
  106DOPC   D2B 1270  19.564   3.384   7.013
  106DOPC   C3B 1271  20.004   3.314   7.233
  106DOPC   C4B 1272  20.424   3.454   7.333
  107DOPC   NC3 1273   6.424   7.624   8.863
  107DOPC   PO4 1274   6.244   0.157   8.843
  107DOPC   GL1 1275   5.904   0.374   8.943
  107DOPC   GL2 1276   5.854   0.097   9.153
  107DOPC   C1A 1277   5.454   0.414   8.933
  107DOPC   D2A 1278   5.024   0.304   9.033
  107DOPC   C3A 1279   5.024   7.674   9.233
  107DOPC   C4A 1280   4.914   7.194   9.333
  107DOPC   C1B 1281   5.504   0.027   9.363
  107DOPC   D2B 1282   5.164   0.027   9.663
  107DOPC   C3B 1283   4.994   7.644  10.113
  107DOPC   C4B 1284   4.674   0.057  10.483
  108DOPC   NC3 1285  18.404   1.994   5.743
  108DOPC   PO4 1286  18.544   1.624   5.633
  108DOPC   GL1 1287  18.924   1.654   5.823
  108DOPC   GL2 1288  18.914   1.874   6.003
  108DOPC   C1A 1289  19.294   1.534   5.923
  108DOPC   D2A 1290  19.694   1.274   6.093
  108DOPC   C3A 1291  19.994   1.184   6.363
  108DOPC   C4A 1292  20.324   1.244   6.713
  108DOPC   C1B 1293  19.244   2.164   6.183
  108DOPC   D2B 1294  19.614   2.134   6.533
  108DOPC   C3B 1295  19.944   1.954   6.853
  108DOPC   C4B 1296  20.214   1.844   7.293
  109DOPC   NC3 1297  12.954   6.594  11.163
  109DOPC   PO4 1298  13.144   6.814  11.493
  109DOPC   GL1 1299  13.084   6.844  11.943
  109DOPC   GL2 1300  13.044   6.564  11.913
  109DOPC   C1A 1301  13.294   6.964  12.403
  109DOPC   D2A 1302  13.374   6.694  12.793
  109DOPC   C3A 1303  13.334   6.674  13.243
  109DOPC   C4A 1304  13.214   6.724  13.673
  109DOPC   C1B 1305  13.084   6.504  12.343
  109DOPC   D2B 1306  13.164   6.204  12.783
  109DOPC   C3B 1307  13.284   5.924  13.193
  109DOPC   C4B 1308  13.284   5.694  13.643
  110DOPC   NC3 1309   9.534   6.304  11.033
  110DOPC   PO4 1310   9.504   6.584  11.253
  110DOPC   GL1 1311   9.174   6.534  11.523
  110DOPC   GL2 1312   9.054   6.384  11.363
  110DOPC   C1A 1313   8.984   6.754  11.833
  110DOPC   D2A 1314   8.634   6.824  12.163
  110DOPC   C3A 1315   8.324   6.544  12.413
  110DOPC   C4A 1316   7.994   6.514  12.793
  110DOPC   C1B 1317   8.724   6.304  11.563
  110DOPC   D2B 1318   8.494   6.304  12.003
  110DOPC   C3B 1319   8.014   6.294  12.093
  110DOPC   C4B 1320   7.714   6.164  12.433
  111DOPC   NC3 1321  16.244   5.324   8.473
  111DOPC   PO4 1322  16.334   4.964   8.453
  111DOPC   GL1 1323  16.574   4.834   8.703
  111DOPC   GL2 1324  16.544   4.914   8.933
  111DOPC   C1A 1325  16.884   4.564   8.763
  111DOPC   D2A 1326  17.364   4.424   8.703
  111DOPC   C3A 1327  17.534   4.734   9.033
  111DOPC   C4A 1328  17.844   4.934   9.383
  111DOPC   C1B 1329  16.914   5.014   9.203
  111DOPC   D2B 1330  17.324   5.014   9.443
  111DOPC   C3B 1331  17.644   5.024   9.843
  111DOPC   C4B 1332  17.914   5.114  10.223
  112DOPC   NC3 1333   1.714   5.514   5.003
  112DOPC   PO4 1334   1.484   5.264   4.753
  112DOPC   GL1 1335   1.224   5.024   5.003
  112DOPC   GL2 1336   1.354   4.874   4.973
  112DOPC   C1A 1337   1.184   4.994   5.523
  112DOPC   D2A 1338   0.994   5.154   5.913
  112DOPC   C3A 1339   0.714   5.464   6.093
  112DOPC   C4A 1340   0.254   5.654   6.193
  112DOPC   C1B 1341   1.584   4.684   5.333
  112DOPC   D2B 1342   1.804   4.364   5.583
  112DOPC   C3B 1343   1.824   4.194   6.023
  112DOPC   C4B 1344   1.874   4.184   6.463
  113DOPC   NC3 1345  15.134   0.007   9.983
  113DOPC   PO4 1346  15.014   7.534  10.093
  113DOPC   GL1 1347  15.344   7.444  10.323
  113DOPC   GL2 1348  15.554   7.654  10.253
  113DOPC   C1A 1349  15.534   7.104  10.483
  113DOPC   D2A 1350  15.694   6.654  10.673
  113DOPC   C3A 1351  16.014   6.654  11.063
  113DOPC   C4A 1352  16.454   6.544  11.293
  113DOPC   C1B 1353  15.844   7.774  10.533
  113DOPC   D2B 1354  16.064   0.264  10.863
  113DOPC   C3B 1355  16.224   0.414  11.293
  113DOPC   C4B 1356  16.504   0.594  11.623
  114DOPC   NC3 1357  18.994   2.254   5.633
  114DOPC   PO4 1358  18.694   2.344   5.903
  114DOPC   GL1 1359  18.944   2.524   6.213
  114DOPC   GL2 1360  19.114   2.584   6.043
  114DOPC   C1A 1361  18.904   2.764   6.573
  114DOPC   D2A 1362  19.104   3.024   6.963
  114DOPC   C3A 1363  19.244   2.904   7.393
  114DOPC   C4A 1364  19.574   2.964   7.763
  114DOPC   C1B 1365  19.384   2.674   6.383
  114DOPC   D2B 1366  19.554   2.784   6.833
  114DOPC   C3B 1367  19.784   2.854   7.273
  114DOPC   C4B 1368  20.174   2.764   7.603
  115DOPC   NC3 1369  20.954   2.354   4.323
  115DOPC   PO4 1370  21.244   2.124   4.183
  115DOPC   GL1 1371  21.314   2.094   4.603
  115DOPC   GL2 1372  21.544   1.974   4.583
  115DOPC   C1A 1373  21.084   1.824   4.903
  115DOPC   D2A 1374  20.824   1.554   5.253
  115DOPC   C3A 1375  20.904   1.224   5.563
  115DOPC   C4A 1376  21.144   0.784   5.753
  115DOPC   C1B 1377  21.484   1.554   4.533
  115DOPC   D2B 1378  21.554   1.084   4.613
  115DOPC   C3B 1379  21.624   0.744   4.963
  115DOPC   C4B 1380  21.884   0.534   5.403
  116DOPC   NC3 1381   0.374   4.404   4.083
  116DOPC   PO4 1382   0.314   4.804   4.123
  116DOPC   GL1 1383   0.224   4.914   4.533
  116DOPC   GL2 1384   0.034   5.114   4.583
  116DOPC   C1A 1385   0.034   4.704   4.833
  116DOPC   D2A 1386  24.670   4.804   5.143
  116DOPC   C3A 1387  24.520   5.244   5.043
  116DOPC   C4A 1388  24.400   5.694   4.873
  116DOPC   C1B 1389  24.620   4.894   4.673
  116DOPC   D2B 1390  24.200   4.644   4.833
  116DOPC   C3B 1391  23.780   4.404   4.733
  116DOPC   C4B 1392  23.314   4.614   4.863
  117DOPC   NC3 1393  15.144   4.494  10.373
  117DOPC   PO4 1394  15.104   4.824  10.163
  117DOPC   GL1 1395  15.494   4.924  10.363
  117DOPC   GL2 1396  15.614   4.784  10.123
  117DOPC   C1A 1397  15.794   5.234  10.583
  117DOPC   D2A 1398  16.054   5.364  10.933
  117DOPC   C3A 1399  16.094   5.724  11.273
  117DOPC   C4A 1400  16.304   5.734  11.713
  117DOPC   C1B 1401  16.034   4.854  10.103
  117DOPC   D2B 1402  16.544   4.884  10.273
  117DOPC   C3B 1403  16.944   4.674  10.193
  117DOPC   C4B 1404  17.234   4.274  10.143
  118DOPC   NC3 1405  13.904   4.814  11.413
  118DOPC   PO4 1406  13.524   4.844  11.613
  118DOPC   GL1 1407  13.494   4.664  12.013
  118DOPC   GL2 1408  13.774   4.754  12.123
  118DOPC   C1A 1409  13.614   4.334  12.213
  118DOPC   D2A 1410  13.774   4.274  12.733
  118DOPC   C3A 1411  13.564   3.954  12.943
  118DOPC   C4A 1412  13.394   3.514  13.123
  118DOPC   C1B 1413  13.684   4.774  12.503
  118DOPC   D2B 1414  13.454   4.834  12.953
  118DOPC   C3B 1415  13.194   4.814  13.333
  118DOPC   C4B 1416  13.014   4.824  13.713
  119DOPC   NC3 1417  19.424   5.454   4.473
  119DOPC   PO4 1418  19.674   5.594   4.713
  119DOPC   GL1 1419  19.894   5.774   5.053
  119DOPC   GL2 1420  19.904   6.004   4.923
  119DOPC   C1A 1421  20.114   5.934   5.413
  119DOPC   D2A 1422  20.524   5.964   5.663
  119DOPC   C3A 1423  20.614   5.974   6.163
  119DOPC   C4A 1424  20.634   5.784   6.623
  119DOPC   C1B 1425  20.284   6.234   5.053
  119DOPC   D2B 1426  20.724   6.194   5.273
  119DOPC   C3B 1427  21.104   6.054   5.543
  119DOPC   C4B 1428  21.544   5.904   5.533
  120DOPC   NC3 1429  20.154   1.554   4.713
  120DOPC   PO4 1430  19.894   1.324   4.823
  120DOPC   GL1 1431  20.104   1.274   5.143
  120DOPC   GL2 1432  20.364   1.424   5.073
  120DOPC   C1A 1433  20.254   1.304   5.533
  120DOPC   D2A 1434  20.584   1.614   5.693
  120DOPC   C3A 1435  20.924   1.774   5.813
  120DOPC   C4A 1436  21.394   1.784   5.783
  120DOPC   C1B 1437  20.634   1.104   5.173
  120DOPC   D2B 1438  21.134   0.944   5.203
  120DOPC   C3B 1439  21.494   0.934   5.433
  120DOPC   C4B 1440  21.924   0.964   5.693
  121DOPC   NC3 1441  20.924   7.004   4.233
  121DOPC   PO4 1442  20.754   7.324   4.233
  121DOPC   GL1 1443  20.714   7.514   4.603
  121DOPC   GL2 1444  20.984   7.444   4.673
  121DOPC   C1A 1445  20.564   7.484   5.003
  121DOPC   D2A 1446  20.654   7.434   5.463
  121DOPC   C3A 1447  20.824   7.614   5.893
  121DOPC   C4A 1448  21.104   0.007   6.293
  121DOPC   C1B 1449  21.084   7.214   5.083
  121DOPC   D2B 1450  21.024   6.954   5.583
  121DOPC   C3B 1451  21.244   6.754   5.933
  121DOPC   C4B 1452  21.564   6.614   6.283
  122DOPC   NC3 1453   2.194   7.754   4.953
  122DOPC   PO4 1454   2.114   0.137   4.703
  122DOPC   GL1 1455   1.684   0.087   4.783
  122DOPC   GL2 1456   1.754   7.714   4.953
  122DOPC   C1A 1457   1.364   0.224   4.973
  122DOPC   D2A 1458   1.214   0.414   5.413
  122DOPC   C3A 1459   0.964   0.354   5.793
  122DOPC   C4A 1460   0.564   0.284   6.073
  122DOPC   C1B 1461   1.654   7.814   5.343
  122DOPC   D2B 1462   1.284   7.814   5.693
  122DOPC   C3B 1463   1.134   0.057   6.143
  122DOPC   C4B 1464   0.884   7.764   6.563
  123DOPC   NC3 1465   0.454   6.944   3.613
  123DOPC   PO4 1466   0.584   7.324   3.543
  123DOPC   GL1 1467   0.414   7.374   3.843
  123DOPC   GL2 1468   0.184   7.214   3.793
  123DOPC   C1A 1469   0.374   7.384   4.283
  123DOPC   D2A 1470   0.244   7.284   4.783
  123DOPC   C3A 1471   0.234   7.384   5.243
  123DOPC   C4A 1472   0.284   7.634   5.663
  123DOPC   C1B 1473  24.900   7.304   4.033
  123DOPC   D2B 1474  24.950   7.574   4.433
  123DOPC   C3B 1475   0.134   7.754   4.793
  123DOPC   C4B 1476   0.494   0.027   5.133
  124DOPC   NC3 1477  24.510   3.294   3.803
  124DOPC   PO4 1478  24.640   3.664   3.733
  124DOPC   GL1 1479  24.530   3.704   4.073
  124DOPC   GL2 1480  24.370   3.924   4.203
  124DOPC   C1A 1481  24.260   3.494   4.233
  124DOPC   D2A 1482  23.900   3.434   4.593
  124DOPC   C3A 1483  24.050   3.304   5.043
  124DOPC   C4A 1484  24.100   3.634   5.423
  124DOPC   C1B 1485  24.190   4.024   4.653
  124DOPC   D2B 1486  23.930   3.904   5.023
  124DOPC   C3B 1487  23.830   4.014   5.493
  124DOPC   C4B 1488  23.920   4.364   5.893
  125DOPC   NC3 1489   9.494   7.484  11.693
  125DOPC   PO4 1490   9.344   0.037  11.623
  125DOPC   GL1 1491   9.014   7.824  11.983
  125DOPC   GL2 1492   9.144   7.564  11.993
  125DOPC   C1A 1493   8.754   0.214  12.313
  125DOPC   D2A 1494   8.504   0.444  12.693
  125DOPC   C3A 1495   8.434   0.364  13.153
  125DOPC   C4A 1496   8.414   7.754  13.343
  125DOPC   C1B 1497   9.204   7.174  12.143
  125DOPC   D2B 1498   9.084   6.814  12.423
  125DOPC   C3B 1499   8.714   6.754  12.623
  125DOPC   C4B 1500   8.424   6.774  12.973
  126DOPC   NC3 1501  18.464   6.884   5.343
  126DOPC   PO4 1502  18.814   7.024   5.253
  126DOPC   GL1 1503  18.984   7.194   5.553
  126DOPC   GL2 1504  19.064   7.444   5.383
  126DOPC   C1A 1505  19.124   7.404   5.923
  126DOPC   D2A 1506  19.184   0.077   5.903
  126DOPC   C3A 1507  19.624   0.314   6.013
  126DOPC   C4A 1508  19.624   0.634   6.423
  126DOPC   C1B 1509  19.444   7.644   5.593
  126DOPC   D2B 1510  19.744   7.594   5.983
  126DOPC   C3B 1511  19.984   7.274   6.203
  126DOPC   C4B 1512  20.344   6.954   6.233
  127DOPC   NC3 1513   4.044   7.824   6.813
  127DOPC   PO4 1514   3.694   0.017   7.023
  127DOPC   GL1 1515   3.504   7.724   7.353
  127DOPC   GL2 1516   3.184   7.734   7.283
  127DOPC   C1A 1517   3.554   7.644   7.733
  127DOPC   D2A 1518   3.334   7.574   8.173
  127DOPC   C3A 1519   3.454   7.464   8.643
  127DOPC   C4A 1520   3.624   7.544   9.093
  127DOPC   C1B 1521   2.944   0.244   7.443
  127DOPC   D2B 1522   2.684   0.544   7.773
  127DOPC   C3B 1523   2.684   0.504   8.243
  127DOPC   C4B 1524   2.784   0.634   8.663
  128DOPC   NC3 1525  21.354   2.594   4.053
  128DOPC   PO4 1526  21.154   2.824   4.293
  128DOPC   GL1 1527  21.234   2.904   4.733
  128DOPC   GL2 1528  21.524   2.934   4.673
  128DOPC   C1A 1529  21.044   3.034   5.113
  128DOPC   D2A 1530  20.964   3.024   5.623
  128DOPC   C3A 1531  21.134   3.344   5.893
  128DOPC   C4A 1532  21.124   3.724   6.213
  128DOPC   C1B 1533  21.684   2.784   4.993
  128DOPC   D2B 1534  21.734   2.674   5.533
  128DOPC   C3B 1535  22.094   2.464   5.713
  128DOPC   C4B 1536  22.454   2.184   5.943
  129DOPC   NC3 1537   3.034   0.087   6.043
  129DOPC   PO4 1538   3.374   7.744   6.153
  129DOPC   GL1 1539   3.134   7.584   6.463
  129DOPC   GL2 1540   3.194   0.007   6.563
  129DOPC   C1A 1541   2.804   7.234   6.573
  129DOPC   D2A 1542   2.504   7.104   6.963
  129DOPC   C3A 1543   2.474   7.394   7.303
  129DOPC   C4A 1544   2.434   7.794   7.573
  129DOPC   C1B 1545   2.794   0.204   6.553
  129DOPC   D2B 1546   2.454   0.494   6.713
  129DOPC   C3B 1547   2.094   0.424   6.853
  129DOPC   C4B 1548   1.614   0.484   6.983
  130DOPC   NC3 1549  10.994   4.884  11.663
  130DOPC   PO4 1550  10.814   4.674  11.923
  130DOPC   GL1 1551  10.774   4.574  12.293
  130DOPC   GL2 1552  10.984   4.684  12.443
  130DOPC   C1A 1553  10.374   4.654  12.483
  130DOPC   D2A 1554  10.104   4.384  12.753
  130DOPC   C3A 1555  10.034   4.194  13.143
  130DOPC   C4A 1556  10.234   4.154  13.553
  130DOPC   C1B 1557  10.764   4.644  12.813
  130DOPC   D2B 1558  10.374   4.754  13.133
  130DOPC   C3B 1559  10.054   4.654  13.503
  130DOPC   C4B 1560   9.694   4.294  13.513
  131DOPC   NC3 1561   6.324   6.494   8.833
  131DOPC   PO4 1562   6.194   6.844   9.033
  131DOPC   GL1 1563   5.974   6.774   9.393
  131DOPC   GL2 1564   5.764   6.954   9.263
  131DOPC   C1A 1565   5.764   6.454   9.623
  131DOPC   D2A 1566   5.684   5.974   9.773
  131DOPC   C3A 1567   5.474   5.834  10.133
  131DOPC   C4A 1568   5.054   5.764  10.473
  131DOPC   C1B 1569   5.524   6.914   9.643
  131DOPC   D2B 1570   5.184   7.204   9.853
  131DOPC   C3B 1571   4.824   7.474   9.713
  131DOPC   C4B 1572   4.574   7.814   9.473
  132DOPC   NC3 1573   9.374   5.364  10.853
  132DOPC   PO4 1574   9.454   5.224  11.223
  132DOPC   GL1 1575   9.254   5.204  11.583
  132DOPC   GL2 1576   9.424   5.054  11.743
  132DOPC   C1A 1577   9.064   5.444  11.883
  132DOPC   D2A 1578   8.854   5.724  12.263
  132DOPC   C3A 1579   8.524   5.564  12.623
  132DOPC   C4A 1580   8.194   5.524  12.963
  132DOPC   C1B 1581   9.414   4.714  12.033
  132DOPC   D2B 1582   9.374   4.464  12.413
  132DOPC   C3B 1583   9.054   4.344  12.623
  132DOPC   C4B 1584   8.834   4.244  13.063
  133DOPC   NC3 1585  16.504   3.714   7.813
  133DOPC   PO4 1586  16.474   3.354   7.863
  133DOPC   GL1 1587  16.824   3.224   7.913
  133DOPC   GL2 1588  16.954   3.524   7.883
  133DOPC   C1A 1589  17.214   3.074   8.143
  133DOPC   D2A 1590  17.554   3.154   8.483
  133DOPC   C3A 1591  17.954   2.974   8.403
  133DOPC   C4A 1592  18.354   2.774   8.263
  133DOPC   C1B 1593  17.354   3.624   8.083
  133DOPC   D2B 1594  17.804   3.854   8.073
  133DOPC   C3B 1595  18.214   3.644   8.073
  133DOPC   C4B 1596  18.324   3.164   7.953
  134DOPC   NC3 1597  15.364   4.864   9.743
  134DOPC   PO4 1598  15.634   5.024   9.513
  134DOPC   GL1 1599  15.974   4.874   9.493
  134DOPC   GL2 1600  16.104   5.094   9.393
  134DOPC   C1A 1601  16.364   4.654   9.673
  134DOPC   D2A 1602  16.744   4.324   9.833
  134DOPC   C3A 1603  17.014   4.044   9.653
  134DOPC   C4A 1604  17.024   3.714   9.263
  134DOPC   C1B 1605  16.494   5.044   9.403
  134DOPC   D2B 1606  16.884   4.794   9.663
  134DOPC   C3B 1607  17.264   4.674   9.833
  134DOPC   C4B 1608  17.664   4.484  10.043
  135DOPC   NC3 1609  12.604   2.294  12.163
  135DOPC   PO4 1610  12.764   2.604  12.323
  135DOPC   GL1 1611  13.134   2.724  12.493
  135DOPC   GL2 1612  13.304   2.534  12.483
  135DOPC   C1A 1613  13.204   2.584  12.943
  135DOPC   D2A 1614  13.524   2.554  13.363
  135DOPC   C3A 1615  13.744   2.654  13.713
  135DOPC   C4A 1616  13.904   2.944  13.993
  135DOPC   C1B 1617  13.714   2.514  12.673
  135DOPC   D2B 1618  14.194   2.424  12.803
  135DOPC   C3B 1619  14.604   2.284  12.993
  135DOPC   C4B 1620  14.994   2.034  12.903
  136DOPC   NC3 1621   2.044   6.314   4.763
  136DOPC   PO4 1622   1.724   6.534   4.803
  136DOPC   GL1 1623   1.494   6.604   5.203
  136DOPC   GL2 1624   1.444   6.274   5.173
  136DOPC   C1A 1625   1.284   6.734   5.553
  136DOPC   D2A 1626   0.974   6.744   5.993
  136DOPC   C3A 1627   0.924   6.944   6.383
  136DOPC   C4A 1628   0.984   7.274   6.693
  136DOPC   C1B 1629   1.484   6.044   5.593
  136DOPC   D2B 1630   1.474   6.044   6.073
  136DOPC   C3B 1631   1.544   5.614   6.183
  136DOPC   C4B 1632   1.464   5.134   6.213
  137DOPC   NC3 1633   3.894   2.114   6.633
  137DOPC   PO4 1634   4.014   1.754   6.743
  137DOPC   GL1 1635   3.884   1.514   6.983
  137DOPC   GL2 1636   3.704   1.364   6.813
  137DOPC   C1A 1637   3.764   1.574   7.413
  137DOPC   D2A 1638   3.254   1.594   7.683
  137DOPC   C3A 1639   2.924   1.384   7.943
  137DOPC   C4A 1640   2.494   1.344   8.293
  137DOPC   C1B 1641   3.414   1.324   7.073
  137DOPC   D2B 1642   3.004   1.314   7.373
  137DOPC   C3B 1643   2.634   1.004   7.373
  137DOPC   C4B 1644   2.164   1.034   7.573
  138DOPC   NC3 1645  13.164   7.034  11.083
  138DOPC   PO4 1646  13.544   6.924  11.203
  138DOPC   GL1 1647  13.674   6.934  11.683
  138DOPC   GL2 1648  13.534   6.734  11.643
  138DOPC   C1A 1649  13.934   6.964  12.043
  138DOPC   D2A 1650  14.104   7.074  12.513
  138DOPC   C3A 1651  14.434   6.774  12.813
  138DOPC   C4A 1652  14.664   6.744  13.253
  138DOPC   C1B 1653  13.534   6.564  12.053
  138DOPC   D2B 1654  13.724   6.684  12.503
  138DOPC   C3B 1655  14.004   6.514  12.933
  138DOPC   C4B 1656  14.384   6.244  13.093
  139DOPC   NC3 1657  11.734   1.094  12.243
  139DOPC   PO4 1658  11.604   0.814  12.033
  139DOPC   GL1 1659  11.574   0.654  12.423
  139DOPC   GL2 1660  11.534   0.874  12.563
  139DOPC   C1A 1661  11.434   0.404  12.743
  139DOPC   D2A 1662  11.544   0.374  13.253
  139DOPC   C3A 1663  11.554   7.784  13.523
  139DOPC   C4A 1664  11.354   7.564  13.893
  139DOPC   C1B 1665  11.594   0.794  12.953
  139DOPC   D2B 1666  11.684   0.864  13.443
  139DOPC   C3B 1667  11.624   0.434  13.743
  139DOPC   C4B 1668  11.184   0.304  13.983
  140DOPC   NC3 1669  12.554   4.044  12.063
  140DOPC   PO4 1670  12.244   3.794  12.183
  140DOPC   GL1 1671  12.204   3.594  12.513
  140DOPC   GL2 1672  12.334   3.374  12.473
  140DOPC   C1A 1673  11.984   3.784  12.933
  140DOPC   D2A 1674  11.834   4.054  13.333
  140DOPC   C3A 1675  11.944   4.234  13.773
  140DOPC   C4A 1676  12.144   4.684  13.843
  140DOPC   C1B 1677  12.644   3.224  12.703
  140DOPC   D2B 1678  12.804   2.934  13.143
  140DOPC   C3B 1679  12.814   2.764  13.623
  140DOPC   C4B 1680  12.904   2.794  14.083
  141DOPC   NC3 1681  17.894   4.994   6.363
  141DOPC   PO4 1682  18.034   4.974   6.763
  141DOPC   GL1 1683  18.424   5.034   6.873
  141DOPC   GL2 1684  18.424   5.014   7.213
  141DOPC   C1A 1685  18.864   5.054   6.693
  141DOPC   D2A 1686  19.344   5.204   6.713
  141DOPC   C3A 1687  19.794   5.354   6.843
  141DOPC   C4A 1688  19.974   5.744   7.123
  141DOPC   C1B 1689  18.834   5.234   7.233
  141DOPC   D2B 1690  19.344   5.304   7.223
  141DOPC   C3B 1691  19.824   5.384   7.343
  141DOPC   C4B 1692  20.214   5.714   7.523
  142DOPC   NC3 1693   9.054   1.484  11.233
  142DOPC   PO4 1694   8.814   1.614  11.553
  142DOPC   GL1 1695   8.694   1.884  11.763
  142DOPC   GL2 1696   9.054   1.964  11.763
  142DOPC   C1A 1697   8.374   2.104  12.003
  142DOPC   D2A 1698   8.114   2.504  12.173
  142DOPC   C3A 1699   7.874   2.824  12.363
  142DOPC   C4A 1700   7.574   2.934  12.723
  142DOPC   C1B 1701   9.094   2.174  12.183
  142DOPC   D2B 1702   9.264   2.094  12.663
  142DOPC   C3B 1703   9.494   2.384  12.923
  142DOPC   C4B 1704   9.694   2.564  13.313
  143DOPC   NC3 1705   5.004   4.574   7.783
  143DOPC   PO4 1706   4.904   4.174   7.783
  143DOPC   GL1 1707   4.704   4.054   8.083
  143DOPC   GL2 1708   4.674   3.774   8.073
  143DOPC   C1A 1709   4.304   4.094   8.303
  143DOPC   D2A 1710   4.064   4.374   8.553
  143DOPC   C3A 1711   3.554   4.464   8.643
  143DOPC   C4A 1712   3.084   4.694   8.793
  143DOPC   C1B 1713   4.624   3.744   8.503
  143DOPC   D2B 1714   4.414   3.604   8.953
  143DOPC   C3B 1715   4.094   3.744   9.253
  143DOPC   C4B 1716   3.704   3.924   9.483
  144DOPC   NC3 1717  13.734   1.534  11.603
  144DOPC   PO4 1718  13.614   1.764  11.913
  144DOPC   GL1 1719  13.564   1.764  12.363
  144DOPC   GL2 1720  13.804   1.784  12.323
  144DOPC   C1A 1721  13.444   1.644  12.773
  144DOPC   D2A 1722  13.614   1.614  13.243
  144DOPC   C3A 1723  13.944   1.404  13.523
  144DOPC   C4A 1724  14.194   1.024  13.733
  144DOPC   C1B 1725  13.894   1.864  12.773
  144DOPC   D2B 1726  14.094   1.864  13.213
  144DOPC   C3B 1727  14.384   1.524  13.213
  144DOPC   C4B 1728  14.604   1.224  12.873
  145DOPC   NC3 1729  15.184   5.784   9.913
  145DOPC   PO4 1730  14.884   5.814  10.113
  145DOPC   GL1 1731  15.064   5.874  10.503
  145DOPC   GL2 1732  15.114   6.104  10.273
  145DOPC   C1A 1733  15.404   5.984  10.763
  145DOPC   D2A 1734  15.644   6.284  11.063
  145DOPC   C3A 1735  15.844   6.234  11.503
  145DOPC   C4A 1736  16.164   6.214  11.833
  145DOPC   C1B 1737  15.564   6.204  10.343
  145DOPC   D2B 1738  15.954   6.274  10.663
  145DOPC   C3B 1739  16.134   6.174  11.103
  145DOPC   C4B 1740  16.474   6.094  11.453
  146DOPC   NC3 1741   8.564   2.484  10.463
  146DOPC   PO4 1742   8.394   2.644  10.783
  146DOPC   GL1 1743   8.144   2.554  11.013
  146DOPC   GL2 1744   7.904   2.494  10.923
  146DOPC   C1A 1745   8.154   2.274  11.253
  146DOPC   D2A 1746   8.004   1.954  11.693
  146DOPC   C3A 1747   7.834   1.834  12.083
  146DOPC   C4A 1748   7.594   1.614  12.453
  146DOPC   C1B 1749   7.724   2.664  11.273
  146DOPC   D2B 1750   7.564   2.714  11.723
  146DOPC   C3B 1751   7.284   2.524  12.073
  146DOPC   C4B 1752   6.914   2.554  12.443
  147DOPC   NC3 1753   5.324   2.634   7.823
  147DOPC   PO4 1754   5.574   2.824   8.073
  147DOPC   GL1 1755   5.404   3.004   8.453
  147DOPC   GL2 1756   5.594   2.914   8.603
  147DOPC   C1A 1757   5.094   2.954   8.763
  147DOPC   D2A 1758   4.984   2.954   9.283
  147DOPC   C3A 1759   4.594   3.024   9.363
  147DOPC   C4A 1760   4.494   3.104   9.903
  147DOPC   C1B 1761   5.594   2.914   9.073
  147DOPC   D2B 1762   5.634   2.704   9.533
  147DOPC   C3B 1763   5.494   2.774   9.933
  147DOPC   C4B 1764   5.454   2.794  10.433
  148DOPC   NC3 1765   9.944   3.784  11.983
  148DOPC   PO4 1766  10.334   3.764  11.933
  148DOPC   GL1 1767  10.484   3.594  12.293
  148DOPC   GL2 1768  10.244   3.454  12.313
  148DOPC   C1A 1769  10.444   3.764  12.703
  148DOPC   D2A 1770  10.294   3.734  13.113
  148DOPC   C3A 1771  10.174   3.364  13.383
  148DOPC   C4A 1772   9.874   3.134  13.743
  148DOPC   C1B 1773   9.894   3.724  12.593
  148DOPC   D2B 1774   9.654   4.084  12.783
  148DOPC   C3B 1775   9.364   4.374  13.033
  148DOPC   C4B 1776   8.994   4.634  13.303
  149DOPC   NC3 1777  20.244   5.864   3.983
  149DOPC   PO4 1778  20.374   5.554   4.223
  149DOPC   GL1 1779  20.744   5.614   4.413
  149DOPC   GL2 1780  20.604   5.774   4.683
  149DOPC   C1A 1781  21.064   5.534   4.673
  149DOPC   D2A 1782  21.444   5.664   5.003
  149DOPC   C3A 1783  21.514   5.434   5.403
  149DOPC   C4A 1784  21.364   5.264   5.893
  149DOPC   C1B 1785  20.434   5.654   5.123
  149DOPC   D2B 1786  20.204   5.444   5.503
  149DOPC   C3B 1787  20.254   5.084   5.793
  149DOPC   C4B 1788  20.264   4.804   6.173
  150DOPC   NC3 1789   5.774   1.364   9.263
  150DOPC   PO4 1790   5.954   1.004   9.363
  150DOPC   GL1 1791   5.684   0.844   9.603
  150DOPC   GL2 1792   5.894   0.824   9.803
  150DOPC   C1A 1793   5.324   1.064   9.793
  150DOPC   D2A 1794   5.224   1.374  10.143
  150DOPC   C3A 1795   5.284   1.344  10.563
  150DOPC   C4A 1796   5.444   1.324  11.043
  150DOPC   C1B 1797   5.954   0.434  10.103
  150DOPC   D2B 1798   5.854   0.214  10.573
  150DOPC   C3B 1799   5.534   0.314  10.803
  150DOPC   C4B 1800   5.234   0.324  11.093
  151DOPC   NC3 1801   5.204   6.954   7.143
  151DOPC   PO4 1802   5.184   6.664   7.413
  151DOPC   GL1 1803   4.934   6.684   7.683
  151DOPC   GL2 1804   4.654   6.524   7.573
  151DOPC   C1A 1805   4.844   7.024   7.993
  151DOPC   D2A 1806   4.604   7.154   8.373
  151DOPC   C3A 1807   4.344   7.014   8.693
  151DOPC   C4A 1808   4.264   6.964   9.223
  151DOPC   C1B 1809   4.364   6.574   7.973
  151DOPC   D2B 1810   4.104   6.644   8.463
  151DOPC   C3B 1811   3.934   6.604   8.903
  151DOPC   C4B 1812   3.724   6.364   9.283
  152DOPC   NC3 1813  11.204   2.584  12.133
  152DOPC   PO4 1814  11.284   2.964  12.163
  152DOPC   GL1 1815  11.414   3.124  12.553
  152DOPC   GL2 1816  11.104   3.114  12.593
  152DOPC   C1A 1817  11.584   3.204  12.953
  152DOPC   D2A 1818  11.914   3.374  13.263
  152DOPC   C3A 1819  11.694   3.594  13.573
  152DOPC   C4A 1820  11.384   3.414  13.903
  152DOPC   C1B 1821  11.104   3.214  13.013
  152DOPC   D2B 1822  11.404   3.194  13.423
  152DOPC   C3B 1823  11.424   2.804  13.633
  152DOPC   C4B 1824  11.324   2.484  13.963
  153DOPC   NC3 1825  14.464   2.034  10.963
  153DOPC   PO4 1826  14.804   1.954  10.763
  153DOPC   GL1 1827  14.974   2.114  11.173
  153DOPC   GL2 1828  15.164   2.224  10.953
  153DOPC   C1A 1829  15.304   2.204  11.463
  153DOPC   D2A 1830  15.654   1.934  11.703
  153DOPC   C3A 1831  15.434   1.464  11.663
  153DOPC   C4A 1832  15.304   1.074  11.273
  153DOPC   C1B 1833  15.594   2.084  11.123
  153DOPC   D2B 1834  16.024   2.134  11.403
  153DOPC   C3B 1835  16.234   1.804  11.683
  153DOPC   C4B 1836  16.334   1.474  12.053
  154DOPC   NC3 1837   0.464   2.204   3.673
  154DOPC   PO4 1838   0.514   2.464   4.003
  154DOPC   GL1 1839   0.524   2.274   4.333
  154DOPC   GL2 1840   0.574   2.524   4.533
  154DOPC   C1A 1841   0.284   1.964   4.513
  154DOPC   D2A 1842  24.920   1.664   4.643
  154DOPC   C3A 1843  24.660   1.534   5.033
  154DOPC   C4A 1844  24.580   1.434   5.503
  154DOPC   C1B 1845   0.434   2.404   4.953
  154DOPC   D2B 1846   0.384   2.504   5.443
  154DOPC   C3B 1847   0.324   2.894   5.763
  154DOPC   C4B 1848   0.134   2.974   6.203
  155DOPC   NC3 1849  24.640   0.464   3.753
  155DOPC   PO4 1850  24.330   0.754   3.743
  155DOPC   GL1 1851  24.160   0.714   4.093
  155DOPC   GL2 1852  24.470   0.494   4.163
  155DOPC   C1A 1853  23.820   0.754   4.353
  155DOPC   D2A 1854  23.544   0.864   4.783
  155DOPC   C3A 1855  23.304   0.834   5.133
  155DOPC   C4A 1856  23.014   0.594   5.473
  155DOPC   C1B 1857  24.450   0.474   4.583
  155DOPC   D2B 1858  24.520   0.714   4.983
  155DOPC   C3B 1859  24.370   0.794   5.403
  155DOPC   C4B 1860  24.460   1.034   5.793
  156DOPC   NC3 1861   9.384   0.574  11.513
  156DOPC   PO4 1862   9.454   0.964  11.403
  156DOPC   GL1 1863   9.504   1.134  11.823
  156DOPC   GL2 1864   9.274   0.934  11.943
  156DOPC   C1A 1865   9.454   1.284  12.263
  156DOPC   D2A 1866   9.374   0.964  12.623
  156DOPC   C3A 1867   9.544   1.084  13.093
  156DOPC   C4A 1868   9.764   1.474  13.183
  156DOPC   C1B 1869   8.974   1.144  12.243
  156DOPC   D2B 1870   8.674   1.344  12.593
  156DOPC   C3B 1871   8.774   1.664  12.933
  156DOPC   C4B 1872   8.964   1.644  13.433
  157DOPC   NC3 1873  17.854   3.964   6.593
  157DOPC   PO4 1874  17.804   3.544   6.483
  157DOPC   GL1 1875  18.054   3.404   6.803
  157DOPC   GL2 1876  18.234   3.654   6.793
  157DOPC   C1A 1877  18.184   2.974   6.983
  157DOPC   D2A 1878  18.244   2.464   7.143
  157DOPC   C3A 1879  18.484   2.124   7.463
  157DOPC   C4A 1880  18.604   1.994   7.913
  157DOPC   C1B 1881  18.554   3.644   7.153
  157DOPC   D2B 1882  18.914   3.834   7.413
  157DOPC   C3B 1883  19.254   3.844   7.673
  157DOPC   C4B 1884  19.684   3.954   7.853
  158DOPC   NC3 1885  16.104   0.167   8.533
  158DOPC   PO4 1886  16.274   0.027   8.863
  158DOPC   GL1 1887  16.714   7.794   9.083
  158DOPC   GL2 1888  16.564   7.704   9.263
  158DOPC   C1A 1889  17.024   0.107   9.323
  158DOPC   D2A 1890  17.314   0.097   9.723
  158DOPC   C3A 1891  17.224   0.214  10.133
  158DOPC   C4A 1892  17.004   0.334  10.593
  158DOPC   C1B 1893  16.554   0.077   9.683
  158DOPC   D2B 1894  16.744   0.127  10.123
  158DOPC   C3B 1895  16.634   0.047  10.593
  158DOPC   C4B 1896  16.544   0.017  11.043
  159DOPC   NC3 1897  17.114   3.864   7.263
  159DOPC   PO4 1898  17.254   4.204   7.143
  159DOPC   GL1 1899  17.674   4.134   7.343
  159DOPC   GL2 1900  17.644   4.344   7.463
  159DOPC   C1A 1901  18.084   4.104   7.103
  159DOPC   D2A 1902  18.564   4.194   7.323
  159DOPC   C3A 1903  18.894   4.314   7.603
  159DOPC   C4A 1904  19.304   4.334   7.803
  159DOPC   C1B 1905  17.874   4.264   7.823
  159DOPC   D2B 1906  18.214   4.134   8.153
  159DOPC   C3B 1907  18.614   4.094   8.363
  159DOPC   C4B 1908  18.974   4.024   8.653
  160DOPC   NC3 1909   2.914   3.634   5.883
  160DOPC   PO4 1910   2.544   3.804   5.783
  160DOPC   GL1 1911   2.294   3.884   6.073
  160DOPC   GL2 1912   2.514   3.944   6.273
  160DOPC   C1A 1913   1.934   3.654   6.193
  160DOPC   D2A 1914   1.574   3.434   6.463
  160DOPC   C3A 1915   1.094   3.384   6.613
  160DOPC   C4A 1916   0.684   3.324   6.733
  160DOPC   C1B 1917   2.304   3.944   6.683
  160DOPC   D2B 1918   2.004   3.944   7.013
  160DOPC   C3B 1919   1.584   4.054   6.973
  160DOPC   C4B 1920   1.144   4.114   7.183
  161DOPC   NC3 1921  10.714   5.114  12.503
  161DOPC   PO4 1922  10.994   5.394  12.493
  161DOPC   GL1 1923  10.954   5.514  12.913
  161DOPC   GL2 1924  10.664   5.584  12.753
  161DOPC   C1A 1925  10.914   5.794  13.223
  161DOPC   D2A 1926  11.014   6.014  13.643
  161DOPC   C3A 1927  10.744   6.074  13.933
  161DOPC   C4A 1928  10.424   6.244  14.333
  161DOPC   C1B 1929  10.484   5.924  13.043
  161DOPC   D2B 1930  10.474   5.944  13.513
  161DOPC   C3B 1931  10.124   6.034  13.673
  161DOPC   C4B 1932   9.754   6.354  13.573
  162DOPC   NC3 1933  16.944   0.894   7.493
  162DOPC   PO4 1934  16.914   0.974   7.873
  162DOPC   GL1 1935  17.194   0.764   8.133
  162DOPC   GL2 1936  17.354   0.814   7.823
  162DOPC   C1A 1937  17.524   0.594   8.443
  162DOPC   D2A 1938  17.854   0.534   8.823
  162DOPC   C3A 1939  18.294   0.764   8.843
  162DOPC   C4A 1940  18.554   1.174   8.693
  162DOPC   C1B 1941  17.574   1.204   7.823
  162DOPC   D2B 1942  17.914   1.564   7.833
  162DOPC   C3B 1943  18.364   1.564   7.703
  162DOPC   C4B 1944  18.884   1.474   7.493
  163DOPC   NC3 1945  16.294   7.104   7.613
  163DOPC   PO4 1946  16.584   7.404   7.513
  163DOPC   GL1 1947  16.954   7.424   7.603
  163DOPC   GL2 1948  17.114   7.214   7.523
  163DOPC   C1A 1949  17.274   7.534   7.903
  163DOPC   D2A 1950  17.574   7.304   8.223
  163DOPC   C3A 1951  17.564   7.334   8.693
  163DOPC   C4A 1952  17.394   7.184   9.103
  163DOPC   C1B 1953  17.564   7.204   7.593
  163DOPC   D2B 1954  17.934   7.334   7.723
  163DOPC   C3B 1955  18.384   7.094   7.583
  163DOPC   C4B 1956  18.854   7.054   7.673
  164DOPC   NC3 1957   6.044   4.754   8.513
  164DOPC   PO4 1958   5.974   4.374   8.683
  164DOPC   GL1 1959   5.694   4.334   9.083
  164DOPC   GL2 1960   5.774   4.604   9.163
  164DOPC   C1A 1961   5.254   4.284   9.123
  164DOPC   D2A 1962   4.724   4.404   9.243
  164DOPC   C3A 1963   4.474   4.394   9.683
  164DOPC   C4A 1964   4.624   4.374  10.093
  164DOPC   C1B 1965   5.614   4.554   9.493
  164DOPC   D2B 1966   5.174   4.664   9.463
  164DOPC   C3B 1967   4.854   4.684   9.763
  164DOPC   C4B 1968   4.414   4.894   9.923
  165DOPC   NC3 1969  21.154   3.834   4.563
  165DOPC   PO4 1970  21.254   4.204   4.673
  165DOPC   GL1 1971  21.634   4.314   4.873
  165DOPC   GL2 1972  21.444   4.544   4.973
  165DOPC   C1A 1973  21.674   4.014   5.133
  165DOPC   D2A 1974  21.444   3.714   5.513
  165DOPC   C3A 1975  21.714   3.894   5.973
  165DOPC   C4A 1976  21.924   3.844   6.443
  165DOPC   C1B 1977  21.854   4.544   5.233
  165DOPC   D2B 1978  22.084   4.694   5.673
  165DOPC   C3B 1979  22.384   5.034   5.893
  165DOPC   C4B 1980  22.664   5.304   6.143
  166DOPC   NC3 1981  11.454   0.314  12.083
  166DOPC   PO4 1982  11.774   0.157  12.213
  166DOPC   GL1 1983  11.834   0.157  12.663
  166DOPC   GL2 1984  12.154   0.224  12.633
  166DOPC   C1A 1985  11.874   7.744  13.093
  166DOPC   D2A 1986  12.044   7.494  13.503
  166DOPC   C3A 1987  11.904   7.754  13.883
  166DOPC   C4A 1988  11.634   0.167  14.193
  166DOPC   C1B 1989  12.344   0.087  13.003
  166DOPC   D2B 1990  12.504   0.157  13.483
  166DOPC   C3B 1991  12.774   0.077  13.803
  166DOPC   C4B 1992  13.224   0.017  14.033
  167DOPC   NC3 1993  15.654   2.904   9.883
  167DOPC   PO4 1994  15.824   2.654   9.663
  167DOPC   GL1 1995  16.244   2.624   9.673
  167DOPC   GL2 1996  16.324   2.334   9.683
  167DOPC   C1A 1997  16.704   2.664   9.683
  167DOPC   D2A 1998  17.234   2.844   9.823
  167DOPC   C3A 1999  17.604   3.134   9.653
  167DOPC   C4A 2000  18.004   3.424   9.543
  167DOPC   C1B 2001  16.754   2.184   9.743
  167DOPC   D2B 2002  17.184   1.954   9.933
  167DOPC   C3B 2003  17.354   1.614  10.203
  167DOPC   C4B 2004  17.304   1.174  10.393
  168DOPC   NC3 2005   9.024   6.794  11.053
  168DOPC   PO4 2006   8.874   7.144  11.123
  168DOPC   GL1 2007   8.804   6.994  11.493
  168DOPC   GL2 2008   8.774   6.714  11.403
  168DOPC   C1A 2009   8.824   7.304  11.783
  168DOPC   D2A 2010   8.654   7.584  12.163
  168DOPC   C3A 2011   8.494   7.714  12.603
  168DOPC   C4A 2012   8.734   7.754  12.973
  168DOPC   C1B 2013   8.434   6.684  11.663
  168DOPC   D2B 2014   8.104   6.774  11.993
  168DOPC   C3B 2015   7.794   6.694  12.353
  168DOPC   C4B 2016   7.424   6.524  12.673
  169DOPC   NC3 2017  18.984   4.614   5.803
  169DOPC   PO4 2018  18.654   4.514   5.983
  169DOPC   GL1 2019  18.954   4.474   6.263
  169DOPC   GL2 2020  18.984   4.804   6.283
  169DOPC   C1A 2021  18.834   4.484   6.673
  169DOPC   D2A 2022  18.614   4.634   7.103
  169DOPC   C3A 2023  18.664   4.764   7.533
  169DOPC   C4A 2024  18.924   4.854   7.883
  169DOPC   C1B 2025  19.314   5.044   6.263
  169DOPC   D2B 2026  19.654   5.434   6.323
  169DOPC   C3B 2027  20.114   5.324   6.213
  169DOPC   C4B 2028  20.474   5.194   6.413
  170DOPC   NC3 2029  23.810   2.264   3.763
  170DOPC   PO4 2030  24.120   2.014   3.683
  170DOPC   GL1 2031  24.080   1.884   4.093
  170DOPC   GL2 2032  24.390   1.964   4.183
  170DOPC   C1A 2033  23.890   1.864   4.463
  170DOPC   D2A 2034  23.564   1.704   4.763
  170DOPC   C3A 2035  23.364   1.254   4.633
  170DOPC   C4A 2036  23.304   0.894   4.343
  170DOPC   C1B 2037  24.280   2.174   4.533
  170DOPC   D2B 2038  23.880   2.214   4.903
  170DOPC   C3B 2039  23.680   1.984   5.193
  170DOPC   C4B 2040  23.730   1.564   5.523
  171DOPC   NC3 2041   7.464   3.064   9.933
  171DOPC   PO4 2042   7.714   3.354   9.903
  171DOPC   GL1 2043   7.434   3.454  10.223
  171DOPC   GL2 2044   7.664   3.554  10.433
  171DOPC   C1A 2045   7.094   3.684  10.193
  171DOPC   D2A 2046   6.634   3.944  10.103
  171DOPC   C3A 2047   6.294   4.204  10.253
  171DOPC   C4A 2048   6.144   4.664  10.293
  171DOPC   C1B 2049   7.364   3.744  10.743
  171DOPC   D2B 2050   6.904   3.814  10.953
  171DOPC   C3B 2051   6.434   3.814  11.043
  171DOPC   C4B 2052   6.054   4.074  11.213
  172DOPC   NC3 2053   2.774   7.044   5.683
  172DOPC   PO4 2054   2.944   7.384   5.563
  172DOPC   GL1 2055   2.624   7.524   5.783
  172DOPC   GL2 2056   2.424   7.384   5.693
  172DOPC   C1A 2057   2.624   7.584   6.223
  172DOPC   D2A 2058   2.344   7.494   6.683
  172DOPC   C3A 2059   1.984   7.764   6.853
  172DOPC   C4A 2060   1.604   0.067   7.223
  172DOPC   C1B 2061   2.114   7.364   5.903
  172DOPC   D2B 2062   1.844   7.484   6.353
  172DOPC   C3B 2063   1.434   7.514   6.633
  172DOPC   C4B 2064   1.114   7.614   7.043
  173DOPC   NC3 2065  21.644   7.484   3.673
  173DOPC   PO4 2066  21.454   7.754   3.843
  173DOPC   GL1 2067  21.654   0.017   4.253
  173DOPC   GL2 2068  21.844   7.604   4.193
  173DOPC   C1A 2069  21.604   7.794   4.663
  173DOPC   D2A 2070  21.394   7.654   5.153
  173DOPC   C3A 2071  21.314   7.364   5.503
  173DOPC   C4A 2072  21.314   7.324   6.003
  173DOPC   C1B 2073  21.944   7.384   4.553
  173DOPC   D2B 2074  22.304   7.254   4.883
  173DOPC   C3B 2075  22.494   7.474   5.273
  173DOPC   C4B 2076  22.314   7.584   5.733
  174DOPC   NC3 2077   3.274   1.464   5.553
  174DOPC   PO4 2078   3.194   1.114   5.623
  174DOPC   GL1 2079   3.014   1.204   6.033
  174DOPC   GL2 2080   2.894   1.464   5.873
  174DOPC   C1A 2081   2.694   1.244   6.333
  174DOPC   D2A 2082   2.314   1.354   6.603
  174DOPC   C3A 2083   2.004   1.504   6.863
  174DOPC   C4A 2084   1.534   1.764   6.953
  174DOPC   C1B 2085   2.464   1.424   5.953
  174DOPC   D2B 2086   1.984   1.364   5.753
  174DOPC   C3B 2087   1.654   1.664   5.773
  174DOPC   C4B 2088   1.584   2.064   5.553
  175DOPC   NC3 2089  11.314   5.774  12.483
  175DOPC   PO4 2090  11.464   6.104  12.253
  175DOPC   GL1 2091  11.694   6.464  12.353
  175DOPC   GL2 2092  11.544   6.424  12.613
  175DOPC   C1A 2093  12.094   6.404  12.653
  175DOPC   D2A 2094  12.474   6.364  12.993
  175DOPC   C3A 2095  12.844   6.274  13.253
  175DOPC   C4A 2096  13.184   6.164  13.633
  175DOPC   C1B 2097  11.704   6.314  12.993
  175DOPC   D2B 2098  12.004   6.174  13.343
  175DOPC   C3B 2099  12.134   6.224  13.773
  175DOPC   C4B 2100  12.164   6.254  14.223
  176DOPS   CNO 2101  22.784   0.434   3.243
  176DOPS   PO4 2102  23.084   0.494   3.483
  176DOPS   GL1 2103  22.994   0.484   3.933
  176DOPS   GL2 2104  23.124   0.224   3.913
  176DOPS   C1A 2105  22.834   0.564   4.363
  176DOPS   D2A 2106  22.564   0.364   4.753
  176DOPS   C3A 2107  22.534   0.494   5.273
  176DOPS   C4A 2108  22.424   0.784   5.613
  176DOPS   C1B 2109  23.134   0.197   4.303
  176DOPS   D2B 2110  23.424   7.814   4.643
  176DOPS   C3B 2111  23.680   7.754   4.883
  176DOPS   C4B 2112  23.730   7.784   5.383
  177DOPS   CNO 2113  17.284   1.244   7.193
  177DOPS   PO4 2114  17.114   0.924   7.053
  177DOPS   GL1 2115  17.404   0.764   7.413
  177DOPS   GL2 2116  17.574   0.954   7.373
  177DOPS   C1A 2117  17.684   0.404   7.393
  177DOPS   D2A 2118  18.064   0.007   7.423
  177DOPS   C3A 2119  18.094   7.434   7.233
  177DOPS   C4A 2120  18.204   7.014   7.123
  177DOPS   C1B 2121  17.814   0.794   7.663
  177DOPS   D2B 2122  17.624   0.374   7.903
  177DOPS   C3B 2123  17.204   0.197   8.023
  177DOPS   C4B 2124  16.864   0.007   8.223
  178DOPS   CNO 2125  16.014   2.424   7.753
  178DOPS   PO4 2126  16.224   2.654   7.933
  178DOPS   GL1 2127  16.564   2.884   7.843
  178DOPS   GL2 2128  16.484   2.994   8.143
  178DOPS   C1A 2129  16.904   2.774   7.933
  178DOPS   D2A 2130  17.194   2.434   7.813
  178DOPS   C3A 2131  17.484   2.114   8.013
  178DOPS   C4A 2132  17.854   1.894   8.273
  178DOPS   C1B 2133  16.794   3.084   8.433
  178DOPS   D2B 2134  17.154   3.464   8.533
  178DOPS   C3B 2135  17.434   3.724   8.783
  178DOPS   C4B 2136  17.894   3.704   9.003
  179DOPS   CNO 2137   6.674   1.494   9.093
  179DOPS   PO4 2138   6.304   1.424   9.213
  179DOPS   GL1 2139   6.174   1.414   9.583
  179DOPS   GL2 2140   6.054   1.224   9.733
  179DOPS   C1A 2141   6.194   1.744   9.883
  179DOPS   D2A 2142   6.004   2.014  10.253
  179DOPS   C3A 2143   6.114   1.964  10.733
  179DOPS   C4A 2144   6.284   1.824  11.173
  179DOPS   C1B 2145   5.794   1.404  10.033
  179DOPS   D2B 2146   5.544   1.784  10.243
  179DOPS   C3B 2147   5.154   1.984  10.503
  179DOPS   C4B 2148   4.654   1.904  10.523
  180DOPS   CNO 2149  15.814   0.694   8.603
  180DOPS   PO4 2150  16.174   0.704   8.453
  180DOPS   GL1 2151  16.544   0.764   8.683
  180DOPS   GL2 2152  16.504   0.494   8.803
  180DOPS   C1A 2153  16.884   0.974   8.903
  180DOPS   D2A 2154  17.284   1.024   9.203
  180DOPS   C3A 2155  17.514   1.064   9.563
  180DOPS   C4A 2156  17.664   1.134   9.983
  180DOPS   C1B 2157  16.854   0.524   9.113
  180DOPS   D2B 2158  17.164   0.514   9.493
  180DOPS   C3B 2159  17.454   0.634   9.793
  180DOPS   C4B 2160  17.794   0.594  10.093
  181DOPS   CNO 2161  10.734   1.694  11.933
  181DOPS   PO4 2162  10.544   1.954  12.153
  181DOPS   GL1 2163  10.574   1.854  12.633
  181DOPS   GL2 2164  10.834   1.964  12.533
  181DOPS   C1A 2165  10.624   1.684  13.063
  181DOPS   D2A 2166  10.614   1.534  13.493
  181DOPS   C3A 2167  10.554   1.484  13.953
  181DOPS   C4A 2168  10.424   1.504  14.423
  181DOPS   C1B 2169  11.114   1.694  12.763
  181DOPS   D2B 2170  11.214   1.674  13.273
  181DOPS   C3B 2171  11.164   1.684  13.703
  181DOPS   C4B 2172  11.304   1.784  14.143
  182DOPS   CNO 2173  18.854   5.904   5.633
  182DOPS   PO4 2174  18.664   6.264   5.683
  182DOPS   GL1 2175  18.924   6.374   5.983
  182DOPS   GL2 2176  18.794   6.644   6.073
  182DOPS   C1A 2177  19.294   6.424   6.103
  182DOPS   D2A 2178  19.664   6.224   6.383
  182DOPS   C3A 2179  19.624   6.004   6.773
  182DOPS   C4A 2180  19.484   5.894   7.303
  182DOPS   C1B 2181  19.064   6.844   6.273
  182DOPS   D2B 2182  19.174   7.084   6.673
  182DOPS   C3B 2183  19.474   6.914   6.913
  182DOPS   C4B 2184  19.854   6.814   7.203
  183DOPS   CNO 2185  11.374   6.844  11.753
  183DOPS   PO4 2186  11.664   6.754  11.973
  183DOPS   GL1 2187  11.474   6.804  12.313
  183DOPS   GL2 2188  11.294   6.764  12.443
  183DOPS   C1A 2189  11.804   6.784  12.653
  183DOPS   D2A 2190  12.014   6.664  13.103
  183DOPS   C3A 2191  12.394   6.524  13.453
  183DOPS   C4A 2192  12.804   6.484  13.683
  183DOPS   C1B 2193  11.334   7.084  12.803
  183DOPS   D2B 2194  11.434   7.424  13.183
  183DOPS   C3B 2195  11.264   7.164  13.573
  183DOPS   C4B 2196  11.034   7.104  13.953
  184DOPS   CNO 2197   8.084   4.564   9.803
  184DOPS   PO4 2198   7.784   4.364   9.893
  184DOPS   GL1 2199   7.644   4.504  10.243
  184DOPS   GL2 2200   7.694   4.394  10.523
  184DOPS   C1A 2201   7.184   4.494  10.203
  184DOPS   D2A 2202   6.704   4.524  10.333
  184DOPS   C3A 2203   6.554   4.904  10.523
  184DOPS   C4A 2204   6.264   5.254  10.813
  184DOPS   C1B 2205   7.294   4.394  10.783
  184DOPS   D2B 2206   6.954   4.304  11.183
  184DOPS   C3B 2207   6.714   4.054  11.473
  184DOPS   C4B 2208   6.314   3.784  11.583
  185DOPS   CNO 2209  15.704   2.944   8.613
  185DOPS   PO4 2210  15.904   3.124   8.903
  185DOPS   GL1 2211  16.294   3.024   9.083
  185DOPS   GL2 2212  16.364   2.844   8.853
  185DOPS   C1A 2213  16.454   3.074   9.483
  185DOPS   D2A 2214  16.694   3.084   9.933
  185DOPS   C3A 2215  17.064   3.324  10.123
  185DOPS   C4A 2216  17.484   3.114  10.153
  185DOPS   C1B 2217  16.754   2.694   8.723
  185DOPS   D2B 2218  17.114   2.964   8.763
  185DOPS   C3B 2219  17.574   2.804   8.793
  185DOPS   C4B 2220  18.084   2.674   8.813
  186DOPS   CNO 2221   6.774   2.784  10.013
  186DOPS   PO4 2222   7.124   2.704  10.043
  186DOPS   GL1 2223   7.044   2.644  10.483
  186DOPS   GL2 2224   6.964   2.394  10.373
  186DOPS   C1A 2225   6.804   2.904  10.653
  186DOPS   D2A 2226   6.704   3.164  11.083
  186DOPS   C3A 2227   6.464   3.294  11.453
  186DOPS   C4A 2228   6.344   3.374  11.933
  186DOPS   C1B 2229   7.044   2.074  10.693
  186DOPS   D2B 2230   6.754   2.054  11.123
  186DOPS   C3B 2231   6.624   2.324  11.463
  186DOPS   C4B 2232   6.514   2.794  11.413
  187DOPS   CNO 2233   7.044   2.174   9.933
  187DOPS   PO4 2234   6.904   1.824   9.853
  187DOPS   GL1 2235   6.574   1.814  10.113
  187DOPS   GL2 2236   6.674   2.034  10.303
  187DOPS   C1A 2237   6.314   1.534  10.333
  187DOPS   D2A 2238   5.844   1.494  10.503
  187DOPS   C3A 2239   5.814   1.564  10.933
  187DOPS   C4A 2240   5.784   1.804  11.343
  187DOPS   C1B 2241   6.654   1.774  10.613
  187DOPS   D2B 2242   6.754   1.544  11.023
  187DOPS   C3B 2243   6.654   1.274  11.413
  187DOPS   C4B 2244   6.544   0.974  11.833
  188DOPS   CNO 2245  19.454   5.984   5.023
  188DOPS   PO4 2246  19.284   5.834   5.313
  188DOPS   GL1 2247  19.614   5.834   5.643
  188DOPS   GL2 2248  19.384   5.764   5.733
  188DOPS   C1A 2249  19.974   5.684   5.863
  188DOPS   D2A 2250  20.444   5.544   5.953
  188DOPS   C3A 2251  20.864   5.514   6.253
  188DOPS   C4A 2252  21.374   5.574   6.293
  188DOPS   C1B 2253  19.334   5.924   6.123
  188DOPS   D2B 2254  19.144   6.074   6.553
  188DOPS   C3B 2255  19.344   6.484   6.633
  188DOPS   C4B 2256  19.604   6.764   6.373
  189DOPS   CNO 2257  12.144   1.364  12.103
  189DOPS   PO4 2258  12.324   1.184  12.383
  189DOPS   GL1 2259  12.414   1.404  12.713
  189DOPS   GL2 2260  12.464   1.104  12.803
  189DOPS   C1A 2261  12.574   1.684  12.943
  189DOPS   D2A 2262  12.684   1.984  13.333
  189DOPS   C3A 2263  12.864   2.074  13.763
  189DOPS   C4A 2264  12.644   1.914  14.133
  189DOPS   C1B 2265  12.744   1.054  13.183
  189DOPS   D2B 2266  12.874   1.124  13.683
  189DOPS   C3B 2267  13.054   1.594  13.783
  189DOPS   C4B 2268  13.354   1.904  13.943
  190DOPS   CNO 2269  23.970   7.624   3.563
  190DOPS   PO4 2270  24.020   7.254   3.583
  190DOPS   GL1 2271  24.030   7.254   4.003
  190DOPS   GL2 2272  23.720   7.364   4.043
  190DOPS   C1A 2273  24.000   7.064   4.323
  190DOPS   D2A 2274  24.050   6.884   4.733
  190DOPS   C3A 2275  24.350   7.054   5.123
  190DOPS   C4A 2276  24.550   7.234   5.563
  190DOPS   C1B 2277  23.464   7.354   4.443
  190DOPS   D2B 2278  23.214   7.414   4.903
  190DOPS   C3B 2279  23.244   7.724   5.253
  190DOPS   C4B 2280  23.174   0.187   5.593
  191DOPS   CNO 2281   6.044   5.244   8.753
  191DOPS   PO4 2282   6.084   4.934   8.993
  191DOPS   GL1 2283   5.964   4.994   9.373
  191DOPS   GL2 2284   5.994   4.764   9.503
  191DOPS   C1A 2285   5.544   5.104   9.523
  191DOPS   D2A 2286   5.104   5.264   9.623
  191DOPS   C3A 2287   4.854   5.134  10.053
  191DOPS   C4A 2288   4.994   4.674  10.293
  191DOPS   C1B 2289   5.824   4.864   9.903
  191DOPS   D2B 2290   5.574   4.714  10.293
  191DOPS   C3B 2291   5.344   4.424  10.593
  191DOPS   C4B 2292   5.134   4.084  10.943
  192DOPS   CNO 2293  15.934   1.764   7.953
  192DOPS   PO4 2294  16.074   1.654   8.283
  192DOPS   GL1 2295  16.244   1.944   8.563
  192DOPS   GL2 2296  16.454   1.724   8.603
  192DOPS   C1A 2297  16.484   2.224   8.903
  192DOPS   D2A 2298  16.924   2.364   9.173
  192DOPS   C3A 2299  17.184   2.414   9.553
  192DOPS   C4A 2300  17.454   2.394   9.963
  192DOPS   C1B 2301  16.534   1.384   8.863
  192DOPS   D2B 2302  16.804   1.414   9.303
  192DOPS   C3B 2303  16.844   1.034   9.523
  192DOPS   C4B 2304  16.714   0.564   9.803
  193DOPS   CNO 2305  17.104   6.764   6.643
  193DOPS   PO4 2306  17.474   6.614   6.663
  193DOPS   GL1 2307  17.744   6.834   7.033
  193DOPS   GL2 2308  17.794   6.594   6.983
  193DOPS   C1A 2309  17.864   6.864   7.423
  193DOPS   D2A 2310  17.904   6.824   7.943
  193DOPS   C3A 2311  18.274   7.044   8.043
  193DOPS   C4A 2312  18.734   7.234   8.113
  193DOPS   C1B 2313  18.104   6.414   7.213
  193DOPS   D2B 2314  18.504   6.134   7.413
  193DOPS   C3B 2315  18.874   6.214   7.553
  193DOPS   C4B 2316  19.444   6.274   7.633
  194DOPS   CNO 2317  12.044   2.874  11.703
  194DOPS   PO4 2318  12.244   2.794  11.993
  194DOPS   GL1 2319  12.194   2.964  12.413
  194DOPS   GL2 2320  12.404   2.874  12.523
  194DOPS   C1A 2321  11.914   2.814  12.693
  194DOPS   D2A 2322  11.844   2.644  13.123
  194DOPS   C3A 2323  11.874   2.914  13.413
  194DOPS   C4A 2324  11.854   3.194  13.763
  194DOPS   C1B 2325  12.334   2.744  12.913
  194DOPS   D2B 2326  12.354   2.344  13.233
  194DOPS   C3B 2327  12.454   2.264  13.693
  194DOPS   C4B 2328  12.634   2.394  14.113
  195DOPS   CNO 2329  13.804   3.824  11.143
  195DOPS   PO4 2330  14.064   4.104  11.203
  195DOPS   GL1 2331  14.154   4.174  11.563
  195DOPS   GL2 2332  14.214   4.434  11.513
  195DOPS   C1A 2333  14.304   4.034  11.913
  195DOPS   D2A 2334  14.484   4.264  12.243
  195DOPS   C3A 2335  14.504   4.724  12.333
  195DOPS   C4A 2336  14.864   5.054  12.393
  195DOPS   C1B 2337  14.574   4.424  11.793
  195DOPS   D2B 2338  15.014   4.454  12.103
  195DOPS   C3B 2339  15.254   4.554  12.433
  195DOPS   C4B 2340  15.614   4.684  12.753
  196DOPS   CNO 2341   4.734   7.054   6.923
  196DOPS   PO4 2342   4.704   6.804   7.213
  196DOPS   GL1 2343   4.404   6.914   7.533
  196DOPS   GL2 2344   4.504   7.054   7.753
  196DOPS   C1A 2345   4.004   6.844   7.753
  196DOPS   D2A 2346   3.494   6.774   7.883
  196DOPS   C3A 2347   3.084   6.964   8.093
  196DOPS   C4A 2348   2.864   7.424   8.203
  196DOPS   C1B 2349   4.234   7.154   8.073
  196DOPS   D2B 2350   3.914   7.294   8.483
  196DOPS   C3B 2351   3.824   7.114   8.893
  196DOPS   C4B 2352   3.714   6.924   9.263
  197DOPS   CNO 2353   8.624   0.314  11.143
  197DOPS   PO4 2354   8.344   0.504  11.033
  197DOPS   GL1 2355   8.084   0.784  11.253
  197DOPS   GL2 2356   7.864   0.714  11.083
  197DOPS   C1A 2357   8.054   0.984  11.653
  197DOPS   D2A 2358   7.954   0.994  12.193
  197DOPS   C3A 2359   8.024   0.624  12.513
  197DOPS   C4A 2360   7.974   0.494  12.983
  197DOPS   C1B 2361   7.514   0.594  11.303
  197DOPS   D2B 2362   7.124   0.254  11.373
  197DOPS   C3B 2363   6.714   0.177  11.563
  197DOPS   C4B 2364   6.404   0.414  11.793
  198DOPS   CNO 2365   1.304   6.294   4.223
  198DOPS   PO4 2366   1.164   6.624   4.333
  198DOPS   GL1 2367   0.984   6.694   4.673
  198DOPS   GL2 2368   1.274   6.694   4.833
  198DOPS   C1A 2369   0.674   6.724   4.993
  198DOPS   D2A 2370   0.304   6.804   5.313
  198DOPS   C3A 2371   0.094   7.094   5.633
  198DOPS   C4A 2372  24.870   7.514   5.773
  198DOPS   C1B 2373   1.144   6.984   5.113
  198DOPS   D2B 2374   1.014   7.314   5.443
  198DOPS   C3B 2375   0.594   7.234   5.553
  198DOPS   C4B 2376   0.474   7.034   5.943
  199DOPS   CNO 2377  10.504   2.584  11.083
  199DOPS   PO4 2378  10.184   2.744  11.303
  199DOPS   GL1 2379  10.094   2.764  11.663
  199DOPS   GL2 2380  10.264   2.864  11.753
  199DOPS   C1A 2381   9.704   2.914  11.813
  199DOPS   D2A 2382   9.224   3.144  11.883
  199DOPS   C3A 2383   9.154   3.534  12.163
  199DOPS   C4A 2384   8.984   3.884  12.423
  199DOPS   C1B 2385  10.164   3.004  12.213
  199DOPS   D2B 2386  10.274   2.714  12.563
  199DOPS   C3B 2387   9.814   2.734  12.723
  199DOPS   C4B 2388   9.384   2.844  12.823
  200DOPS   CNO 2389  24.900   5.784   3.743
  200DOPS   PO4 2390  24.970   5.474   3.923
  200DOPS   GL1 2391  24.940   5.484   4.363
  200DOPS   GL2 2392   0.024   5.804   4.353
  200DOPS   C1A 2393  24.530   5.424   4.473
  200DOPS   D2A 2394  24.110   5.254   4.703
  200DOPS   C3A 2395  24.080   5.074   5.173
  200DOPS   C4A 2396  23.940   4.964   5.613
  200DOPS   C1B 2397  25.010   5.804   4.823
  200DOPS   D2B 2398  24.990   5.464   5.233
  200DOPS   C3B 2399  24.810   5.704   5.603
  200DOPS   C4B 2400  24.730   5.964   6.033
11988DOPC   NC3 2401   3.624   6.794  12.433
11988DOPC   PO4 2402   3.824   7.094  12.253
11988DOPC   GL1 2403   4.044   7.244  11.873
11988DOPC   GL2 2404   4.214   6.994  11.953
11988DOPC   C1A 2405   4.294   7.464  11.563
11988DOPC   D2A 2406   4.494   7.634  11.153
11988DOPC   C3A 2407   4.424   7.444  10.723
11988DOPC   C4A 2408   4.524   7.444  10.233
11988DOPC   C1B 2409   4.524   7.004  11.713
11988DOPC   D2B 2410   5.024   6.994  11.533
11988DOPC   C3B 2411   5.294   7.394  11.593
11988DOPC   C4B 2412   5.704   7.584  11.473
11989DOPC   NC3 2413  22.364   2.454   8.093
11989DOPC   PO4 2414  22.404   2.494   7.723
11989DOPC   GL1 2415  21.994   2.464   7.603
11989DOPC   GL2 2416  22.134   2.604   7.363
11989DOPC   C1A 2417  21.624   2.284   7.493
11989DOPC   D2A 2418  21.234   2.254   7.173
11989DOPC   C3A 2419  21.354   2.054   6.783
11989DOPC   C4A 2420  21.584   1.744   6.633
11989DOPC   C1B 2421  22.024   2.874   7.003
11989DOPC   D2B 2422  22.184   3.184   6.673
11989DOPC   C3B 2423  22.604   3.114   6.523
11989DOPC   C4B 2424  23.084   3.244   6.473
11990DOPC   NC3 2425  22.764   1.474   7.403
11990DOPC   PO4 2426  22.774   1.674   7.743
11990DOPC   GL1 2427  22.494   1.914   7.493
11990DOPC   GL2 2428  22.364   1.654   7.573
11990DOPC   C1A 2429  22.434   1.864   7.013
11990DOPC   D2A 2430  22.084   1.774   6.723
11990DOPC   C3A 2431  21.934   1.724   6.293
11990DOPC   C4A 2432  21.524   1.424   6.223
11990DOPC   C1B 2433  22.044   1.544   7.253
11990DOPC   D2B 2434  21.804   1.384   6.933
11990DOPC   C3B 2435  21.844   1.094   6.543
11990DOPC   C4B 2436  21.904   0.624   6.593
11991DOPC   NC3 2437  12.604   3.754  16.113
11991DOPC   PO4 2438  12.294   3.924  15.903
11991DOPC   GL1 2439  11.954   3.594  15.753
11991DOPC   GL2 2440  12.154   3.714  15.463
11991DOPC   C1A 2441  11.594   3.364  15.543
11991DOPC   D2A 2442  11.554   3.034  15.143
11991DOPC   C3A 2443  11.754   3.004  14.693
11991DOPC   C4A 2444  11.814   3.174  14.253
11991DOPC   C1B 2445  11.724   3.664  15.233
11991DOPC   D2B 2446  11.424   3.494  14.943
11991DOPC   C3B 2447  11.314   3.194  14.623
11991DOPC   C4B 2448  11.364   2.934  14.223
11992DOPC   NC3 2449   1.054   6.024   9.883
11992DOPC   PO4 2450   1.334   6.224  10.013
11992DOPC   GL1 2451   1.264   6.524   9.673
11992DOPC   GL2 2452   1.194   6.274   9.553
11992DOPC   C1A 2453   1.644   6.724   9.373
11992DOPC   D2A 2454   2.034   6.574   9.083
11992DOPC   C3A 2455   2.514   6.514   8.853
11992DOPC   C4A 2456   2.974   6.294   8.853
11992DOPC   C1B 2457   1.294   6.454   9.183
11992DOPC   D2B 2458   1.544   6.774   8.873
11992DOPC   C3B 2459   1.864   6.734   8.643
11992DOPC   C4B 2460   2.274   6.714   8.463
11993DOPC   NC3 2461   2.144   0.914  10.973
11993DOPC   PO4 2462   2.444   0.684  11.103
11993DOPC   GL1 2463   2.794   0.694  10.763
11993DOPC   GL2 2464   2.464   0.764  10.613
11993DOPC   C1A 2465   3.204   0.924  10.743
11993DOPC   D2A 2466   3.554   1.284  10.913
11993DOPC   C3A 2467   3.954   1.354  10.673
11993DOPC   C4A 2468   4.364   1.504  10.463
11993DOPC   C1B 2469   2.564   0.454  10.283
11993DOPC   D2B 2470   2.764   0.314   9.913
11993DOPC   C3B 2471   2.664   0.314   9.473
11993DOPC   C4B 2472   2.834   0.314   9.033
11994DOPC   NC3 2473  10.914   4.084  15.783
11994DOPC   PO4 2474  10.544   3.934  15.843
11994DOPC   GL1 2475  10.564   3.834  15.473
11994DOPC   GL2 2476  10.344   3.654  15.503
11994DOPC   C1A 2477  10.704   3.644  15.063
11994DOPC   D2A 2478  10.864   3.314  14.733
11994DOPC   C3A 2479  10.964   3.414  14.333
11994DOPC   C4A 2480  10.914   3.614  13.903
11994DOPC   C1B 2481  10.024   3.624  15.213
11994DOPC   D2B 2482   9.574   3.444  15.063
11994DOPC   C3B 2483   9.564   3.354  14.583
11994DOPC   C4B 2484   9.684   2.984  14.283
11995DOPC   NC3 2485   6.094   3.484  13.763
11995DOPC   PO4 2486   6.034   3.884  13.853
11995DOPC   GL1 2487   6.264   4.314  13.623
11995DOPC   GL2 2488   6.054   4.194  13.403
11995DOPC   C1A 2489   6.644   4.484  13.453
11995DOPC   D2A 2490   6.984   4.474  13.173
11995DOPC   C3A 2491   6.954   4.094  12.823
11995DOPC   C4A 2492   6.984   3.774  12.413
11995DOPC   C1B 2493   6.074   4.004  13.013
11995DOPC   D2B 2494   6.244   4.144  12.563
11995DOPC   C3B 2495   6.674   4.234  12.393
11995DOPC   C4B 2496   6.964   4.094  12.013
11996DOPC   NC3 2497   6.904   6.684  14.723
11996DOPC   PO4 2498   6.774   6.414  14.953
11996DOPC   GL1 2499   7.084   6.224  14.763
11996DOPC   GL2 2500   6.924   6.034  14.603
11996DOPC   C1A 2501   7.474   6.264  14.483
11996DOPC   D2A 2502   7.644   5.964  14.173
11996DOPC   C3A 2503   8.004   6.154  13.943
11996DOPC   C4A 2504   8.464   6.134  13.663
11996DOPC   C1B 2505   7.094   6.074  14.183
11996DOPC   D2B 2506   7.324   6.034  13.733
11996DOPC   C3B 2507   7.624   5.964  13.373
11996DOPC   C4B 2508   7.744   5.994  12.933
11997DOPC   NC3 2509  14.624   3.464  16.073
11997DOPC   PO4 2510  14.204   3.574  16.063
11997DOPC   GL1 2511  13.994   3.474  15.663
11997DOPC   GL2 2512  13.794   3.684  15.693
11997DOPC   C1A 2513  14.074   3.334  15.243
11997DOPC   D2A 2514  14.064   3.334  14.733
11997DOPC   C3A 2515  13.784   3.094  14.453
11997DOPC   C4A 2516  13.444   2.784  14.213
11997DOPC   C1B 2517  13.474   3.894  15.403
11997DOPC   D2B 2518  13.304   4.134  15.003
11997DOPC   C3B 2519  13.184   4.234  14.573
11997DOPC   C4B 2520  12.774   4.224  14.263
11998DOPC   NC3 2521  21.464   6.744   8.943
11998DOPC   PO4 2522  21.684   6.684   8.583
11998DOPC   GL1 2523  21.524   6.454   8.283
11998DOPC   GL2 2524  21.534   6.704   8.093
11998DOPC   C1A 2525  21.284   6.354   8.023
11998DOPC   D2A 2526  21.174   6.314   7.573
11998DOPC   C3A 2527  20.874   6.154   7.263
11998DOPC   C4A 2528  20.404   5.984   7.113
11998DOPC   C1B 2529  21.244   6.774   7.773
11998DOPC   D2B 2530  20.854   6.754   7.473
11998DOPC   C3B 2531  20.684   6.604   7.083
11998DOPC   C4B 2532  20.384   6.644   6.703
11999DOPC   NC3 2533  21.064   7.284   8.523
11999DOPC   PO4 2534  21.234   6.914   8.493
11999DOPC   GL1 2535  21.024   6.684   8.263
11999DOPC   GL2 2536  20.824   6.934   8.253
11999DOPC   C1A 2537  20.724   6.524   7.953
11999DOPC   D2A 2538  20.494   6.434   7.503
11999DOPC   C3A 2539  20.224   6.494   7.153
11999DOPC   C4A 2540  19.844   6.554   6.773
11999DOPC   C1B 2541  20.544   7.084   7.973
11999DOPC   D2B 2542  20.284   7.294   7.623
11999DOPC   C3B 2543  19.994   7.314   7.243
11999DOPC   C4B 2544  19.544   7.454   7.053
12000DOPC   NC3 2545   5.604   1.334  14.083
12000DOPC   PO4 2546   5.254   1.084  13.873
12000DOPC   GL1 2547   5.484   1.034  13.513
12000DOPC   GL2 2548   5.464   0.794  13.563
12000DOPC   C1A 2549   5.534   1.284  13.143
12000DOPC   D2A 2550   5.824   1.414  12.743
12000DOPC   C3A 2551   6.074   1.244  12.393
12000DOPC   C4A 2552   6.554   1.254  12.353
12000DOPC   C1B 2553   5.444   0.614  13.223
12000DOPC   D2B 2554   5.614   0.404  12.793
12000DOPC   C3B 2555   6.034   0.314  12.583
12000DOPC   C4B 2556   6.494   0.354  12.333
12001DOPC   NC3 2557  23.254   2.234   7.553
12001DOPC   PO4 2558  23.034   2.494   7.363
12001DOPC   GL1 2559  22.974   2.474   7.093
12001DOPC   GL2 2560  23.284   2.364   7.033
12001DOPC   C1A 2561  22.654   2.344   6.783
12001DOPC   D2A 2562  22.344   2.124   6.463
12001DOPC   C3A 2563  21.964   2.264   6.193
12001DOPC   C4A 2564  21.724   2.644   6.103
12001DOPC   C1B 2565  23.504   2.344   6.623
12001DOPC   D2B 2566  23.820   2.664   6.323
12001DOPC   C3B 2567  23.870   2.464   5.943
12001DOPC   C4B 2568  24.160   2.234   5.533
12002DOPC   NC3 2569  13.634   0.984  15.753
12002DOPC   PO4 2570  13.974   1.154  15.763
12002DOPC   GL1 2571  14.014   1.204  15.413
12002DOPC   GL2 2572  14.124   0.904  15.333
12002DOPC   C1A 2573  13.854   1.284  15.073
12002DOPC   D2A 2574  13.534   1.414  14.733
12002DOPC   C3A 2575  13.074   1.294  14.703
12002DOPC   C4A 2576  12.924   0.834  14.813
12002DOPC   C1B 2577  13.764   0.624  15.233
12002DOPC   D2B 2578  13.724   0.424  14.783
12002DOPC   C3B 2579  13.764   0.624  14.403
12002DOPC   C4B 2580  13.764   0.814  13.973
12003DOPC   NC3 2581  19.854   0.464  11.533
12003DOPC   PO4 2582  19.634   0.774  11.413
12003DOPC   GL1 2583  19.304   0.724  11.113
12003DOPC   GL2 2584  19.234   0.964  11.073
12003DOPC   C1A 2585  19.004   0.394  11.143
12003DOPC   D2A 2586  18.714   0.007  10.933
12003DOPC   C3A 2587  18.444   0.127  10.623
12003DOPC   C4A 2588  18.164   0.284  10.183
12003DOPC   C1B 2589  18.914   0.914  10.823
12003DOPC   D2B 2590  18.874   0.864  10.333
12003DOPC   C3B 2591  18.634   0.824   9.963
12003DOPC   C4B 2592  18.404   0.814   9.513
12004DOPC   NC3 2593  13.134   7.304  16.283
12004DOPC   PO4 2594  12.954   6.924  16.263
12004DOPC   GL1 2595  12.994   6.684  15.843
12004DOPC   GL2 2596  12.744   6.854  15.783
12004DOPC   C1A 2597  13.104   6.674  15.383
12004DOPC   D2A 2598  13.104   6.424  14.913
12004DOPC   C3A 2599  13.074   6.654  14.523
12004DOPC   C4A 2600  12.834   6.854  14.153
12004DOPC   C1B 2601  12.744   7.154  15.393
12004DOPC   D2B 2602  12.774   7.454  14.933
12004DOPC   C3B 2603  12.474   7.694  14.643
12004DOPC   C4B 2604  12.454   7.784  14.183
12005DOPC   NC3 2605   4.754   7.664  13.743
12005DOPC   PO4 2606   5.054   0.097  13.653
12005DOPC   GL1 2607   5.324   0.244  13.383
12005DOPC   GL2 2608   5.364   7.744  13.373
12005DOPC   C1A 2609   5.114   0.314  13.033
12005DOPC   D2A 2610   4.854   0.504  12.643
12005DOPC   C3A 2611   5.064   0.644  12.273
12005DOPC   C4A 2612   5.434   0.604  12.003
12005DOPC   C1B 2613   5.254   7.584  12.953
12005DOPC   D2B 2614   5.354   7.534  12.463
12005DOPC   C3B 2615   5.024   7.524  12.143
12005DOPC   C4B 2616   4.874   7.554  11.703
12006DOPC   NC3 2617  19.534   5.594  10.923
12006DOPC   PO4 2618  19.474   5.614  10.513
12006DOPC   GL1 2619  19.174   5.914  10.593
12006DOPC   GL2 2620  19.344   5.934  10.273
12006DOPC   C1A 2621  18.794   5.754  10.643
12006DOPC   D2A 2622  18.564   5.324  10.743
12006DOPC   C3A 2623  18.264   4.984  10.513
12006DOPC   C4A 2624  17.864   4.684  10.703
12006DOPC   C1B 2625  19.164   6.104   9.883
12006DOPC   D2B 2626  18.954   6.164   9.423
12006DOPC   C3B 2627  18.754   6.314   9.013
12006DOPC   C4B 2628  18.844   6.404   8.533
12007DOPC   NC3 2629  20.864   1.374   8.863
12007DOPC   PO4 2630  20.744   1.024   8.683
12007DOPC   GL1 2631  20.374   1.084   8.473
12007DOPC   GL2 2632  20.594   0.964   8.243
12007DOPC   C1A 2633  20.144   1.504   8.483
12007DOPC   D2A 2634  19.994   1.954   8.373
12007DOPC   C3A 2635  19.634   2.214   8.193
12007DOPC   C4A 2636  19.754   2.524   7.823
12007DOPC   C1B 2637  20.644   0.844   7.793
12007DOPC   D2B 2638  20.634   0.844   7.283
12007DOPC   C3B 2639  20.204   0.804   7.123
12007DOPC   C4B 2640  19.944   0.924   6.743
12008DOPC   NC3 2641  24.740   3.244   8.903
12008DOPC   PO4 2642  24.500   3.354   8.573
12008DOPC   GL1 2643  24.610   3.644   8.273
12008DOPC   GL2 2644  24.780   3.414   8.123
12008DOPC   C1A 2645  24.910   3.884   8.083
12008DOPC   D2A 2646   0.264   4.144   7.903
12008DOPC   C3A 2647   0.704   4.254   7.873
12008DOPC   C4A 2648   1.184   4.274   7.793
12008DOPC   C1B 2649  24.900   3.494   7.733
12008DOPC   D2B 2650   0.094   3.654   7.323
12008DOPC   C3B 2651   0.074   3.304   6.973
12008DOPC   C4B 2652   0.174   2.914   6.743
12009DOPC   NC3 2653   7.594   1.034  15.433
12009DOPC   PO4 2654   7.964   1.224  15.423
12009DOPC   GL1 2655   8.174   0.924  15.113
12009DOPC   GL2 2656   8.424   0.994  15.193
12009DOPC   C1A 2657   8.204   0.794  14.743
12009DOPC   D2A 2658   8.174   0.684  14.323
12009DOPC   C3A 2659   8.324   0.884  13.863
12009DOPC   C4A 2660   8.424   1.184  13.443
12009DOPC   C1B 2661   8.734   0.834  14.913
12009DOPC   D2B 2662   9.164   0.884  14.653
12009DOPC   C3B 2663   9.114   1.094  14.223
12009DOPC   C4B 2664   8.744   1.064  13.823
12010DOPC   NC3 2665  20.804   7.624   8.943
12010DOPC   PO4 2666  20.424   7.564   9.063
12010DOPC   GL1 2667  20.054   7.614   8.833
12010DOPC   GL2 2668  19.974   0.017   9.053
12010DOPC   C1A 2669  19.984   7.504   8.443
12010DOPC   D2A 2670  19.814   7.544   7.993
12010DOPC   C3A 2671  19.434   7.584   7.733
12010DOPC   C4A 2672  18.964   7.554   7.773
12010DOPC   C1B 2673  19.574   0.284   8.933
12010DOPC   D2B 2674  19.254   0.594   8.733
12010DOPC   C3B 2675  18.994   0.434   8.413
12010DOPC   C4B 2676  18.624   0.354   8.193
12011DOPC   NC3 2677  22.944   2.624   7.793
12011DOPC   PO4 2678  23.304   2.564   7.913
12011DOPC   GL1 2679  23.554   2.604   7.523
12011DOPC   GL2 2680  23.354   2.784   7.413
12011DOPC   C1A 2681  23.790   2.344   7.343
12011DOPC   D2A 2682  24.190   2.324   7.053
12011DOPC   C3A 2683  24.660   2.184   7.083
12011DOPC   C4A 2684  25.040   2.374   7.323
12011DOPC   C1B 2685  23.484   2.824   7.013
12011DOPC   D2B 2686  23.504   2.964   6.523
12011DOPC   C3B 2687  23.580   3.194   6.103
12011DOPC   C4B 2688  23.700   3.474   5.733
12012DOPC   NC3 2689   9.864   7.744  16.263
12012DOPC   PO4 2690   9.774   7.344  16.243
12012DOPC   GL1 2691  10.184   7.374  15.893
12012DOPC   GL2 2692  10.194   7.664  15.983
12012DOPC   C1A 2693  10.034   7.464  15.493
12012DOPC   D2A 2694   9.824   7.244  15.043
12012DOPC   C3A 2695  10.044   6.964  14.713
12012DOPC   C4A 2696  10.294   6.854  14.293
12012DOPC   C1B 2697  10.124   0.107  15.583
12012DOPC   D2B 2698  10.114   0.534  15.343
12012DOPC   C3B 2699   9.804   0.654  15.023
12012DOPC   C4B 2700   9.524   0.544  14.623
12013DOPC   NC3 2701  21.884   7.594   8.073
12013DOPC   PO4 2702  21.964   0.137   7.893
12013DOPC   GL1 2703  21.794   0.394   7.543
12013DOPC   GL2 2704  21.644   0.584   7.733
12013DOPC   C1A 2705  21.704   0.394   7.163
12013DOPC   D2A 2706  21.464   0.424   6.763
12013DOPC   C3A 2707  21.444   0.794   6.473
12013DOPC   C4A 2708  21.594   0.894   6.073
12013DOPC   C1B 2709  21.334   0.634   7.383
12013DOPC   D2B 2710  21.094   0.754   6.983
12013DOPC   C3B 2711  20.844   0.434   6.683
12013DOPC   C4B 2712  20.494   0.197   6.383
12014DOPC   NC3 2713  23.870   5.004   8.013
12014DOPC   PO4 2714  24.030   4.834   7.683
12014DOPC   GL1 2715  24.220   5.044   7.363
12014DOPC   GL2 2716  24.440   5.184   7.483
12014DOPC   C1A 2717  24.400   5.224   6.973
12014DOPC   D2A 2718  24.500   5.644   6.763
12014DOPC   C3A 2719  24.390   5.944   6.413
12014DOPC   C4A 2720  24.150   6.334   6.193
12014DOPC   C1B 2721  24.790   5.394   7.283
12014DOPC   D2B 2722   0.044   5.454   6.933
12014DOPC   C3B 2723   0.524   5.424   6.763
12014DOPC   C4B 2724   0.844   5.164   6.413
12015DOPC   NC3 2725  24.290   2.884   8.423
12015DOPC   PO4 2726  24.010   2.914   8.153
12015DOPC   GL1 2727  24.160   3.104   7.783
12015DOPC   GL2 2728  23.970   2.864   7.663
12015DOPC   C1A 2729  24.520   3.004   7.693
12015DOPC   D2A 2730  24.940   2.994   7.703
12015DOPC   C3A 2731   0.044   2.904   7.263
12015DOPC   C4A 2732   0.494   3.064   7.123
12015DOPC   C1B 2733  24.060   2.784   7.253
12015DOPC   D2B 2734  24.030   2.794   6.773
12015DOPC   C3B 2735  24.280   2.824   6.483
12015DOPC   C4B 2736  24.720   2.904   6.333
12016DOPC   NC3 2737   0.204   1.284   9.303
12016DOPC   PO4 2738   0.374   1.634   9.183
12016DOPC   GL1 2739   0.494   1.664   8.753
12016DOPC   GL2 2740   0.484   1.404   8.773
12016DOPC   C1A 2741   0.954   1.784   8.693
12016DOPC   D2A 2742   1.284   2.024   8.453
12016DOPC   C3A 2743   1.574   1.654   8.563
12016DOPC   C4A 2744   1.984   1.374   8.503
12016DOPC   C1B 2745   0.844   1.214   8.603
12016DOPC   D2B 2746   1.264   1.074   8.453
12016DOPC   C3B 2747   1.624   1.134   8.203
12016DOPC   C4B 2748   2.084   1.194   8.023
12017DOPC   NC3 2749   4.044   3.764  12.443
12017DOPC   PO4 2750   4.004   4.094  12.213
12017DOPC   GL1 2751   4.374   4.214  12.113
12017DOPC   GL2 2752   4.324   4.464  12.153
12017DOPC   C1A 2753   4.424   4.044  11.733
12017DOPC   D2A 2754   4.664   3.874  11.293
12017DOPC   C3A 2755   4.594   3.974  10.883
12017DOPC   C4A 2756   4.614   3.794  10.423
12017DOPC   C1B 2757   4.234   4.614  11.753
12017DOPC   D2B 2758   4.554   4.684  11.313
12017DOPC   C3B 2759   4.944   4.414  11.293
12017DOPC   C4B 2760   5.394   4.434  11.193
12018DOPC   NC3 2761  14.724   6.854  15.393
12018DOPC   PO4 2762  14.894   6.984  15.083
12018DOPC   GL1 2763  14.724   6.944  14.783
12018DOPC   GL2 2764  14.854   6.724  14.703
12018DOPC   C1A 2765  14.544   7.134  14.483
12018DOPC   D2A 2766  14.094   7.264  14.363
12018DOPC   C3A 2767  13.814   7.154  14.033
12018DOPC   C4A 2768  13.724   6.904  13.593
12018DOPC   C1B 2769  14.904   6.864  14.283
12018DOPC   D2B 2770  15.134   6.984  13.853
12018DOPC   C3B 2771  15.074   7.074  13.423
12018DOPC   C4B 2772  14.834   7.104  12.943
12019DOPC   NC3 2773  15.464   4.874  15.173
12019DOPC   PO4 2774  15.094   4.784  15.333
12019DOPC   GL1 2775  14.884   4.714  14.883
12019DOPC   GL2 2776  15.014   5.004  14.913
12019DOPC   C1A 2777  14.734   4.674  14.473
12019DOPC   D2A 2778  14.444   4.644  14.073
12019DOPC   C3A 2779  13.974   4.734  13.943
12019DOPC   C4A 2780  13.504   4.624  13.753
12019DOPC   C1B 2781  14.784   5.134  14.553
12019DOPC   D2B 2782  14.674   5.034  14.053
12019DOPC   C3B 2783  14.664   4.874  13.613
12019DOPC   C4B 2784  14.514   4.864  13.143
12020DOPC   NC3 2785   3.624   7.484  12.093
12020DOPC   PO4 2786   3.624   7.394  11.673
12020DOPC   GL1 2787   3.824   7.434  11.373
12020DOPC   GL2 2788   3.594   7.214  11.233
12020DOPC   C1A 2789   4.104   7.284  11.083
12020DOPC   D2A 2790   4.244   6.954  10.753
12020DOPC   C3A 2791   4.444   7.004  10.353
12020DOPC   C4A 2792   4.504   7.114   9.873
12020DOPC   C1B 2793   3.794   6.894  11.073
12020DOPC   D2B 2794   4.104   6.454  10.983
12020DOPC   C3B 2795   4.174   6.304  10.553
12020DOPC   C4B 2796   3.964   6.174  10.123
12021DOPC   NC3 2797   0.194   0.424   8.213
12021DOPC   PO4 2798   0.284   0.814   8.153
12021DOPC   GL1 2799   0.334   0.944   7.803
12021DOPC   GL2 2800   0.104   0.764   7.733
12021DOPC   C1A 2801   0.614   1.154   7.533
12021DOPC   D2A 2802   0.764   1.364   7.133
12021DOPC   C3A 2803   1.214   1.354   7.213
12021DOPC   C4A 2804   1.714   1.414   7.253
12021DOPC   C1B 2805   0.274   0.864   7.333
12021DOPC   D2B 2806   0.494   0.964   6.903
12021DOPC   C3B 2807   0.884   1.054   6.793
12021DOPC   C4B 2808   1.384   1.304   6.743
12022DOPC   NC3 2809   2.094   6.304  11.213
12022DOPC   PO4 2810   2.064   5.984  10.963
12022DOPC   GL1 2811   2.434   5.824  10.763
12022DOPC   GL2 2812   2.474   5.634  10.943
12022DOPC   C1A 2813   2.774   6.074  10.543
12022DOPC   D2A 2814   3.274   6.084  10.443
12022DOPC   C3A 2815   3.624   5.874  10.263
12022DOPC   C4A 2816   4.044   5.684  10.013
12022DOPC   C1B 2817   2.924   5.574  10.743
12022DOPC   D2B 2818   3.394   5.494  10.483
12022DOPC   C3B 2819   3.664   5.304  10.163
12022DOPC   C4B 2820   3.734   4.874   9.913
12023DOPC   NC3 2821  20.584   1.244  10.123
12023DOPC   PO4 2822  20.244   1.374  10.053
12023DOPC   GL1 2823  19.854   1.344   9.783
12023DOPC   GL2 2824  19.774   1.654   9.923
12023DOPC   C1A 2825  19.564   1.054   9.943
12023DOPC   D2A 2826  19.384   0.714  10.243
12023DOPC   C3A 2827  19.064   0.554   9.993
12023DOPC   C4A 2828  18.774   0.404   9.673
12023DOPC   C1B 2829  19.284   1.584   9.873
12023DOPC   D2B 2830  18.804   1.584   9.913
12023DOPC   C3B 2831  18.624   1.284  10.213
12023DOPC   C4B 2832  18.414   0.924  10.443
12024DOPC   NC3 2833   9.054   1.204  16.163
12024DOPC   PO4 2834   9.194   0.974  15.903
12024DOPC   GL1 2835   9.414   0.924  15.643
12024DOPC   GL2 2836   9.334   0.594  15.603
12024DOPC   C1A 2837   9.834   0.914  15.453
12024DOPC   D2A 2838  10.144   1.044  15.083
12024DOPC   C3A 2839  10.074   1.204  14.633
12024DOPC   C4A 2840  10.024   1.284  14.153
12024DOPC   C1B 2841   9.614   0.324  15.453
12024DOPC   D2B 2842   9.904   0.107  15.143
12024DOPC   C3B 2843   9.924   0.244  14.673
12024DOPC   C4B 2844   9.854   0.294  14.203
12025DOPC   NC3 2845   2.334   3.634  11.123
12025DOPC   PO4 2846   2.244   3.994  11.123
12025DOPC   GL1 2847   2.404   4.044  10.703
12025DOPC   GL2 2848   2.404   3.794  10.673
12025DOPC   C1A 2849   2.854   4.054  10.853
12025DOPC   D2A 2850   3.254   4.154  10.753
12025DOPC   C3A 2851   3.624   4.024  10.503
12025DOPC   C4A 2852   4.014   3.994  10.253
12025DOPC   C1B 2853   2.724   3.714  10.363
12025DOPC   D2B 2854   2.944   3.794   9.943
12025DOPC   C3B 2855   3.144   3.894   9.473
12025DOPC   C4B 2856   3.444   3.754   9.103
12026DOPC   NC3 2857  19.874   6.934  11.203
12026DOPC   PO4 2858  19.604   6.954  11.523
12026DOPC   GL1 2859  19.184   6.924  11.443
12026DOPC   GL2 2860  19.334   6.984  11.123
12026DOPC   C1A 2861  18.894   6.864  11.183
12026DOPC   D2A 2862  18.404   7.084  11.043
12026DOPC   C3A 2863  17.924   7.244  10.763
12026DOPC   C4A 2864  17.704   7.324  10.293
12026DOPC   C1B 2865  19.174   6.834  10.753
12026DOPC   D2B 2866  18.774   6.794  10.493
12026DOPC   C3B 2867  18.524   6.814  10.083
12026DOPC   C4B 2868  18.294   6.834   9.663
12027DOPC   NC3 2869  17.084   3.694  14.313
12027DOPC   PO4 2870  16.694   3.744  14.183
12027DOPC   GL1 2871  16.604   3.664  13.753
12027DOPC   GL2 2872  16.754   3.404  13.813
12027DOPC   C1A 2873  16.314   3.954  13.593
12027DOPC   D2A 2874  16.164   4.154  13.183
12027DOPC   C3A 2875  15.874   3.934  12.903
12027DOPC   C4A 2876  15.534   3.744  12.643
12027DOPC   C1B 2877  16.524   3.134  13.493
12027DOPC   D2B 2878  16.404   2.684  13.233
12027DOPC   C3B 2879  16.094   2.564  12.853
12027DOPC   C4B 2880  15.554   2.474  12.733
12028DOPC   NC3 2881   7.024   2.164  14.303
12028DOPC   PO4 2882   6.754   1.904  14.463
12028DOPC   GL1 2883   7.004   1.644  14.283
12028DOPC   GL2 2884   7.244   1.754  14.423
12028DOPC   C1A 2885   7.174   1.424  14.013
12028DOPC   D2A 2886   7.374   1.154  13.703
12028DOPC   C3A 2887   7.224   1.414  13.303
12028DOPC   C4A 2888   7.104   1.634  12.903
12028DOPC   C1B 2889   7.444   1.974  14.093
12028DOPC   D2B 2890   7.794   2.074  13.763
12028DOPC   C3B 2891   8.274   2.064  13.673
12028DOPC   C4B 2892   8.774   2.094  13.493
12029DOPC   NC3 2893   9.994   3.864  15.693
12029DOPC   PO4 2894   9.874   3.504  15.843
12029DOPC   GL1 2895  10.044   3.234  15.593
12029DOPC   GL2 2896   9.824   3.254  15.403
12029DOPC   C1A 2897  10.414   3.224  15.273
12029DOPC   D2A 2898  10.394   3.454  14.773
12029DOPC   C3A 2899   9.994   3.604  14.713
12029DOPC   C4A 2900   9.664   3.944  14.533
12029DOPC   C1B 2901   9.944   3.124  15.003
12029DOPC   D2B 2902  10.014   3.114  14.553
12029DOPC   C3B 2903   9.944   3.494  14.243
12029DOPC   C4B 2904  10.074   3.634  13.803
12030DOPC   NC3 2905  11.924   6.174  16.303
12030DOPC   PO4 2906  11.544   6.314  16.223
12030DOPC   GL1 2907  11.394   6.294  15.823
12030DOPC   GL2 2908  11.324   6.564  15.853
12030DOPC   C1A 2909  11.114   6.174  15.503
12030DOPC   D2A 2910  11.064   6.294  15.023
12030DOPC   C3A 2911  11.034   6.084  14.613
12030DOPC   C4A 2912  11.214   5.874  14.163
12030DOPC   C1B 2913  11.074   6.644  15.443
12030DOPC   D2B 2914  10.814   6.734  15.053
12030DOPC   C3B 2915  10.954   6.644  14.633
12030DOPC   C4B 2916  11.144   6.414  14.243
12031DOPC   NC3 2917   1.794   3.024  10.703
12031DOPC   PO4 2918   1.504   3.094  10.413
12031DOPC   GL1 2919   1.644   3.244  10.083
12031DOPC   GL2 2920   1.874   3.254  10.243
12031DOPC   C1A 2921   1.864   3.244   9.703
12031DOPC   D2A 2922   2.354   3.424   9.503
12031DOPC   C3A 2923   2.444   3.474   9.053
12031DOPC   C4A 2924   2.714   3.494   8.643
12031DOPC   C1B 2925   2.214   3.144  10.003
12031DOPC   D2B 2926   2.654   3.334   9.913
12031DOPC   C3B 2927   2.804   3.464   9.503
12031DOPC   C4B 2928   3.024   3.404   9.113
12032DOPC   NC3 2929  13.344   5.914  15.753
12032DOPC   PO4 2930  13.074   6.144  15.943
12032DOPC   GL1 2931  12.834   6.194  15.663
12032DOPC   GL2 2932  12.654   6.424  15.773
12032DOPC   C1A 2933  12.744   6.324  15.273
12032DOPC   D2A 2934  12.654   6.324  14.803
12032DOPC   C3A 2935  12.634   6.394  14.353
12032DOPC   C4A 2936  12.424   6.644  13.953
12032DOPC   C1B 2937  12.514   6.734  15.413
12032DOPC   D2B 2938  12.404   7.064  15.053
12032DOPC   C3B 2939  12.204   7.224  14.713
12032DOPC   C4B 2940  12.074   7.424  14.283
12033DOPC   NC3 2941   8.924   0.794  15.463
12033DOPC   PO4 2942   8.814   1.184  15.443
12033DOPC   GL1 2943   8.694   1.344  14.973
12033DOPC   GL2 2944   8.844   1.604  15.163
12033DOPC   C1A 2945   8.704   1.164  14.543
12033DOPC   D2A 2946   8.674   0.764  14.293
12033DOPC   C3A 2947   8.854   0.554  13.893
12033DOPC   C4A 2948   8.974   0.334  13.503
12033DOPC   C1B 2949   9.274   1.564  15.103
12033DOPC   D2B 2950   9.704   1.244  15.033
12033DOPC   C3B 2951   9.574   1.184  14.543
12033DOPC   C4B 2952   9.584   1.254  14.023
12034DOPC   NC3 2953   0.254   2.954   9.073
12034DOPC   PO4 2954   0.194   3.324   8.893
12034DOPC   GL1 2955   0.434   3.454   8.633
12034DOPC   GL2 2956   0.274   3.514   8.383
12034DOPC   C1A 2957   0.754   3.394   8.313
12034DOPC   D2A 2958   1.264   3.344   8.223
12034DOPC   C3A 2959   1.644   3.244   8.003
12034DOPC   C4A 2960   2.054   3.364   7.863
12034DOPC   C1B 2961   0.324   3.624   7.983
12034DOPC   D2B 2962   0.514   3.844   7.613
12034DOPC   C3B 2963   0.644   4.154   7.313
12034DOPC   C4B 2964   0.694   4.364   6.883
12035DOPC   NC3 2965  16.014   6.954  14.503
12035DOPC   PO4 2966  16.354   6.984  14.343
12035DOPC   GL1 2967  16.574   7.264  14.073
12035DOPC   GL2 2968  16.754   6.994  14.033
12035DOPC   C1A 2969  16.514   7.614  13.713
12035DOPC   D2A 2970  16.224   0.177  13.473
12035DOPC   C3A 2971  15.974   0.324  13.103
12035DOPC   C4A 2972  15.634   0.364  12.733
12035DOPC   C1B 2973  16.474   6.894  13.753
12035DOPC   D2B 2974  16.074   6.874  13.443
12035DOPC   C3B 2975  15.694   7.114  13.323
12035DOPC   C4B 2976  15.324   7.204  13.043
12036DOPC   NC3 2977  22.834   0.027   7.833
12036DOPC   PO4 2978  22.434   7.774   7.963
12036DOPC   GL1 2979  22.184   7.514   7.623
12036DOPC   GL2 2980  22.244   7.794   7.503
12036DOPC   C1A 2981  22.054   7.254   7.353
12036DOPC   D2A 2982  21.614   7.254   7.103
12036DOPC   C3A 2983  21.274   7.324   6.863
12036DOPC   C4A 2984  20.944   7.404   6.523
12036DOPC   C1B 2985  22.004   7.794   7.093
12036DOPC   D2B 2986  21.924   0.097   6.593
12036DOPC   C3B 2987  21.574   0.197   6.333
12036DOPC   C4B 2988  21.194   0.464   6.213
12037DOPC   NC3 2989   7.074   5.954  15.173
12037DOPC   PO4 2990   6.884   5.654  15.013
12037DOPC   GL1 2991   6.974   5.504  14.693
12037DOPC   GL2 2992   7.104   5.294  14.703
12037DOPC   C1A 2993   6.804   5.694  14.343
12037DOPC   D2A 2994   6.904   5.764  13.893
12037DOPC   C3A 2995   7.094   5.684  13.443
12037DOPC   C4A 2996   7.364   5.684  13.003
12037DOPC   C1B 2997   7.224   5.164  14.303
12037DOPC   D2B 2998   7.354   4.964  13.863
12037DOPC   C3B 2999   7.584   5.044  13.433
12037DOPC   C4B 3000   7.764   5.214  12.953
12038DOPC   NC3 3001   0.064   5.674   8.553
12038DOPC   PO4 3002  24.780   5.854   8.403
12038DOPC   GL1 3003  24.960   6.034   8.073
12038DOPC   GL2 3004   0.224   5.864   8.163
12038DOPC   C1A 3005  24.970   6.204   7.643
12038DOPC   D2A 3006   0.074   6.304   7.183
12038DOPC   C3A 3007   0.264   6.224   6.773
12038DOPC   C4A 3008   0.534   5.894   6.473
12038DOPC   C1B 3009   0.434   5.954   7.733
12038DOPC   D2B 3010   0.494   6.154   7.293
12038DOPC   C3B 3011   0.544   6.584   7.083
12038DOPC   C4B 3012   0.694   7.104   7.123
12039DOPC   NC3 3013  18.974   5.114  12.023
12039DOPC   PO4 3014  19.054   5.264  11.633
12039DOPC   GL1 3015  18.654   5.454  11.523
12039DOPC   GL2 3016  18.594   5.484  11.823
12039DOPC   C1A 3017  18.334   5.434  11.163
12039DOPC   D2A 3018  18.084   5.424  10.723
12039DOPC   C3A 3019  17.674   5.184  10.643
12039DOPC   C4A 3020  17.264   4.934  10.793
12039DOPC   C1B 3021  18.204   5.544  11.653
12039DOPC   D2B 3022  18.014   5.794  11.273
12039DOPC   C3B 3023  18.214   5.934  10.853
12039DOPC   C4B 3024  18.414   6.314  10.563
12040DOPC   NC3 3025  14.224   3.934  15.763
12040DOPC   PO4 3026  14.404   4.254  15.773
12040DOPC   GL1 3027  14.264   4.314  15.353
12040DOPC   GL2 3028  14.124   4.594  15.473
12040DOPC   C1A 3029  14.034   3.904  15.293
12040DOPC   D2A 3030  13.764   3.714  14.963
12040DOPC   C3A 3031  13.604   3.554  14.573
12040DOPC   C4A 3032  13.354   3.314  14.243
12040DOPC   C1B 3033  13.674   4.604  15.513
12040DOPC   D2B 3034  13.254   4.294  15.513
12040DOPC   C3B 3035  12.824   4.184  15.303
12040DOPC   C4B 3036  12.424   4.404  15.113
12041DOPC   NC3 3037  11.324   5.784  16.093
12041DOPC   PO4 3038  11.684   5.804  16.043
12041DOPC   GL1 3039  11.844   5.734  15.643
12041DOPC   GL2 3040  11.584   5.884  15.623
12041DOPC   C1A 3041  11.884   5.374  15.423
12041DOPC   D2A 3042  11.904   5.084  15.053
12041DOPC   C3A 3043  11.804   5.184  14.593
12041DOPC   C4A 3044  11.644   5.444  14.253
12041DOPC   C1B 3045  11.534   5.964  15.143
12041DOPC   D2B 3046  11.564   6.174  14.713
12041DOPC   C3B 3047  11.684   6.014  14.313
12041DOPC   C4B 3048  11.724   5.804  13.843
12042DOPC   NC3 3049  22.624   1.164   8.383
12042DOPC   PO4 3050  22.344   0.994   8.103
12042DOPC   GL1 3051  22.424   0.814   7.683
12042DOPC   GL2 3052  22.144   0.724   7.663
12042DOPC   C1A 3053  22.424   1.084   7.303
12042DOPC   D2A 3054  22.404   1.374   6.943
12042DOPC   C3A 3055  22.244   1.354   6.513
12042DOPC   C4A 3056  22.004   1.274   6.103
12042DOPC   C1B 3057  22.144   0.594   7.283
12042DOPC   D2B 3058  22.294   0.344   6.813
12042DOPC   C3B 3059  22.674   0.197   6.723
12042DOPC   C4B 3060  23.004   0.137   6.473
12043DOPC   NC3 3061  24.760   7.704   8.943
12043DOPC   PO4 3062  24.920   0.117   8.673
12043DOPC   GL1 3063  24.970   7.784   8.303
12043DOPC   GL2 3064   0.114   7.594   8.393
12043DOPC   C1A 3065   0.134   7.674   7.913
12043DOPC   D2A 3066   0.314   7.714   7.423
12043DOPC   C3A 3067   0.744   0.077   7.343
12043DOPC   C4A 3068   1.094   0.354   7.193
12043DOPC   C1B 3069   0.484   7.764   8.253
12043DOPC   D2B 3070   0.654   0.087   7.903
12043DOPC   C3B 3071   1.114   0.117   7.733
12043DOPC   C4B 3072   1.554   0.384   7.603
12044DOPC   NC3 3073   1.564   7.154  10.163
12044DOPC   PO4 3074   1.204   7.104  10.113
12044DOPC   GL1 3075   1.194   7.434   9.833
12044DOPC   GL2 3076   1.344   7.244   9.673
12044DOPC   C1A 3077   0.984   7.544   9.453
12044DOPC   D2A 3078   0.934   0.077   9.163
12044DOPC   C3A 3079   1.264   0.127   8.913
12044DOPC   C4A 3080   1.594   0.117   8.583
12044DOPC   C1B 3081   1.734   7.164   9.613
12044DOPC   D2B 3082   2.084   6.874   9.493
12044DOPC   C3B 3083   2.474   6.824   9.233
12044DOPC   C4B 3084   2.904   6.774   8.983
12045DOPC   NC3 3085  21.574   4.964   8.133
12045DOPC   PO4 3086  21.814   4.644   8.153
12045DOPC   GL1 3087  21.594   4.464   7.873
12045DOPC   GL2 3088  21.354   4.584   7.903
12045DOPC   C1A 3089  21.564   4.564   7.423
12045DOPC   D2A 3090  21.534   4.594   6.933
12045DOPC   C3A 3091  21.134   4.564   6.653
12045DOPC   C4A 3092  20.714   4.744   6.423
12045DOPC   C1B 3093  21.184   4.954   7.663
12045DOPC   D2B 3094  21.014   5.274   7.283
12045DOPC   C3B 3095  21.174   5.644   7.523
12045DOPC   C4B 3096  21.544   5.964   7.733
12046DOPC   NC3 3097   7.954   6.164  15.423
12046DOPC   PO4 3098   8.304   6.294  15.603
12046DOPC   GL1 3099   8.474   6.234  15.253
12046DOPC   GL2 3100   8.574   6.464  15.173
12046DOPC   C1A 3101   8.374   6.174  14.823
12046DOPC   D2A 3102   8.224   5.994  14.393
12046DOPC   C3A 3103   8.554   5.854  14.083
12046DOPC   C4A 3104   8.684   5.564  13.723
12046DOPC   C1B 3105   8.664   6.664  14.823
12046DOPC   D2B 3106   8.984   6.574  14.503
12046DOPC   C3B 3107   9.154   6.804  14.173
12046DOPC   C4B 3108   9.434   7.044  13.903
12047DOPC   NC3 3109   9.404   5.844  16.073
12047DOPC   PO4 3110   9.334   6.234  16.163
12047DOPC   GL1 3111   9.534   6.244  15.783
12047DOPC   GL2 3112   9.294   6.014  15.703
12047DOPC   C1A 3113  10.014   6.394  15.613
12047DOPC   D2A 3114  10.404   6.614  15.333
12047DOPC   C3A 3115  10.264   6.514  14.933
12047DOPC   C4A 3116   9.984   6.474  14.503
12047DOPC   C1B 3117   9.074   6.224  15.423
12047DOPC   D2B 3118   8.854   6.174  14.963
12047DOPC   C3B 3119   8.754   6.074  14.533
12047DOPC   C4B 3120   9.004   6.134  14.103
12048DOPC   NC3 3121  18.344   4.754  12.393
12048DOPC   PO4 3122  18.454   5.024  12.083
12048DOPC   GL1 3123  18.054   5.114  12.073
12048DOPC   GL2 3124  18.064   5.334  12.213
12048DOPC   C1A 3125  17.844   4.884  11.703
12048DOPC   D2A 3126  17.794   4.804  11.243
12048DOPC   C3A 3127  17.354   4.774  11.293
12048DOPC   C4A 3128  16.904   4.994  11.223
12048DOPC   C1B 3129  17.794   5.534  11.923
12048DOPC   D2B 3130  17.544   5.664  11.493
12048DOPC   C3B 3131  17.434   5.964  11.203
12048DOPC   C4B 3132  17.364   6.224  10.733
12049DOPC   NC3 3133   0.954   4.974   9.643
12049DOPC   PO4 3134   0.644   4.844   9.463
12049DOPC   GL1 3135   0.774   4.534   9.113
12049DOPC   GL2 3136   0.564   4.754   8.963
12049DOPC   C1A 3137   1.244   4.534   8.983
12049DOPC   D2A 3138   1.674   4.704   8.753
12049DOPC   C3A 3139   1.854   4.954   8.343
12049DOPC   C4A 3140   2.094   4.994   7.893
12049DOPC   C1B 3141   0.994   4.974   8.883
12049DOPC   D2B 3142   1.384   5.094   8.523
12049DOPC   C3B 3143   1.474   5.194   8.063
12049DOPC   C4B 3144   1.684   5.244   7.633
12050DOPC   NC3 3145  22.184   5.524   8.423
12050DOPC   PO4 3146  22.384   5.504   8.093
12050DOPC   GL1 3147  22.224   5.614   7.713
12050DOPC   GL2 3148  22.094   5.284   7.673
12050DOPC   C1A 3149  22.084   5.814   7.403
12050DOPC   D2A 3150  21.854   5.984   6.993
12050DOPC   C3A 3151  21.524   5.804   6.723
12050DOPC   C4A 3152  21.124   5.844   6.583
12050DOPC   C1B 3153  21.924   5.204   7.273
12050DOPC   D2B 3154  21.694   5.314   6.813
12050DOPC   C3B 3155  21.814   5.304   6.383
12050DOPC   C4B 3156  21.794   5.464   5.903
12051DOPC   NC3 3157   0.794   6.544   9.543
12051DOPC   PO4 3158   0.644   6.844   9.343
12051DOPC   GL1 3159   0.864   6.954   9.173
12051DOPC   GL2 3160   0.864   6.724   8.933
12051DOPC   C1A 3161   1.284   7.054   9.263
12051DOPC   D2A 3162   1.664   7.254   9.103
12051DOPC   C3A 3163   2.074   7.064   9.063
12051DOPC   C4A 3164   2.544   7.014   8.793
12051DOPC   C1B 3165   1.034   7.014   8.663
12051DOPC   D2B 3166   1.444   7.124   8.453
12051DOPC   C3B 3167   1.624   6.834   8.243
12051DOPC   C4B 3168   1.794   6.564   7.843
12052DOPC   NC3 3169  14.744   6.484  15.113
12052DOPC   PO4 3170  14.984   6.174  15.013
12052DOPC   GL1 3171  14.674   6.014  14.703
12052DOPC   GL2 3172  14.674   5.784  14.723
12052DOPC   C1A 3173  14.504   5.984  14.263
12052DOPC   D2A 3174  14.174   5.954  13.853
12052DOPC   C3A 3175  14.044   6.124  13.443
12052DOPC   C4A 3176  13.664   6.174  13.213
12052DOPC   C1B 3177  14.424   5.544  14.413
12052DOPC   D2B 3178  14.224   5.094  14.233
12052DOPC   C3B 3179  13.844   5.174  13.983
12052DOPC   C4B 3180  13.524   5.524  14.003
12053DOPC   NC3 3181  23.514   0.774   7.443
12053DOPC   PO4 3182  23.760   0.684   7.733
12053DOPC   GL1 3183  23.890   0.534   7.383
12053DOPC   GL2 3184  24.030   0.314   7.423
12053DOPC   C1A 3185  23.680   0.414   6.993
12053DOPC   D2A 3186  23.394   0.354   6.613
12053DOPC   C3A 3187  23.564   0.057   6.353
12053DOPC   C4A 3188  23.830   7.624   6.183
12053DOPC   C1B 3189  24.180   0.254   7.063
12053DOPC   D2B 3190  24.030   0.057   6.643
12053DOPC   C3B 3191  24.320   0.087   6.183
12053DOPC   C4B 3192  24.630   0.117   5.813
12054DOPC   NC3 3193  18.014   5.614  13.013
12054DOPC   PO4 3194  17.924   5.484  12.653
12054DOPC   GL1 3195  17.584   5.654  12.523
12054DOPC   GL2 3196  17.454   5.384  12.683
12054DOPC   C1A 3197  17.374   5.634  12.143
12054DOPC   D2A 3198  16.914   5.554  11.903
12054DOPC   C3A 3199  16.704   5.534  11.513
12054DOPC   C4A 3200  16.564   5.514  11.053
12054DOPC   C1B 3201  17.154   5.164  12.393
12054DOPC   D2B 3202  16.774   5.114  12.043
12054DOPC   C3B 3203  16.604   4.884  11.693
12054DOPC   C4B 3204  16.394   4.584  11.363
12055DOPC   NC3 3205  15.714   6.164  15.073
12055DOPC   PO4 3206  15.574   5.794  15.053
12055DOPC   GL1 3207  15.144   5.794  14.803
12055DOPC   GL2 3208  15.364   6.024  14.733
12055DOPC   C1A 3209  14.994   5.714  14.383
12055DOPC   D2A 3210  14.724   5.614  13.963
12055DOPC   C3A 3211  14.354   5.294  13.783
12055DOPC   C4A 3212  14.194   4.994  13.503
12055DOPC   C1B 3213  15.314   6.114  14.293
12055DOPC   D2B 3214  15.304   6.134  13.783
12055DOPC   C3B 3215  15.424   6.114  13.313
12055DOPC   C4B 3216  15.564   6.254  12.863
12056DOPC   NC3 3217   0.874   3.364   9.283
12056DOPC   PO4 3218   0.674   3.244   8.993
12056DOPC   GL1 3219   0.944   3.124   8.663
12056DOPC   GL2 3220   1.224   3.204   8.863
12056DOPC   C1A 3221   0.934   2.934   8.233
12056DOPC   D2A 3222   1.114   2.454   8.083
12056DOPC   C3A 3223   1.284   2.114   7.823
12056DOPC   C4A 3224   1.474   1.814   7.463
12056DOPC   C1B 3225   1.534   3.134   8.593
12056DOPC   D2B 3226   1.954   3.194   8.423
12056DOPC   C3B 3227   2.384   3.074   8.593
12056DOPC   C4B 3228   2.774   2.974   8.723
12057DOPC   NC3 3229   5.844   4.374  13.803
12057DOPC   PO4 3230   5.944   4.764  13.873
12057DOPC   GL1 3231   6.364   4.814  13.703
12057DOPC   GL2 3232   6.234   4.734  13.393
12057DOPC   C1A 3233   6.584   5.124  13.443
12057DOPC   D2A 3234   6.964   5.214  13.173
12057DOPC   C3A 3235   6.934   5.324  12.703
12057DOPC   C4A 3236   6.734   5.444  12.263
12057DOPC   C1B 3237   6.384   4.874  12.973
12057DOPC   D2B 3238   6.534   4.864  12.503
12057DOPC   C3B 3239   6.234   5.014  12.173
12057DOPC   C4B 3240   5.974   5.114  11.763
12058DOPC   NC3 3241   2.614   0.234  11.443
12058DOPC   PO4 3242   2.944   0.017  11.413
12058DOPC   GL1 3243   3.194   0.127  11.153
12058DOPC   GL2 3244   3.134   7.704  10.913
12058DOPC   C1A 3245   3.334   0.424  10.883
12058DOPC   D2A 3246   3.504   0.644  10.453
12058DOPC   C3A 3247   3.764   0.534  10.083
12058DOPC   C4A 3248   3.734   0.384   9.603
12058DOPC   C1B 3249   3.234   7.654  10.543
12058DOPC   D2B 3250   3.494   7.384  10.193
12058DOPC   C3B 3251   3.624   6.944  10.173
12058DOPC   C4B 3252   3.574   6.454  10.193
12059DOPC   NC3 3253  23.454   6.334   7.863
12059DOPC   PO4 3254  23.740   6.064   7.913
12059DOPC   GL1 3255  23.900   5.814   7.593
12059DOPC   GL2 3256  23.610   5.854   7.523
12059DOPC   C1A 3257  24.030   6.074   7.323
12059DOPC   D2A 3258  24.280   6.044   6.923
12059DOPC   C3A 3259  24.310   6.504   6.713
12059DOPC   C4A 3260  24.620   6.684   6.383
12059DOPC   C1B 3261  23.570   5.814   7.113
12059DOPC   D2B 3262  23.374   5.894   6.723
12059DOPC   C3B 3263  23.424   5.544   6.383
12059DOPC   C4B 3264  23.544   5.114   6.363
12060DOPC   NC3 3265  11.724   0.354  16.223
12060DOPC   PO4 3266  11.664   0.684  16.293
12060DOPC   GL1 3267  11.664   0.734  15.883
12060DOPC   GL2 3268  11.914   0.664  15.843
12060DOPC   C1A 3269  11.394   0.704  15.583
12060DOPC   D2A 3270  11.154   0.614  15.143
12060DOPC   C3A 3271  11.524   0.744  14.843
12060DOPC   C4A 3272  11.744   0.974  14.533
12060DOPC   C1B 3273  12.244   0.744  15.533
12060DOPC   D2B 3274  12.374   0.744  15.053
12060DOPC   C3B 3275  12.114   0.634  14.673
12060DOPC   C4B 3276  12.074   0.197  14.413
12061DOPC   NC3 3277  20.264   2.914  10.153
12061DOPC   PO4 3278  19.894   2.774  10.223
12061DOPC   GL1 3279  19.584   2.734  10.133
12061DOPC   GL2 3280  19.504   2.494  10.373
12061DOPC   C1A 3281  19.384   2.554   9.743
12061DOPC   D2A 3282  19.034   2.404   9.443
12061DOPC   C3A 3283  18.684   2.454   9.193
12061DOPC   C4A 3284  18.184   2.524   9.283
12061DOPC   C1B 3285  19.074   2.494  10.223
12061DOPC   D2B 3286  18.864   2.654   9.853
12061DOPC   C3B 3287  18.594   2.984   9.973
12061DOPC   C4B 3288  18.184   3.244  10.003
12062DOPC   NC3 3289  16.914   1.714  13.533
12062DOPC   PO4 3290  16.844   1.484  13.863
12062DOPC   GL1 3291  16.674   1.324  13.553
12062DOPC   GL2 3292  16.454   1.194  13.693
12062DOPC   C1A 3293  16.394   1.604  13.263
12062DOPC   D2A 3294  16.074   1.694  12.913
12062DOPC   C3A 3295  15.884   1.704  12.493
12062DOPC   C4A 3296  15.834   1.524  12.033
12062DOPC   C1B 3297  16.064   1.334  13.463
12062DOPC   D2B 3298  15.674   1.654  13.273
12062DOPC   C3B 3299  15.764   1.324  12.943
12062DOPC   C4B 3300  15.624   1.024  12.543
12063DOPS   CNO 3301  21.164   7.404   9.183
12063DOPS   PO4 3302  21.094   7.034   9.073
12063DOPS   GL1 3303  20.684   6.964   9.013
12063DOPS   GL2 3304  20.654   7.194   8.863
12063DOPS   C1A 3305  20.294   6.844   8.863
12063DOPS   D2A 3306  19.824   7.024   8.693
12063DOPS   C3A 3307  19.474   7.044   8.373
12063DOPS   C4A 3308  19.314   7.054   7.883
12063DOPS   C1B 3309  20.434   7.134   8.433
12063DOPS   D2B 3310  20.044   7.064   8.113
12063DOPS   C3B 3311  19.804   7.154   7.703
12063DOPS   C4B 3312  19.444   7.154   7.433
12064DOPS   CNO 3313  13.994   6.514  15.513
12064DOPS   PO4 3314  14.364   6.514  15.433
12064DOPS   GL1 3315  14.294   6.414  14.983
12064DOPS   GL2 3316  13.974   6.434  14.983
12064DOPS   C1A 3317  14.464   6.434  14.603
12064DOPS   D2A 3318  14.464   6.474  14.133
12064DOPS   C3A 3319  14.074   6.434  13.873
12064DOPS   C4A 3320  13.604   6.394  13.683
12064DOPS   C1B 3321  13.744   6.764  14.763
12064DOPS   D2B 3322  13.484   7.004  14.383
12064DOPS   C3B 3323  13.004   7.134  14.473
12064DOPS   C4B 3324  12.554   7.224  14.413
12065DOPS   CNO 3325  22.074   2.844   8.433
12065DOPS   PO4 3326  21.854   2.534   8.503
12065DOPS   GL1 3327  21.504   2.604   8.263
12065DOPS   GL2 3328  21.404   2.814   8.403
12065DOPS   C1A 3329  21.264   2.544   7.913
12065DOPS   D2A 3330  20.954   2.354   7.603
12065DOPS   C3A 3331  20.704   2.444   7.203
12065DOPS   C4A 3332  20.564   2.584   6.733
12065DOPS   C1B 3333  21.094   2.974   8.113
12065DOPS   D2B 3334  20.934   2.874   7.653
12065DOPS   C3B 3335  21.284   2.684   7.423
12065DOPS   C4B 3336  21.584   2.584   7.053
12066DOPS   CNO 3337  17.224   7.774  14.363
12066DOPS   PO4 3338  16.984   7.504  14.223
12066DOPS   GL1 3339  17.124   7.214  13.913
12066DOPS   GL2 3340  17.184   6.974  14.013
12066DOPS   C1A 3341  16.804   7.264  13.613
12066DOPS   D2A 3342  16.404   7.394  13.273
12066DOPS   C3A 3343  16.264   7.014  13.003
12066DOPS   C4A 3344  16.004   6.754  12.623
12066DOPS   C1B 3345  16.944   6.794  13.663
12066DOPS   D2B 3346  16.674   6.924  13.233
12066DOPS   C3B 3347  16.704   6.924  12.713
12066DOPS   C4B 3348  16.424   7.014  12.303
12067DOPS   CNO 3349  18.334   1.504  12.353
12067DOPS   PO4 3350  18.494   1.874  12.353
12067DOPS   GL1 3351  18.344   1.994  11.923
12067DOPS   GL2 3352  18.404   1.624  11.873
12067DOPS   C1A 3353  18.014   2.084  11.733
12067DOPS   D2A 3354  18.044   2.444  11.343
12067DOPS   C3A 3355  17.984   2.394  10.853
12067DOPS   C4A 3356  17.744   2.514  10.483
12067DOPS   C1B 3357  17.974   1.474  11.853
12067DOPS   D2B 3358  17.544   1.624  11.613
12067DOPS   C3B 3359  17.164   1.504  11.353
12067DOPS   C4B 3360  17.134   1.304  10.893
12068DOPS   CNO 3361   6.084   0.684  14.343
12068DOPS   PO4 3362   6.224   0.334  14.413
12068DOPS   GL1 3363   6.554   0.464  14.183
12068DOPS   GL2 3364   6.384   0.584  14.003
12068DOPS   C1A 3365   6.844   0.204  13.923
12068DOPS   D2A 3366   7.134   0.147  13.573
12068DOPS   C3A 3367   7.444   0.314  13.283
12068DOPS   C4A 3368   7.494   0.684  12.973
12068DOPS   C1B 3369   6.204   0.354  13.603
12068DOPS   D2B 3370   6.154   0.454  13.083
12068DOPS   C3B 3371   6.524   0.304  12.873
12068DOPS   C4B 3372   6.874   7.814  12.953
12069DOPS   CNO 3373   0.114   7.424   9.223
12069DOPS   PO4 3374   0.454   7.254   9.113
12069DOPS   GL1 3375   0.804   7.474   8.993
12069DOPS   GL2 3376   0.664   7.394   8.723
12069DOPS   C1A 3377   1.234   7.454   8.833
12069DOPS   D2A 3378   1.724   7.474   8.613
12069DOPS   C3A 3379   2.114   7.274   8.543
12069DOPS   C4A 3380   2.504   7.134   8.313
12069DOPS   C1B 3381   0.874   7.534   8.373
12069DOPS   D2B 3382   1.124   7.484   7.883
12069DOPS   C3B 3383   1.504   7.614   7.633
12069DOPS   C4B 3384   1.984   7.444   7.573
12070DOPS   CNO 3385   7.604   4.124  15.483
12070DOPS   PO4 3386   7.344   4.034  15.253
12070DOPS   GL1 3387   7.534   4.094  14.853
12070DOPS   GL2 3388   7.544   3.854  14.723
12070DOPS   C1A 3389   7.444   4.394  14.553
12070DOPS   D2A 3390   7.744   4.494  14.153
12070DOPS   C3A 3391   7.924   4.354  13.743
12070DOPS   C4A 3392   8.334   4.324  13.433
12070DOPS   C1B 3393   7.534   3.894  14.293
12070DOPS   D2B 3394   7.584   3.934  13.753
12070DOPS   C3B 3395   7.604   3.604  13.443
12070DOPS   C4B 3396   7.704   3.394  13.013
12071DOPS   CNO 3397  21.004   1.444   9.343
12071DOPS   PO4 3398  20.964   1.804   9.503
12071DOPS   GL1 3399  20.624   1.824   9.433
12071DOPS   GL2 3400  20.534   1.584   9.323
12071DOPS   C1A 3401  20.404   2.044   9.133
12071DOPS   D2A 3402  20.054   2.114   8.783
12071DOPS   C3A 3403  19.634   2.304   8.923
12071DOPS   C4A 3404  19.224   2.054   9.053
12071DOPS   C1B 3405  20.104   1.724   9.083
12071DOPS   D2B 3406  19.714   1.684   8.813
12071DOPS   C3B 3407  19.494   1.844   8.463
12071DOPS   C4B 3408  19.064   2.064   8.193
12072DOPS   CNO 3409   0.504   5.784   9.793
12072DOPS   PO4 3410   0.684   6.024   9.553
12072DOPS   GL1 3411   1.024   5.984   9.293
12072DOPS   GL2 3412   1.194   5.824   9.433
12072DOPS   C1A 3413   1.074   6.044   8.863
12072DOPS   D2A 3414   1.084   6.104   8.333
12072DOPS   C3A 3415   1.344   6.164   7.993
12072DOPS   C4A 3416   1.604   6.134   7.593
12072DOPS   C1B 3417   1.524   5.944   9.263
12072DOPS   D2B 3418   1.684   6.164   8.893
12072DOPS   C3B 3419   2.144   6.134   8.663
12072DOPS   C4B 3420   2.624   6.014   8.583
12073DOPS   CNO 3421   1.454   0.954  10.523
12073DOPS   PO4 3422   1.784   1.064  10.603
12073DOPS   GL1 3423   1.944   1.314  10.433
12073DOPS   GL2 3424   1.754   1.324  10.263
12073DOPS   C1A 3425   2.354   1.454  10.213
12073DOPS   D2A 3426   2.704   1.604   9.883
12073DOPS   C3A 3427   3.074   1.624   9.543
12073DOPS   C4A 3428   3.454   1.724   9.243
12073DOPS   C1B 3429   1.984   1.184   9.913
12073DOPS   D2B 3430   2.324   1.354   9.623
12073DOPS   C3B 3431   2.724   1.234   9.393
12073DOPS   C4B 3432   2.674   0.784   9.143
12074DOPS   CNO 3433  10.094   6.624  16.433
12074DOPS   PO4 3434  10.404   6.384  16.523
12074DOPS   GL1 3435  10.654   6.514  16.213
12074DOPS   GL2 3436  10.634   6.764  16.213
12074DOPS   C1A 3437  10.714   6.314  15.773
12074DOPS   D2A 3438  10.664   6.184  15.303
12074DOPS   C3A 3439  10.654   6.004  14.873
12074DOPS   C4A 3440  10.704   5.794  14.413
12074DOPS   C1B 3441  10.904   6.834  15.873
12074DOPS   D2B 3442  11.274   7.104  15.683
12074DOPS   C3B 3443  11.654   6.964  15.563
12074DOPS   C4B 3444  12.014   6.714  15.433
12075DOPS   CNO 3445   0.654   2.954   9.423
12075DOPS   PO4 3446   1.004   2.764   9.513
12075DOPS   GL1 3447   1.214   2.924   9.173
12075DOPS   GL2 3448   0.964   2.934   9.073
12075DOPS   C1A 3449   1.564   2.734   8.953
12075DOPS   D2A 3450   1.614   2.394   8.543
12075DOPS   C3A 3451   1.764   2.154   8.133
12075DOPS   C4A 3452   1.944   1.964   7.703
12075DOPS   C1B 3453   1.124   2.694   8.683
12075DOPS   D2B 3454   1.494   2.764   8.273
12075DOPS   C3B 3455   1.864   2.634   8.043
12075DOPS   C4B 3456   2.154   2.564   7.623
12076DOPS   CNO 3457  23.284   1.064   7.863
12076DOPS   PO4 3458  23.164   1.254   7.543
12076DOPS   GL1 3459  23.104   1.054   7.233
12076DOPS   GL2 3460  22.854   1.154   7.163
12076DOPS   C1A 3461  23.324   0.934   6.853
12076DOPS   D2A 3462  23.254   0.814   6.323
12076DOPS   C3A 3463  23.234   0.364   6.073
12076DOPS   C4A 3464  23.154   7.724   6.083
12076DOPS   C1B 3465  22.794   1.114   6.713
12076DOPS   D2B 3466  22.784   0.994   6.273
12076DOPS   C3B 3467  22.844   0.724   5.933
12076DOPS   C4B 3468  22.664   0.274   5.773
12077DOPS   CNO 3469  20.974   0.107   8.533
12077DOPS   PO4 3470  21.024   0.404   8.723
12077DOPS   GL1 3471  20.654   0.544   8.503
12077DOPS   GL2 3472  20.714   0.394   8.283
12077DOPS   C1A 3473  20.244   0.614   8.273
12077DOPS   D2A 3474  19.924   0.544   7.903
12077DOPS   C3A 3475  19.924   0.474   7.433
12077DOPS   C4A 3476  19.764   0.464   6.973
12077DOPS   C1B 3477  20.544   0.234   7.943
12077DOPS   D2B 3478  20.384   0.514   7.563
12077DOPS   C3B 3479  20.144   0.914   7.583
12077DOPS   C4B 3480  19.894   1.294   7.603
12078DOPS   CNO 3481  15.804   0.804  15.103
12078DOPS   PO4 3482  15.634   0.484  15.213
12078DOPS   GL1 3483  15.454   0.264  14.903
12078DOPS   GL2 3484  15.134   0.324  15.013
12078DOPS   C1A 3485  15.324   0.324  14.453
12078DOPS   D2A 3486  15.244   0.334  13.973
12078DOPS   C3A 3487  14.924   0.464  13.633
12078DOPS   C4A 3488  14.464   0.374  13.433
12078DOPS   C1B 3489  14.934   0.374  14.703
12078DOPS   D2B 3490  14.534   0.594  14.453
12078DOPS   C3B 3491  14.234   0.324  14.273
12078DOPS   C4B 3492  14.114   0.264  13.783
12079DOPS   CNO 3493  17.014   2.684  14.343
12079DOPS   PO4 3494  16.774   2.404  14.353
12079DOPS   GL1 3495  16.404   2.234  14.193
12079DOPS   GL2 3496  16.404   1.994  14.093
12079DOPS   C1A 3497  15.974   2.094  14.363
12079DOPS   D2A 3498  15.524   1.934  14.473
12079DOPS   C3A 3499  15.154   1.864  14.263
12079DOPS   C4A 3500  14.814   1.574  13.993
12079DOPS   C1B 3501  16.494   2.124  13.633
12079DOPS   D2B 3502  16.254   2.094  13.213
12079DOPS   C3B 3503  15.814   2.094  13.063
12079DOPS   C4B 3504  15.474   1.864  12.843
12080DOPS   CNO 3505   4.504   2.244  12.753
12080DOPS   PO4 3506   4.654   1.954  12.973
12080DOPS   GL1 3507   4.924   1.794  12.733
12080DOPS   GL2 3508   5.074   1.654  12.983
12080DOPS   C1A 3509   5.304   1.864  12.453
12080DOPS   D2A 3510   5.714   1.704  12.393
12080DOPS   C3A 3511   5.594   1.544  11.933
12080DOPS   C4A 3512   5.684   1.244  11.483
12080DOPS   C1B 3513   5.294   1.424  12.693
12080DOPS   D2B 3514   5.594   1.184  12.363
12080DOPS   C3B 3515   5.744   1.024  11.993
12080DOPS   C4B 3516   5.984   0.774  11.623
12081DOPS   CNO 3517   0.774   1.144   9.903
12081DOPS   PO4 3518   0.994   0.854   9.833
12081DOPS   GL1 3519   1.284   0.624   9.643
12081DOPS   GL2 3520   1.324   0.494   9.833
12081DOPS   C1A 3521   1.564   0.404   9.313
12081DOPS   D2A 3522   1.914   0.414   8.893
12081DOPS   C3A 3523   1.904   0.544   8.453
12081DOPS   C4A 3524   1.884   0.684   7.923
12081DOPS   C1B 3525   1.754   0.284   9.743
12081DOPS   D2B 3526   2.174   0.187   9.513
12081DOPS   C3B 3527   2.374   0.304   9.083
12081DOPS   C4B 3528   2.474   0.244   8.623
12082DOPS   CNO 3529  15.224   1.284  15.933
12082DOPS   PO4 3530  15.044   1.314  15.563
12082DOPS   GL1 3531  14.944   1.494  15.223
12082DOPS   GL2 3532  14.844   1.334  15.103
12082DOPS   C1A 3533  14.894   1.754  14.913
12082DOPS   D2A 3534  14.814   2.144  14.633
12082DOPS   C3A 3535  14.544   2.474  14.453
12082DOPS   C4A 3536  14.324   2.894  14.483
12082DOPS   C1B 3537  14.454   1.504  14.933
12082DOPS   D2B 3538  14.024   1.714  14.663
12082DOPS   C3B 3539  13.734   1.914  14.353
12082DOPS   C4B 3540  13.644   2.324  14.023
12083DOPS   CNO 3541  22.054   1.364   8.253
12083DOPS   PO4 3542  21.694   1.344   8.213
12083DOPS   GL1 3543  21.634   1.384   7.813
12083DOPS   GL2 3544  21.574   1.124   7.703
12083DOPS   C1A 3545  21.794   1.734   7.643
12083DOPS   D2A 3546  22.084   2.034   7.383
12083DOPS   C3A 3547  22.164   2.334   6.973
12083DOPS   C4A 3548  21.914   2.544   6.573
12083DOPS   C1B 3549  21.864   0.964   7.423
12083DOPS   D2B 3550  22.094   0.924   6.963
12083DOPS   C3B 3551  21.584   0.854   6.983
12083DOPS   C4B 3552  21.314   1.164   7.233
12084DOPS   CNO 3553   1.504   5.354  10.503
12084DOPS   PO4 3554   1.374   4.964  10.453
12084DOPS   GL1 3555   1.654   4.684  10.173
12084DOPS   GL2 3556   1.804   4.764  10.443
12084DOPS   C1A 3557   1.724   4.734   9.743
12084DOPS   D2A 3558   2.004   4.644   9.393
12084DOPS   C3A 3559   2.194   4.814   9.003
12084DOPS   C4A 3560   2.594   4.754   8.733
12084DOPS   C1B 3561   2.064   4.684  10.103
12084DOPS   D2B 3562   2.264   4.374   9.733
12084DOPS   C3B 3563   2.424   4.434   9.283
12084DOPS   C4B 3564   2.704   4.344   8.923
12085DOPS   CNO 3565  15.504   3.434  15.433
12085DOPS   PO4 3566  15.134   3.484  15.283
12085DOPS   GL1 3567  14.944   3.784  15.033
12085DOPS   GL2 3568  15.104   3.704  14.783
12085DOPS   C1A 3569  14.494   3.664  14.953
12085DOPS   D2A 3570  14.154   3.754  14.543
12085DOPS   C3A 3571  13.964   3.774  14.113
12085DOPS   C4A 3572  14.184   3.914  13.643
12085DOPS   C1B 3573  14.794   3.854  14.543
12085DOPS   D2B 3574  14.474   3.724  14.083
12085DOPS   C3B 3575  14.564   3.524  13.693
12085DOPS   C4B 3576  14.504   3.174  13.333
12086DOPS   CNO 3577   4.384   3.854  13.143
12086DOPS   PO4 3578   4.564   4.174  13.233
12086DOPS   GL1 3579   4.864   4.064  12.893
12086DOPS   GL2 3580   4.884   3.724  12.933
12086DOPS   C1A 3581   5.184   4.114  12.623
12086DOPS   D2A 3582   5.454   4.214  12.203
12086DOPS   C3A 3583   5.924   4.184  12.163
12086DOPS   C4A 3584   6.394   4.034  12.003
12086DOPS   C1B 3585   4.994   3.544  12.563
12086DOPS   D2B 3586   5.134   3.414  12.113
12086DOPS   C3B 3587   5.384   3.334  11.733
12086DOPS   C4B 3588   5.574   3.174  11.293
12087DOPS   CNO 3589   4.424   5.504  13.313
12087DOPS   PO4 3590   4.214   5.614  12.993
12087DOPS   GL1 3591   4.444   5.734  12.673
12087DOPS   GL2 3592   4.274   5.794  12.523
12087DOPS   C1A 3593   4.704   5.564  12.353
12087DOPS   D2A 3594   4.784   5.424  11.853
12087DOPS   C3A 3595   5.104   5.734  11.723
12087DOPS   C4A 3596   5.524   5.864  11.383
12087DOPS   C1B 3597   4.424   5.904  12.103
12087DOPS   D2B 3598   4.694   6.064  11.763
12087DOPS   C3B 3599   5.094   6.164  11.423
12087DOPS   C4B 3600   5.444   6.304  11.013
12088DOPC   NC3 3601   1.894   1.644   4.363
12088DOPC   PO4 3602   1.854   1.464   4.723
12088DOPC   GL1 3603   2.064   1.474   5.123
12088DOPC   GL2 3604   1.924   1.284   5.253
12088DOPC   C1A 3605   2.114   1.784   5.463
12088DOPC   D2A 3606   2.124   1.764   6.003
12088DOPC   C3A 3607   1.854   1.514   6.263
12088DOPC   C4A 3608   1.804   1.144   6.563
12088DOPC   C1B 3609   1.554   1.264   5.473
12088DOPC   D2B 3610   1.334   1.284   5.893
12088DOPC   C3B 3611   1.404   1.054   6.293
12088DOPC   C4B 3612   1.294   0.804   6.603
12089DOPC   NC3 3613  18.274   6.754   6.193
12089DOPC   PO4 3614  18.364   6.654   5.803
12089DOPC   GL1 3615  18.644   6.904   5.733
12089DOPC   GL2 3616  18.844   6.714   5.603
12089DOPC   C1A 3617  18.684   7.184   6.093
12089DOPC   D2A 3618  18.754   7.384   6.553
12089DOPC   C3A 3619  18.564   7.354   6.933
12089DOPC   C4A 3620  18.624   7.444   7.403
12089DOPC   C1B 3621  19.234   6.884   5.783
12089DOPC   D2B 3622  19.624   7.084   5.973
12089DOPC   C3B 3623  19.924   7.104   5.643
12089DOPC   C4B 3624  20.454   7.084   5.753
12090DOPC   NC3 3625  14.654   1.214  10.513
12090DOPC   PO4 3626  14.744   0.894  10.723
12090DOPC   GL1 3627  14.864   0.864  11.083
12090DOPC   GL2 3628  14.774   1.184  11.053
12090DOPC   C1A 3629  14.874   0.824  11.463
12090DOPC   D2A 3630  15.044   0.484  11.773
12090DOPC   C3A 3631  15.204   0.454  12.253
12090DOPC   C4A 3632  15.224   0.107  12.623
12090DOPC   C1B 3633  14.924   1.344  11.463
12090DOPC   D2B 3634  14.844   1.334  12.013
12090DOPC   C3B 3635  14.544   1.184  12.313
12090DOPC   C4B 3636  14.194   1.074  12.643
12091DOPC   NC3 3637  11.774   3.854  12.383
12091DOPC   PO4 3638  11.804   3.454  12.293
12091DOPC   GL1 3639  11.824   3.304  12.623
12091DOPC   GL2 3640  11.564   3.574  12.683
12091DOPC   C1A 3641  12.104   3.214  12.863
12091DOPC   D2A 3642  12.464   3.314  13.183
12091DOPC   C3A 3643  12.534   3.264  13.633
12091DOPC   C4A 3644  12.964   3.244  13.943
12091DOPC   C1B 3645  11.484   3.634  13.123
12091DOPC   D2B 3646  11.214   3.794  13.503
12091DOPC   C3B 3647  11.414   3.904  13.893
12091DOPC   C4B 3648  11.754   4.084  14.233
12092DOPC   NC3 3649  13.744   4.414  11.723
12092DOPC   PO4 3650  13.674   4.074  11.603
12092DOPC   GL1 3651  13.814   3.974  11.963
12092DOPC   GL2 3652  13.594   3.804  12.103
12092DOPC   C1A 3653  14.034   3.894  12.313
12092DOPC   D2A 3654  14.024   3.764  12.803
12092DOPC   C3A 3655  14.214   4.074  13.113
12092DOPC   C4A 3656  14.174   4.434  13.403
12092DOPC   C1B 3657  13.624   3.614  12.483
12092DOPC   D2B 3658  13.834   3.334  12.793
12092DOPC   C3B 3659  14.004   3.464  13.193
12092DOPC   C4B 3660  14.084   3.434  13.653
12093DOPC   NC3 3661   9.694   4.804  11.093
12093DOPC   PO4 3662   9.884   5.014  11.403
12093DOPC   GL1 3663   9.804   5.274  11.793
12093DOPC   GL2 3664  10.084   5.174  11.803
12093DOPC   C1A 3665   9.494   5.414  12.103
12093DOPC   D2A 3666   9.184   5.334  12.463
12093DOPC   C3A 3667   8.864   5.264  12.823
12093DOPC   C4A 3668   8.584   5.384  13.223
12093DOPC   C1B 3669   9.924   5.014  12.163
12093DOPC   D2B 3670   9.524   4.914  12.553
12093DOPC   C3B 3671   9.224   4.924  12.893
12093DOPC   C4B 3672   9.234   5.094  13.363
12094DOPC   NC3 3673  15.134   2.264  10.363
12094DOPC   PO4 3674  15.374   2.004  10.193
12094DOPC   GL1 3675  15.744   2.074  10.293
12094DOPC   GL2 3676  15.814   1.794  10.433
12094DOPC   C1A 3677  16.134   2.254  10.363
12094DOPC   D2A 3678  16.374   2.594  10.593
12094DOPC   C3A 3679  16.524   2.624  11.073
12094DOPC   C4A 3680  16.624   2.834  11.583
12094DOPC   C1B 3681  15.874   1.714  10.843
12094DOPC   D2B 3682  15.794   1.544  11.283
12094DOPC   C3B 3683  16.104   1.324  11.553
12094DOPC   C4B 3684  16.534   1.144  11.683
12095DOPC   NC3 3685  18.654   3.634   5.803
12095DOPC   PO4 3686  19.044   3.584   5.963
12095DOPC   GL1 3687  19.154   3.814   6.333
12095DOPC   GL2 3688  19.404   3.654   6.313
12095DOPC   C1A 3689  19.124   3.944   6.763
12095DOPC   D2A 3690  19.074   4.324   7.113
12095DOPC   C3A 3691  19.444   4.464   7.343
12095DOPC   C4A 3692  19.774   4.504   7.703
12095DOPC   C1B 3693  19.564   3.734   6.693
12095DOPC   D2B 3694  19.374   3.914   7.133
12095DOPC   C3B 3695  19.624   3.604   7.443
12095DOPC   C4B 3696  19.984   3.444   7.813
12096DOPC   NC3 3697  16.824   5.954   7.873
12096DOPC   PO4 3698  16.764   5.584   7.863
12096DOPC   GL1 3699  17.114   5.514   8.073
12096DOPC   GL2 3700  17.134   5.754   8.223
12096DOPC   C1A 3701  17.404   5.294   8.273
12096DOPC   D2A 3702  17.754   5.084   8.633
12096DOPC   C3A 3703  18.124   5.164   8.923
12096DOPC   C4A 3704  18.444   5.084   9.303
12096DOPC   C1B 3705  17.314   5.754   8.623
12096DOPC   D2B 3706  17.684   5.924   9.023
12096DOPC   C3B 3707  18.094   6.044   9.183
12096DOPC   C4B 3708  18.544   5.894   9.333
12097DOPC   NC3 3709  14.164   3.724  11.493
12097DOPC   PO4 3710  14.244   3.394  11.263
12097DOPC   GL1 3711  14.504   3.154  11.273
12097DOPC   GL2 3712  14.294   2.914  11.303
12097DOPC   C1A 3713  14.784   3.184  11.573
12097DOPC   D2A 3714  14.864   3.324  12.023
12097DOPC   C3A 3715  15.234   3.464  12.313
12097DOPC   C4A 3716  15.424   3.294  12.803
12097DOPC   C1B 3717  14.494   2.804  11.653
12097DOPC   D2B 3718  14.804   2.834  12.013
12097DOPC   C3B 3719  14.974   2.714  12.403
12097DOPC   C4B 3720  15.004   2.534  12.823
12098DOPC   NC3 3721   0.334   5.334   4.323
12098DOPC   PO4 3722   0.624   5.144   4.543
12098DOPC   GL1 3723   0.774   5.014   4.883
12098DOPC   GL2 3724   0.494   4.944   4.953
12098DOPC   C1A 3725   0.854   5.324   5.193
12098DOPC   D2A 3726   0.674   5.544   5.563
12098DOPC   C3A 3727   0.274   5.714   5.653
12098DOPC   C4A 3728   0.134   6.134   5.893
12098DOPC   C1B 3729   0.144   4.904   5.303
12098DOPC   D2B 3730  24.820   4.984   5.653
12098DOPC   C3B 3731  24.530   5.294   5.523
12098DOPC   C4B 3732  24.110   5.494   5.563
12099DOPC   NC3 3733  12.314   6.014  11.643
12099DOPC   PO4 3734  12.084   5.824  11.883
12099DOPC   GL1 3735  12.144   5.784  12.313
12099DOPC   GL2 3736  11.964   6.044  12.353
12099DOPC   C1A 3737  12.284   5.444  12.583
12099DOPC   D2A 3738  12.544   5.414  12.993
12099DOPC   C3A 3739  12.734   5.214  13.383
12099DOPC   C4A 3740  13.054   5.274  13.733
12099DOPC   C1B 3741  11.954   5.844  12.783
12099DOPC   D2B 3742  11.884   5.634  13.153
12099DOPC   C3B 3743  12.184   5.654  13.483
12099DOPC   C4B 3744  12.154   5.764  14.013
12100DOPC   NC3 3745  13.444   2.194  11.673
12100DOPC   PO4 3746  13.724   2.064  11.423
12100DOPC   GL1 3747  14.014   1.954  11.673
12100DOPC   GL2 3748  13.924   2.124  11.943
12100DOPC   C1A 3749  14.484   2.014  11.783
12100DOPC   D2A 3750  14.994   1.844  11.703
12100DOPC   C3A 3751  15.204   1.714  12.063
12100DOPC   C4A 3752  15.394   1.514  12.523
12100DOPC   C1B 3753  14.224   1.914  12.133
12100DOPC   D2B 3754  14.674   1.774  12.263
12100DOPC   C3B 3755  14.934   1.494  12.593
12100DOPC   C4B 3756  15.044   1.534  13.053
12101DOPC   NC3 3757  11.264   7.214  12.313
12101DOPC   PO4 3758  10.954   7.024  12.193
12101DOPC   GL1 3759  10.834   7.014  12.603
12101DOPC   GL2 3760  10.974   7.304  12.703
12101DOPC   C1A 3761  10.774   6.724  12.923
12101DOPC   D2A 3762  10.844   6.324  13.273
12101DOPC   C3A 3763  11.124   6.514  13.643
12101DOPC   C4A 3764  11.394   6.774  13.973
12101DOPC   C1B 3765  10.994   7.174  13.183
12101DOPC   D2B 3766  10.814   6.864  13.523
12101DOPC   C3B 3767  10.464   7.014  13.823
12101DOPC   C4B 3768   9.974   7.004  13.933
12102DOPC   NC3 3769  14.564   7.324  10.103
12102DOPC   PO4 3770  14.504   7.094  10.433
12102DOPC   GL1 3771  14.794   7.094  10.743
12102DOPC   GL2 3772  14.964   7.384  10.593
12102DOPC   C1A 3773  15.134   6.944  10.893
12102DOPC   D2A 3774  15.584   6.984  11.013
12102DOPC   C3A 3775  15.934   7.084  11.303
12102DOPC   C4A 3776  16.314   7.144  11.583
12102DOPC   C1B 3777  15.324   7.494  10.773
12102DOPC   D2B 3778  15.764   7.504  10.903
12102DOPC   C3B 3779  16.164   7.504  11.133
12102DOPC   C4B 3780  16.634   7.424  11.333
12103DOPC   NC3 3781  22.874   6.954   3.703
12103DOPC   PO4 3782  23.174   7.154   3.903
12103DOPC   GL1 3783  23.324   6.984   4.223
12103DOPC   GL2 3784  23.580   6.924   4.173
12103DOPC   C1A 3785  23.084   6.964   4.633
12103DOPC   D2A 3786  22.814   7.214   4.993
12103DOPC   C3A 3787  22.654   7.054   5.423
12103DOPC   C4A 3788  22.424   7.084   5.863
12103DOPC   C1B 3789  23.610   6.894   4.653
12103DOPC   D2B 3790  23.414   6.934   5.103
12103DOPC   C3B 3791  23.134   7.214   5.363
12103DOPC   C4B 3792  22.874   7.514   5.643
12104DOPC   NC3 3793  23.990   4.964   3.753
12104DOPC   PO4 3794  24.170   5.354   3.703
12104DOPC   GL1 3795  23.960   5.474   4.083
12104DOPC   GL2 3796  24.120   5.654   4.183
12104DOPC   C1A 3797  23.730   5.244   4.353
12104DOPC   D2A 3798  23.660   4.964   4.763
12104DOPC   C3A 3799  23.304   5.034   5.093
12104DOPC   C4A 3800  22.874   5.154   5.343
12104DOPC   C1B 3801  23.910   5.724   4.613
12104DOPC   D2B 3802  23.910   5.614   5.113
12104DOPC   C3B 3803  23.670   5.324   5.443
12104DOPC   C4B 3804  23.284   5.114   5.683
12105DOPC   NC3 3805  13.184   1.454  11.973
12105DOPC   PO4 3806  13.284   1.194  11.683
12105DOPC   GL1 3807  13.694   1.134  11.943
12105DOPC   GL2 3808  13.624   1.334  12.113
12105DOPC   C1A 3809  14.004   0.894  12.173
12105DOPC   D2A 3810  14.384   0.704  12.373
12105DOPC   C3A 3811  14.764   0.834  12.613
12105DOPC   C4A 3812  14.894   0.654  13.093
12105DOPC   C1B 3813  13.804   1.334  12.533
12105DOPC   D2B 3814  13.984   1.374  12.983
12105DOPC   C3B 3815  14.274   1.064  13.223
12105DOPC   C4B 3816  14.594   0.824  13.463
12106DOPC   NC3 3817   4.614   3.134   7.313
12106DOPC   PO4 3818   4.484   2.714   7.363
12106DOPC   GL1 3819   4.024   2.544   7.393
12106DOPC   GL2 3820   4.144   2.404   7.583
12106DOPC   C1A 3821   3.874   2.764   7.753
12106DOPC   D2A 3822   3.794   2.784   8.273
12106DOPC   C3A 3823   3.604   2.954   8.623
12106DOPC   C4A 3824   3.314   2.994   9.003
12106DOPC   C1B 3825   3.914   2.324   7.953
12106DOPC   D2B 3826   3.424   2.254   8.113
12106DOPC   C3B 3827   3.124   2.554   8.303
12106DOPC   C4B 3828   2.624   2.614   8.383
12107DOPC   NC3 3829  18.934   4.064   5.703
12107DOPC   PO4 3830  19.234   4.174   5.973
12107DOPC   GL1 3831  19.544   4.104   6.243
12107DOPC   GL2 3832  19.374   4.164   6.453
12107DOPC   C1A 3833  19.934   3.934   6.273
12107DOPC   D2A 3834  20.384   3.694   6.173
12107DOPC   C3A 3835  20.704   3.504   6.433
12107DOPC   C4A 3836  20.734   3.264   6.933
12107DOPC   C1B 3837  19.634   4.264   6.863
12107DOPC   D2B 3838  19.904   4.264   7.273
12107DOPC   C3B 3839  20.054   4.644   7.133
12107DOPC   C4B 3840  20.234   4.994   6.763
12108DOPC   NC3 3841  13.874   6.654  10.773
12108DOPC   PO4 3842  13.864   6.354  11.023
12108DOPC   GL1 3843  13.924   6.704  11.323
12108DOPC   GL2 3844  13.934   6.474  11.513
12108DOPC   C1A 3845  14.234   6.984  11.603
12108DOPC   D2A 3846  14.634   7.254  11.543
12108DOPC   C3A 3847  15.064   7.424  11.533
12108DOPC   C4A 3848  15.394   7.764  11.693
12108DOPC   C1B 3849  14.164   6.564  11.903
12108DOPC   D2B 3850  14.374   6.684  12.333
12108DOPC   C3B 3851  14.784   6.464  12.453
12108DOPC   C4B 3852  15.294   6.414  12.483
12109DOPC   NC3 3853  17.554   2.334   5.833
12109DOPC   PO4 3854  17.744   2.544   6.123
12109DOPC   GL1 3855  18.094   2.584   6.383
12109DOPC   GL2 3856  17.894   2.364   6.453
12109DOPC   C1A 3857  18.404   2.604   6.693
12109DOPC   D2A 3858  18.734   2.694   7.083
12109DOPC   C3A 3859  18.704   2.614   7.503
12109DOPC   C4A 3860  18.764   2.574   8.003
12109DOPC   C1B 3861  17.894   2.234   6.763
12109DOPC   D2B 3862  17.874   2.184   7.263
12109DOPC   C3B 3863  17.784   2.444   7.683
12109DOPC   C4B 3864  17.924   2.874   7.943
12110DOPC   NC3 3865  15.974   2.274   8.723
12110DOPC   PO4 3866  15.794   1.994   8.943
12110DOPC   GL1 3867  16.114   1.964   9.233
12110DOPC   GL2 3868  16.164   2.254   9.263
12110DOPC   C1A 3869  16.494   1.924   9.413
12110DOPC   D2A 3870  16.984   1.864   9.413
12110DOPC   C3A 3871  17.114   1.504   9.693
12110DOPC   C4A 3872  17.144   1.084   9.913
12110DOPC   C1B 3873  16.434   2.604   9.223
12110DOPC   D2B 3874  16.854   2.884   9.223
12110DOPC   C3B 3875  17.264   2.684   9.123
12110DOPC   C4B 3876  17.674   2.404   9.153
12111DOPC   NC3 3877  22.034   4.684   4.153
12111DOPC   PO4 3878  22.034   5.014   4.373
12111DOPC   GL1 3879  22.144   5.154   4.753
12111DOPC   GL2 3880  22.424   5.074   4.703
12111DOPC   C1A 3881  21.954   5.414   5.023
12111DOPC   D2A 3882  22.004   5.784   5.393
12111DOPC   C3A 3883  21.894   6.214   5.633
12111DOPC   C4A 3884  22.074   6.734   5.643
12111DOPC   C1B 3885  22.744   4.894   4.863
12111DOPC   D2B 3886  23.034   4.654   5.303
12111DOPC   C3B 3887  22.954   4.234   5.523
12111DOPC   C4B 3888  22.804   3.974   5.933
12112DOPC   NC3 3889   8.184   0.364  10.203
12112DOPC   PO4 3890   7.854   0.224  10.383
12112DOPC   GL1 3891   7.634   0.304  10.673
12112DOPC   GL2 3892   7.574   0.554  10.623
12112DOPC   C1A 3893   7.424   0.167  11.033
12112DOPC   D2A 3894   7.404   7.664  11.403
12112DOPC   C3A 3895   7.014   7.654  11.693
12112DOPC   C4A 3896   6.574   7.474  11.613
12112DOPC   C1B 3897   7.234   0.624  10.883
12112DOPC   D2B 3898   7.074   0.814  11.273
12112DOPC   C3B 3899   7.164   1.164  11.033
12112DOPC   C4B 3900   7.174   1.614  10.723
12113DOPC   NC3 3901  16.864   3.954   8.103
12113DOPC   PO4 3902  16.934   4.334   7.943
12113DOPC   GL1 3903  16.994   4.604   8.303
12113DOPC   GL2 3904  17.024   4.274   8.413
12113DOPC   C1A 3905  17.194   4.894   8.573
12113DOPC   D2A 3906  17.364   5.304   8.823
12113DOPC   C3A 3907  17.664   5.454   9.233
12113DOPC   C4A 3908  18.094   5.414   9.363
12113DOPC   C1B 3909  17.404   4.054   8.353
12113DOPC   D2B 3910  17.774   4.044   8.623
12113DOPC   C3B 3911  18.234   3.884   8.643
12113DOPC   C4B 3912  18.624   3.614   8.453
12114DOPC   NC3 3913   1.214   0.944   4.273
12114DOPC   PO4 3914   1.374   0.584   4.233
12114DOPC   GL1 3915   1.304   0.574   4.633
12114DOPC   GL2 3916   1.354   0.834   4.753
12114DOPC   C1A 3917   0.944   0.454   4.903
12114DOPC   D2A 3918   0.614   0.474   5.223
12114DOPC   C3A 3919   0.334   0.314   5.503
12114DOPC   C4A 3920   0.064   0.207   5.873
12114DOPC   C1B 3921   1.014   1.034   4.793
12114DOPC   D2B 3922   0.634   1.404   4.673
12114DOPC   C3B 3923   0.364   1.724   4.903
12114DOPC   C4B 3924   0.034   2.044   4.903
12115DOPC   NC3 3925  23.024   6.324   3.773
12115DOPC   PO4 3926  23.094   6.644   3.993
12115DOPC   GL1 3927  22.764   6.834   4.213
12115DOPC   GL2 3928  22.584   6.534   4.303
12115DOPC   C1A 3929  22.714   7.184   4.393
12115DOPC   D2A 3930  23.014   7.574   4.483
12115DOPC   C3A 3931  22.914   0.037   4.803
12115DOPC   C4A 3932  22.754   0.077   5.233
12115DOPC   C1B 3933  22.724   6.364   4.703
12115DOPC   D2B 3934  22.834   6.244   5.133
12115DOPC   C3B 3935  23.044   6.044   5.553
12115DOPC   C4B 3936  23.374   5.724   5.793
12116DOPC   NC3 3937   5.834   1.664   8.833
12116DOPC   PO4 3938   5.824   2.054   8.973
12116DOPC   GL1 3939   5.484   2.014   9.223
12116DOPC   GL2 3940   5.514   1.734   9.233
12116DOPC   C1A 3941   5.364   2.184   9.613
12116DOPC   D2A 3942   5.354   2.324  10.113
12116DOPC   C3A 3943   5.594   2.194  10.533
12116DOPC   C4A 3944   5.754   2.194  11.003
12116DOPC   C1B 3945   5.354   1.484   9.553
12116DOPC   D2B 3946   4.854   1.344   9.703
12116DOPC   C3B 3947   4.524   1.044   9.913
12116DOPC   C4B 3948   4.174   0.794   9.743
12117DOPC   NC3 3949  15.294   5.914   8.973
12117DOPC   PO4 3950  15.284   5.864   9.373
12117DOPC   GL1 3951  15.584   5.934   9.663
12117DOPC   GL2 3952  15.804   5.764   9.463
12117DOPC   C1A 3953  15.704   5.754  10.023
12117DOPC   D2A 3954  16.054   5.364  10.133
12117DOPC   C3A 3955  16.374   5.334  10.513
12117DOPC   C4A 3956  16.794   5.184  10.743
12117DOPC   C1B 3957  16.094   5.484   9.633
12117DOPC   D2B 3958  16.454   5.224   9.933
12117DOPC   C3B 3959  16.814   5.274  10.233
12117DOPC   C4B 3960  17.194   5.394  10.473
12118DOPC   NC3 3961  12.034   2.264  11.943
12118DOPC   PO4 3962  11.984   1.984  12.253
12118DOPC   GL1 3963  11.804   1.944  12.603
12118DOPC   GL2 3964  12.104   1.864  12.713
12118DOPC   C1A 3965  11.614   1.814  12.903
12118DOPC   D2A 3966  11.664   1.794  13.453
12118DOPC   C3A 3967  11.904   1.434  13.663
12118DOPC   C4A 3968  12.014   1.294  14.153
12118DOPC   C1B 3969  12.454   2.114  12.663
12118DOPC   D2B 3970  12.794   2.414  12.883
12118DOPC   C3B 3971  12.954   2.394  13.313
12118DOPC   C4B 3972  13.164   2.444  13.753
12119DOPC   NC3 3973   8.934   3.444  11.013
12119DOPC   PO4 3974   8.874   3.834  10.973
12119DOPC   GL1 3975   8.844   3.934  11.433
12119DOPC   GL2 3976   8.624   3.764  11.313
12119DOPC   C1A 3977   8.714   4.304  11.643
12119DOPC   D2A 3978   8.534   4.664  12.023
12119DOPC   C3A 3979   8.454   4.584  12.463
12119DOPC   C4A 3980   8.234   4.454  12.883
12119DOPC   C1B 3981   8.424   3.834  11.663
12119DOPC   D2B 3982   8.264   3.944  12.073
12119DOPC   C3B 3983   7.974   3.804  12.373
12119DOPC   C4B 3984   7.714   3.844  12.803
12120DOPC   NC3 3985   6.864   0.097  10.203
12120DOPC   PO4 3986   6.584   0.037   9.923
12120DOPC   GL1 3987   6.534   7.444  10.093
12120DOPC   GL2 3988   6.654   7.564  10.353
12120DOPC   C1A 3989   6.194   7.264  10.143
12120DOPC   D2A 3990   5.894   7.054  10.463
12120DOPC   C3A 3991   5.494   7.174  10.683
12120DOPC   C4A 3992   5.134   7.064  11.083
12120DOPC   C1B 3993   6.324   7.414  10.613
12120DOPC   D2B 3994   5.904   7.594  10.853
12120DOPC   C3B 3995   5.904   0.087  11.143
12120DOPC   C4B 3996   6.214   0.404  11.313
12121DOPC   NC3 3997   5.244   0.464   7.533
12121DOPC   PO4 3998   5.094   0.107   7.423
12121DOPC   GL1 3999   4.914   7.594   7.773
12121DOPC   GL2 4000   5.174   7.484   7.823
12121DOPC   C1A 4001   4.544   7.534   8.013
12121DOPC   D2A 4002   4.354   7.624   8.523
12121DOPC   C3A 4003   4.154   7.634   8.953
12121DOPC   C4A 4004   4.084   7.814   9.413
12121DOPC   C1B 4005   5.134   7.454   8.303
12121DOPC   D2B 4006   4.954   7.344   8.743
12121DOPC   C3B 4007   4.614   7.374   9.003
12121DOPC   C4B 4008   4.414   7.354   9.483
12122DOPC   NC3 4009  11.154   0.784  12.253
12122DOPC   PO4 4010  10.764   0.744  12.223
12122DOPC   GL1 4011  10.734   1.054  12.523
12122DOPC   GL2 4012  10.444   1.044  12.463
12122DOPC   C1A 4013  10.874   1.294  12.883
12122DOPC   D2A 4014  11.174   1.154  13.263
12122DOPC   C3A 4015  11.334   1.194  13.693
12122DOPC   C4A 4016  11.434   1.284  14.133
12122DOPC   C1B 4017  10.314   1.144  12.793
12122DOPC   D2B 4018  10.314   1.334  13.233
12122DOPC   C3B 4019  10.104   1.484  13.663
12122DOPC   C4B 4020   9.634   1.734  13.773
12123DOPC   NC3 4021  23.820   4.084   3.773
12123DOPC   PO4 4022  23.870   4.494   3.713
12123DOPC   GL1 4023  23.590   4.764   3.913
12123DOPC   GL2 4024  23.474   4.404   3.953
12123DOPC   C1A 4025  23.424   4.934   4.233
12123DOPC   D2A 4026  23.204   5.144   4.623
12123DOPC   C3A 4027  23.534   5.494   4.783
12123DOPC   C4A 4028  23.354   5.644   5.263
12123DOPC   C1B 4029  23.444   4.314   4.393
12123DOPC   D2B 4030  23.504   3.984   4.763
12123DOPC   C3B 4031  23.504   4.254   5.173
12123DOPC   C4B 4032  23.464   4.224   5.703
12124DOPC   NC3 4033  24.600   1.824   3.783
12124DOPC   PO4 4034  24.810   1.504   3.913
12124DOPC   GL1 4035  24.650   1.524   4.203
12124DOPC   GL2 4036  24.820   1.284   4.383
12124DOPC   C1A 4037  24.290   1.554   4.473
12124DOPC   D2A 4038  24.150   1.664   4.883
12124DOPC   C3A 4039  24.150   1.714   5.333
12124DOPC   C4A 4040  24.240   1.744   5.833
12124DOPC   C1B 4041  24.540   1.184   4.733
12124DOPC   D2B 4042  24.200   1.224   5.083
12124DOPC   C3B 4043  24.100   1.264   5.493
12124DOPC   C4B 4044  23.940   1.254   5.943
12125DOPC   NC3 4045   6.204   4.424   9.183
12125DOPC   PO4 4046   6.094   4.064   9.123
12125DOPC   GL1 4047   5.874   4.024   9.483
12125DOPC   GL2 4048   5.964   4.264   9.593
12125DOPC   C1A 4049   5.474   4.084   9.613
12125DOPC   D2A 4050   5.004   4.164   9.613
12125DOPC   C3A 4051   4.674   3.864   9.873
12125DOPC   C4A 4052   4.304   3.524  10.023
12125DOPC   C1B 4053   5.854   4.384   9.943
12125DOPC   D2B 4054   5.774   4.284  10.453
12125DOPC   C3B 4055   5.764   4.514  10.883
12125DOPC   C4B 4056   5.944   4.684  11.293
12126DOPC   NC3 4057  10.064   1.994  12.053
12126DOPC   PO4 4058  10.134   2.334  11.853
12126DOPC   GL1 4059   9.924   2.634  12.103
12126DOPC   GL2 4060   9.884   2.374  12.273
12126DOPC   C1A 4061   9.634   2.894  12.313
12126DOPC   D2A 4062   9.274   3.184  12.493
12126DOPC   C3A 4063   9.184   3.314  12.973
12126DOPC   C4A 4064   8.974   3.524  13.433
12126DOPC   C1B 4065   9.544   2.444  12.413
12126DOPC   D2B 4066   9.074   2.564  12.553
12126DOPC   C3B 4067   8.784   2.854  12.773
12126DOPC   C4B 4068   8.394   3.144  12.783
12127DOPC   NC3 4069   5.564   4.144   8.653
12127DOPC   PO4 4070   5.494   3.834   8.373
12127DOPC   GL1 4071   5.174   3.744   8.523
12127DOPC   GL2 4072   5.224   3.834   8.843
12127DOPC   C1A 4073   4.954   3.404   8.413
12127DOPC   D2A 4074   4.564   3.244   8.263
12127DOPC   C3A 4075   4.224   3.334   8.503
12127DOPC   C4A 4076   3.874   3.414   8.843
12127DOPC   C1B 4077   5.204   3.794   9.313
12127DOPC   D2B 4078   5.144   3.714   9.813
12127DOPC   C3B 4079   5.054   4.014  10.133
12127DOPC   C4B 4080   4.884   4.254  10.503
12128DOPC   NC3 4081  21.334   4.674   4.563
12128DOPC   PO4 4082  21.694   4.554   4.453
12128DOPC   GL1 4083  22.004   4.564   4.623
12128DOPC   GL2 4084  21.904   4.814   4.753
12128DOPC   C1A 4085  22.164   4.184   4.893
12128DOPC   D2A 4086  22.124   3.914   5.283
12128DOPC   C3A 4087  22.034   4.134   5.683
12128DOPC   C4A 4088  22.264   4.134   6.123
12128DOPC   C1B 4089  22.274   4.754   5.083
12128DOPC   D2B 4090  22.524   4.804   5.433
12128DOPC   C3B 4091  22.844   4.944   5.803
12128DOPC   C4B 4092  23.094   5.114   6.163
12129DOPC   NC3 4093   2.954   3.264   6.413
12129DOPC   PO4 4094   2.944   3.154   6.043
12129DOPC   GL1 4095   2.744   2.774   6.003
12129DOPC   GL2 4096   2.494   2.924   5.973
12129DOPC   C1A 4097   2.704   2.524   6.393
12129DOPC   D2A 4098   2.934   2.094   6.703
12129DOPC   C3A 4099   2.894   1.854   7.133
12129DOPC   C4A 4100   2.724   1.714   7.553
12129DOPC   C1B 4101   2.434   3.024   6.403
12129DOPC   D2B 4102   1.944   3.034   6.613
12129DOPC   C3B 4103   1.754   2.684   6.683
12129DOPC   C4B 4104   1.814   2.184   6.733
12130DOPC   NC3 4105  17.054   6.564   8.413
12130DOPC   PO4 4106  16.814   6.804   8.273
12130DOPC   GL1 4107  16.994   7.184   8.523
12130DOPC   GL2 4108  17.204   6.994   8.543
12130DOPC   C1A 4109  17.184   7.534   8.423
12130DOPC   D2A 4110  17.544   0.077   8.353
12130DOPC   C3A 4111  17.904   7.624   8.493
12130DOPC   C4A 4112  18.244   7.354   8.383
12130DOPC   C1B 4113  17.514   6.784   8.773
12130DOPC   D2B 4114  17.844   6.434   8.753
12130DOPC   C3B 4115  18.264   6.594   8.873
12130DOPC   C4B 4116  18.544   6.874   9.243
12131DOPC   NC3 4117  11.764   5.404  11.773
12131DOPC   PO4 4118  11.824   5.194  12.093
12131DOPC   GL1 4119  11.814   5.354  12.523
12131DOPC   GL2 4120  11.444   5.324  12.473
12131DOPC   C1A 4121  11.804   5.114  12.903
12131DOPC   D2A 4122  11.404   5.104  13.203
12131DOPC   C3A 4123  11.114   5.304  13.513
12131DOPC   C4A 4124  10.834   5.584  13.833
12131DOPC   C1B 4125  11.474   5.464  12.883
12131DOPC   D2B 4126  11.394   5.624  13.283
12131DOPC   C3B 4127  11.454   6.104  13.373
12131DOPC   C4B 4128  11.644   6.324  13.783
12132DOPC   NC3 4129   6.084   1.364   8.273
12132DOPC   PO4 4130   5.744   1.544   8.333
12132DOPC   GL1 4131   5.464   1.544   8.583
12132DOPC   GL2 4132   5.284   1.274   8.483
12132DOPC   C1A 4133   5.214   1.814   8.823
12132DOPC   D2A 4134   5.034   2.034   9.173
12132DOPC   C3A 4135   4.904   2.084   9.623
12132DOPC   C4A 4136   4.794   2.114  10.093
12132DOPC   C1B 4137   4.904   1.454   8.653
12132DOPC   D2B 4138   4.624   1.854   8.833
12132DOPC   C3B 4139   4.524   2.084   9.193
12132DOPC   C4B 4140   4.714   2.514   9.383
12133DOPC   NC3 4141   3.524   0.814   5.933
12133DOPC   PO4 4142   3.354   0.964   6.323
12133DOPC   GL1 4143   3.334   1.354   6.473
12133DOPC   GL2 4144   3.074   1.114   6.633
12133DOPC   C1A 4145   3.124   1.584   6.253
12133DOPC   D2A 4146   2.914   2.094   6.183
12133DOPC   C3A 4147   2.434   2.164   6.263
12133DOPC   C4A 4148   2.174   1.884   6.473
12133DOPC   C1B 4149   3.134   0.904   7.033
12133DOPC   D2B 4150   3.104   0.794   7.503
12133DOPC   C3B 4151   3.104   0.844   7.923
12133DOPC   C4B 4152   2.944   0.974   8.363
12134DOPC   NC3 4153  13.894   2.524  11.193
12134DOPC   PO4 4154  14.204   2.604  10.963
12134DOPC   GL1 4155  14.524   2.544  11.173
12134DOPC   GL2 4156  14.684   2.764  11.173
12134DOPC   C1A 4157  14.784   2.354  11.463
12134DOPC   D2A 4158  14.974   2.324  11.963
12134DOPC   C3A 4159  15.344   2.464  12.173
12134DOPC   C4A 4160  15.464   2.884  12.333
12134DOPC   C1B 4161  15.154   2.714  11.263
12134DOPC   D2B 4162  15.644   2.524  11.303
12134DOPC   C3B 4163  15.694   2.414  11.753
12134DOPC   C4B 4164  15.704   2.094  12.183
12135DOPC   NC3 4165   5.384   6.074   7.883
12135DOPC   PO4 4166   5.554   5.974   8.233
12135DOPC   GL1 4167   5.214   5.974   8.463
12135DOPC   GL2 4168   5.044   6.024   8.253
12135DOPC   C1A 4169   5.094   5.854   8.843
12135DOPC   D2A 4170   4.634   5.734   8.913
12135DOPC   C3A 4171   4.544   5.844   9.323
12135DOPC   C4A 4172   4.384   5.964   9.783
12135DOPC   C1B 4173   4.774   6.194   8.593
12135DOPC   D2B 4174   4.414   6.394   8.893
12135DOPC   C3B 4175   4.344   6.404   9.363
12135DOPC   C4B 4176   4.464   6.524   9.853
12136DOPC   NC3 4177  19.844   3.414   5.253
12136DOPC   PO4 4178  19.854   3.054   5.253
12136DOPC   GL1 4179  20.144   2.784   5.393
12136DOPC   GL2 4180  19.994   2.794   5.613
12136DOPC   C1A 4181  20.344   2.414   5.393
12136DOPC   D2A 4182  20.764   2.154   5.233
12136DOPC   C3A 4183  21.204   1.954   5.403
12136DOPC   C4A 4184  21.704   2.004   5.473
12136DOPC   C1B 4185  20.094   2.454   5.763
12136DOPC   D2B 4186  20.004   2.184   6.153
12136DOPC   C3B 4187  20.244   2.154   6.583
12136DOPC   C4B 4188  20.464   2.084   6.963
12137DOPC   NC3 4189  19.844   2.424   5.243
12137DOPC   PO4 4190  19.454   2.254   5.313
12137DOPC   GL1 4191  19.454   2.334   5.733
12137DOPC   GL2 4192  19.424   2.024   5.773
12137DOPC   C1A 4193  19.644   2.524   5.963
12137DOPC   D2A 4194  19.924   2.624   6.413
12137DOPC   C3A 4195  19.944   2.514   6.893
12137DOPC   C4A 4196  20.214   2.344   7.273
12137DOPC   C1B 4197  19.674   1.804   6.073
12137DOPC   D2B 4198  19.874   1.654   6.473
12137DOPC   C3B 4199  19.944   1.474   6.903
12137DOPC   C4B 4200  20.294   1.324   7.183
12138DOPC   NC3 4201  18.864   1.244   5.383
12138DOPC   PO4 4202  19.194   1.284   5.173
12138DOPC   GL1 4203  19.574   1.334   5.203
12138DOPC   GL2 4204  19.604   1.024   5.123
12138DOPC   C1A 4205  19.814   1.514   5.583
12138DOPC   D2A 4206  20.164   1.544   5.993
12138DOPC   C3A 4207  20.354   1.604   6.433
12138DOPC   C4A 4208  20.554   1.644   6.893
12138DOPC   C1B 4209  19.864   0.984   5.513
12138DOPC   D2B 4210  20.194   0.974   5.913
12138DOPC   C3B 4211  20.554   1.234   6.113
12138DOPC   C4B 4212  20.814   1.504   6.473
12139DOPC   NC3 4213  18.104   0.794   5.753
12139DOPC   PO4 4214  18.294   1.164   5.833
12139DOPC   GL1 4215  18.554   1.244   6.213
12139DOPC   GL2 4216  18.294   1.434   6.333
12139DOPC   C1A 4217  18.944   1.364   6.363
12139DOPC   D2A 4218  19.274   1.784   6.453
12139DOPC   C3A 4219  19.464   1.784   6.883
12139DOPC   C4A 4220  19.764   1.724   7.293
12139DOPC   C1B 4221  18.484   1.704   6.663
12139DOPC   D2B 4222  18.924   1.774   6.863
12139DOPC   C3B 4223  19.164   1.854   7.293
12139DOPC   C4B 4224  19.304   1.914   7.773
12140DOPC   NC3 4225  19.604   5.484   5.363
12140DOPC   PO4 4226  19.674   5.084   5.343
12140DOPC   GL1 4227  19.764   4.844   5.613
12140DOPC   GL2 4228  20.084   4.804   5.513
12140DOPC   C1A 4229  19.804   4.924   6.013
12140DOPC   D2A 4230  19.734   4.964   6.513
12140DOPC   C3A 4231  19.634   4.904   6.993
12140DOPC   C4A 4232  19.644   4.894   7.403
12140DOPC   C1B 4233  20.094   4.474   5.813
12140DOPC   D2B 4234  20.254   4.284   6.233
12140DOPC   C3B 4235  20.464   3.974   6.523
12140DOPC   C4B 4236  20.654   3.784   6.923
12141DOPC   NC3 4237  22.234   6.184   4.013
12141DOPC   PO4 4238  22.634   6.144   4.023
12141DOPC   GL1 4239  22.824   6.074   4.353
12141DOPC   GL2 4240  23.044   6.344   4.363
12141DOPC   C1A 4241  22.754   5.884   4.773
12141DOPC   D2A 4242  22.324   5.924   5.013
12141DOPC   C3A 4243  21.844   6.054   4.863
12141DOPC   C4A 4244  21.644   6.544   4.763
12141DOPC   C1B 4245  23.304   6.484   4.703
12141DOPC   D2B 4246  23.740   6.534   4.963
12141DOPC   C3B 4247  23.850   6.864   5.213
12141DOPC   C4B 4248  24.080   7.204   5.523
12142DOPC   NC3 4249  17.014   5.184   7.753
12142DOPC   PO4 4250  17.004   4.824   7.893
12142DOPC   GL1 4251  17.394   4.534   8.013
12142DOPC   GL2 4252  17.464   4.624   7.773
12142DOPC   C1A 4253  17.764   4.614   8.363
12142DOPC   D2A 4254  18.044   4.684   8.793
12142DOPC   C3A 4255  18.284   4.654   9.163
12142DOPC   C4A 4256  18.674   4.574   9.523
12142DOPC   C1B 4257  17.874   4.724   7.753
12142DOPC   D2B 4258  18.304   4.864   7.993
12142DOPC   C3B 4259  18.384   4.604   8.363
12142DOPC   C4B 4260  18.404   4.374   8.813
12143DOPC   NC3 4261  16.724   3.074   7.493
12143DOPC   PO4 4262  16.934   3.414   7.463
12143DOPC   GL1 4263  17.364   3.584   7.573
12143DOPC   GL2 4264  17.424   3.304   7.713
12143DOPC   C1A 4265  17.754   3.744   7.593
12143DOPC   D2A 4266  18.194   3.964   7.603
12143DOPC   C3A 4267  18.604   3.964   7.773
12143DOPC   C4A 4268  19.004   3.984   8.053
12143DOPC   C1B 4269  17.734   3.324   8.053
12143DOPC   D2B 4270  17.984   3.494   8.493
12143DOPC   C3B 4271  17.944   3.214   8.843
12143DOPC   C4B 4272  17.784   3.064   9.213
12144DOPC   NC3 4273  20.654   3.304   4.893
12144DOPC   PO4 4274  20.314   3.254   5.093
12144DOPC   GL1 4275  20.284   3.164   5.483
12144DOPC   GL2 4276  20.564   3.034   5.333
12144DOPC   C1A 4277  20.244   3.274   5.853
12144DOPC   D2A 4278  20.254   3.194   6.343
12144DOPC   C3A 4279  20.204   3.524   6.653
12144DOPC   C4A 4280  19.924   3.784   6.993
12144DOPC   C1B 4281  20.524   2.844   5.673
12144DOPC   D2B 4282  20.404   2.714   6.143
12144DOPC   C3B 4283  20.014   2.874   6.043
12144DOPC   C4B 4284  19.524   3.074   6.123
12145DOPC   NC3 4285   9.874   3.194  11.373
12145DOPC   PO4 4286   9.714   3.544  11.483
12145DOPC   GL1 4287   9.584   3.544  11.843
12145DOPC   GL2 4288   9.344   3.624  11.743
12145DOPC   C1A 4289   9.714   3.384  12.213
12145DOPC   D2A 4290   9.694   3.234  12.673
12145DOPC   C3A 4291   9.644   3.484  13.103
12145DOPC   C4A 4292   9.874   3.824  13.383
12145DOPC   C1B 4293   9.014   3.914  11.893
12145DOPC   D2B 4294   8.674   4.154  12.153
12145DOPC   C3B 4295   8.534   4.104  12.603
12145DOPC   C4B 4296   8.444   3.954  13.083
12146DOPC   NC3 4297  17.654   0.177   6.093
12146DOPC   PO4 4298  17.854   0.554   6.163
12146DOPC   GL1 4299  17.904   0.364   6.653
12146DOPC   GL2 4300  18.164   0.504   6.513
12146DOPC   C1A 4301  18.034   0.354   7.033
12146DOPC   D2A 4302  18.174   0.514   7.453
12146DOPC   C3A 4303  18.364   0.224   7.773
12146DOPC   C4A 4304  18.464   7.624   7.883
12146DOPC   C1B 4305  18.484   0.514   6.793
12146DOPC   D2B 4306  18.634   0.624   7.253
12146DOPC   C3B 4307  18.484   0.794   7.703
12146DOPC   C4B 4308  18.634   0.854   8.193
12147DOPC   NC3 4309  12.954   5.824  11.663
12147DOPC   PO4 4310  12.904   5.434  11.733
12147DOPC   GL1 4311  13.164   5.364  12.033
12147DOPC   GL2 4312  13.094   5.274  12.263
12147DOPC   C1A 4313  13.374   5.724  12.113
12147DOPC   D2A 4314  13.474   6.154  12.363
12147DOPC   C3A 4315  13.854   6.184  12.543
12147DOPC   C4A 4316  14.314   6.264  12.603
12147DOPC   C1B 4317  13.284   5.444  12.573
12147DOPC   D2B 4318  13.704   5.244  12.813
12147DOPC   C3B 4319  13.744   5.494  13.203
12147DOPC   C4B 4320  13.894   5.574  13.633
12148DOPC   NC3 4321   0.864   4.264   4.833
12148DOPC   PO4 4322   0.724   4.174   4.493
12148DOPC   GL1 4323   0.404   4.514   4.543
12148DOPC   GL2 4324   0.564   4.614   4.683
12148DOPC   C1A 4325   0.124   4.224   4.753
12148DOPC   D2A 4326  25.010   4.284   5.263
12148DOPC   C3A 4327  24.750   4.264   5.673
12148DOPC   C4A 4328  24.820   4.474   6.143
12148DOPC   C1B 4329   0.434   4.464   5.083
12148DOPC   D2B 4330   0.394   4.144   5.463
12148DOPC   C3B 4331   0.184   4.374   5.803
12148DOPC   C4B 4332   0.124   4.834   6.003
12149DOPC   NC3 4333  15.034   3.834  10.313
12149DOPC   PO4 4334  14.824   4.124  10.543
12149DOPC   GL1 4335  15.214   4.284  10.793
12149DOPC   GL2 4336  14.994   4.134  10.983
12149DOPC   C1A 4337  15.684   4.274  10.853
12149DOPC   D2A 4338  16.154   4.384  10.983
12149DOPC   C3A 4339  16.514   4.194  11.063
12149DOPC   C4A 4340  17.024   4.294  11.023
12149DOPC   C1B 4341  15.104   3.904  11.313
12149DOPC   D2B 4342  15.154   3.584  11.663
12149DOPC   C3B 4343  15.334   3.194  11.813
12149DOPC   C4B 4344  15.294   2.694  11.723
12150DOPC   NC3 4345  16.714   0.394   7.413
12150DOPC   PO4 4346  17.024   0.384   7.133
12150DOPC   GL1 4347  17.314   0.127   7.343
12150DOPC   GL2 4348  17.414   0.127   7.063
12150DOPC   C1A 4349  17.604   7.794   7.663
12150DOPC   D2A 4350  17.964   7.784   7.983
12150DOPC   C3A 4351  18.234   0.097   8.373
12150DOPC   C4A 4352  18.674   7.704   8.413
12150DOPC   C1B 4353  17.754   7.764   6.913
12150DOPC   D2B 4354  17.894   7.284   6.783
12150DOPC   C3B 4355  18.244   7.144   6.533
12150DOPC   C4B 4356  18.684   6.914   6.543
12151DOPC   NC3 4357   0.874   6.524   3.953
12151DOPC   PO4 4358   0.464   6.494   3.983
12151DOPC   GL1 4359   0.284   6.504   4.293
12151DOPC   GL2 4360   0.404   6.724   4.473
12151DOPC   C1A 4361   0.204   6.224   4.613
12151DOPC   D2A 4362   0.434   6.304   5.043
12151DOPC   C3A 4363   0.454   6.194   5.493
12151DOPC   C4A 4364   0.614   6.044   5.943
12151DOPC   C1B 4365   0.124   6.744   4.793
12151DOPC   D2B 4366  24.910   6.964   5.143
12151DOPC   C3B 4367  24.700   6.734   5.503
12151DOPC   C4B 4368  24.250   6.734   5.603
12152DOPC   NC3 4369   2.344   2.304   4.833
12152DOPC   PO4 4370   2.004   2.544   4.813
12152DOPC   GL1 4371   1.564   2.444   4.933
12152DOPC   GL2 4372   1.454   2.674   4.793
12152DOPC   C1A 4373   1.334   2.354   5.213
12152DOPC   D2A 4374   1.164   2.354   5.673
12152DOPC   C3A 4375   1.114   2.194   6.143
12152DOPC   C4A 4376   1.204   2.034   6.613
12152DOPC   C1B 4377   1.404   2.924   5.143
12152DOPC   D2B 4378   1.284   3.324   5.393
12152DOPC   C3B 4379   1.184   3.534   5.803
12152DOPC   C4B 4380   0.954   3.674   6.213
12153DOPC   NC3 4381  24.780   4.414   3.543
12153DOPC   PO4 4382  24.900   4.514   3.893
12153DOPC   GL1 4383  24.960   4.324   4.283
12153DOPC   GL2 4384  24.950   4.464   4.413
12153DOPC   C1A 4385  24.740   4.004   4.423
12153DOPC   D2A 4386  24.470   3.634   4.633
12153DOPC   C3A 4387  24.580   3.414   5.053
12153DOPC   C4A 4388  24.370   3.214   5.483
12153DOPC   C1B 4389  24.710   4.374   4.843
12153DOPC   D2B 4390  24.390   4.404   5.263
12153DOPC   C3B 4391  23.940   4.464   5.323
12153DOPC   C4B 4392  23.564   4.744   5.383
12154DOPC   NC3 4393  13.064   4.924  11.863
12154DOPC   PO4 4394  12.834   4.624  11.763
12154DOPC   GL1 4395  13.034   4.574  12.153
12154DOPC   GL2 4396  12.974   4.324  12.123
12154DOPC   C1A 4397  13.264   4.904  12.343
12154DOPC   D2A 4398  13.604   5.234  12.223
12154DOPC   C3A 4399  13.754   5.634  12.453
12154DOPC   C4A 4400  13.514   5.884  12.773
12154DOPC   C1B 4401  12.824   4.244  12.553
12154DOPC   D2B 4402  12.634   4.224  12.993
12154DOPC   C3B 4403  12.854   4.154  13.393
12154DOPC   C4B 4404  13.124   4.074  13.773
12155DOPC   NC3 4405  13.774   0.954  10.913
12155DOPC   PO4 4406  13.934   0.564  10.903
12155DOPC   GL1 4407  14.134   0.374  11.163
12155DOPC   GL2 4408  13.944   0.324  11.413
12155DOPC   C1A 4409  14.514   0.137  11.273
12155DOPC   D2A 4410  14.754   7.764  11.603
12155DOPC   C3A 4411  14.964   0.007  11.923
12155DOPC   C4A 4412  15.374   7.774  12.193
12155DOPC   C1B 4413  14.154   0.037  11.653
12155DOPC   D2B 4414  14.484   7.694  12.023
12155DOPC   C3B 4415  14.794   7.684  12.403
12155DOPC   C4B 4416  15.184   7.374  12.613
12156DOPC   NC3 4417  16.174   3.164   8.463
12156DOPC   PO4 4418  16.134   2.774   8.473
12156DOPC   GL1 4419  16.404   2.494   8.413
12156DOPC   GL2 4420  16.684   2.644   8.283
12156DOPC   C1A 4421  16.674   2.204   8.423
12156DOPC   D2A 4422  17.074   1.924   8.253
12156DOPC   C3A 4423  17.434   1.814   8.593
12156DOPC   C4A 4424  17.844   1.724   8.923
12156DOPC   C1B 4425  17.114   2.634   8.363
12156DOPC   D2B 4426  17.394   2.344   8.583
12156DOPC   C3B 4427  17.824   2.204   8.743
12156DOPC   C4B 4428  18.294   2.024   8.963
12157DOPC   NC3 4429  12.544   5.054  11.533
12157DOPC   PO4 4430  12.384   4.954  11.863
12157DOPC   GL1 4431  12.674   5.054  12.133
12157DOPC   GL2 4432  12.704   5.294  12.103
12157DOPC   C1A 4433  12.754   4.834  12.483
12157DOPC   D2A 4434  12.854   4.654  12.913
12157DOPC   C3A 4435  12.664   4.614  13.423
12157DOPC   C4A 4436  12.624   4.544  13.963
12157DOPC   C1B 4437  12.754   5.404  12.493
12157DOPC   D2B 4438  12.904   5.134  12.893
12157DOPC   C3B 4439  13.274   5.254  13.143
12157DOPC   C4B 4440  13.524   5.164  13.573
12158DOPC   NC3 4441   9.934   6.504  11.563
12158DOPC   PO4 4442   9.624   6.674  11.733
12158DOPC   GL1 4443   9.494   6.634  12.103
12158DOPC   GL2 4444   9.654   6.344  12.173
12158DOPC   C1A 4445   9.564   6.934  12.393
12158DOPC   D2A 4446   9.464   7.324  12.663
12158DOPC   C3A 4447   9.114   7.204  12.933
12158DOPC   C4A 4448   8.674   7.224  13.063
12158DOPC   C1B 4449   9.384   6.284  12.413
12158DOPC   D2B 4450   9.114   6.394  12.793
12158DOPC   C3B 4451   8.684   6.324  12.843
12158DOPC   C4B 4452   8.284   6.084  12.923
12159DOPC   NC3 4453  15.504   5.254  10.003
12159DOPC   PO4 4454  15.204   5.304  10.263
12159DOPC   GL1 4455  15.484   5.524  10.413
12159DOPC   GL2 4456  15.454   5.494  10.743
12159DOPC   C1A 4457  15.884   5.694  10.523
12159DOPC   D2A 4458  16.254   5.804  10.803
12159DOPC   C3A 4459  16.624   6.104  10.883
12159DOPC   C4A 4460  16.914   6.404  11.053
12159DOPC   C1B 4461  15.604   5.654  11.123
12159DOPC   D2B 4462  15.734   5.774  11.603
12159DOPC   C3B 4463  15.524   5.954  12.043
12159DOPC   C4B 4464  15.634   5.874  12.513
12160DOPC   NC3 4465   7.874   5.694  10.323
12160DOPC   PO4 4466   7.844   5.324  10.183
12160DOPC   GL1 4467   7.594   5.084  10.503
12160DOPC   GL2 4468   7.474   4.904  10.383
12160DOPC   C1A 4469   7.434   5.064  10.883
12160DOPC   D2A 4470   7.164   4.744  11.093
12160DOPC   C3A 4471   6.954   4.794  11.553
12160DOPC   C4A 4472   6.724   4.984  12.033
12160DOPC   C1B 4473   7.064   4.814  10.553
12160DOPC   D2B 4474   6.734   4.564  10.833
12160DOPC   C3B 4475   6.314   4.724  10.903
12160DOPC   C4B 4476   5.874   4.904  10.673
12161DOPC   NC3 4477  13.724   7.814  11.243
12161DOPC   PO4 4478  13.374   7.664  11.293
12161DOPC   GL1 4479  13.634   7.324  11.423
12161DOPC   GL2 4480  13.374   7.264  11.633
12161DOPC   C1A 4481  13.934   7.434  11.733
12161DOPC   D2A 4482  14.334   7.254  12.063
12161DOPC   C3A 4483  14.784   7.274  12.053
12161DOPC   C4A 4484  15.254   7.354  11.963
12161DOPC   C1B 4485  13.564   7.274  12.053
12161DOPC   D2B 4486  13.674   7.274  12.553
12161DOPC   C3B 4487  13.844   7.604  12.833
12161DOPC   C4B 4488  13.944   0.027  13.243
12162DOPC   NC3 4489   2.754   5.374   5.183
12162DOPC   PO4 4490   2.644   5.714   5.283
12162DOPC   GL1 4491   2.344   5.884   5.493
12162DOPC   GL2 4492   2.384   5.754   5.723
12162DOPC   C1A 4493   2.074   6.254   5.613
12162DOPC   D2A 4494   1.604   6.494   5.793
12162DOPC   C3A 4495   1.374   6.544   6.183
12162DOPC   C4A 4496   1.344   6.404   6.623
12162DOPC   C1B 4497   2.124   5.904   6.013
12162DOPC   D2B 4498   1.934   6.324   6.143
12162DOPC   C3B 4499   1.824   6.024   6.463
12162DOPC   C4B 4500   1.414   5.864   6.773
12163DOPS   CNO 4501  17.504   6.404   7.223
12163DOPS   PO4 4502  17.534   6.194   6.923
12163DOPS   GL1 4503  17.764   5.924   7.073
12163DOPS   GL2 4504  17.864   5.724   6.983
12163DOPS   C1A 4505  18.034   5.944   7.463
12163DOPS   D2A 4506  18.244   6.054   7.903
12163DOPS   C3A 4507  18.604   6.064   8.163
12163DOPS   C4A 4508  19.064   6.174   8.043
12163DOPS   C1B 4509  18.284   5.944   6.963
12163DOPS   D2B 4510  18.724   6.124   6.863
12163DOPS   C3B 4511  19.074   6.254   7.073
12163DOPS   C4B 4512  19.564   6.404   7.153
12164DOPS   CNO 4513   0.074   2.494   3.683
12164DOPS   PO4 4514  24.820   2.284   3.763
12164DOPS   GL1 4515  24.910   2.084   4.063
12164DOPS   GL2 4516   0.124   2.284   4.153
12164DOPS   C1A 4517  24.770   2.074   4.443
12164DOPS   D2A 4518  24.590   2.014   4.933
12164DOPS   C3A 4519  24.550   1.944   5.353
12164DOPS   C4A 4520  24.640   2.284   5.703
12164DOPS   C1B 4521   0.084   2.464   4.553
12164DOPS   D2B 4522   0.024   2.714   4.993
12164DOPS   C3B 4523  24.970   2.774   5.413
12164DOPS   C4B 4524  24.970   2.634   5.903
12165DOPS   CNO 4525   7.054   7.384   9.743
12165DOPS   PO4 4526   7.114   7.534  10.113
12165DOPS   GL1 4527   7.064   7.444  10.493
12165DOPS   GL2 4528   7.024   7.684  10.593
12165DOPS   C1A 4529   6.794   7.234  10.763
12165DOPS   D2A 4530   6.544   7.214  11.193
12165DOPS   C3A 4531   6.154   7.244  11.443
12165DOPS   C4A 4532   5.954   7.364  11.813
12165DOPS   C1B 4533   6.674   0.037  10.713
12165DOPS   D2B 4534   6.284   0.304  10.853
12165DOPS   C3B 4535   6.114   0.634  10.583
12165DOPS   C4B 4536   6.084   1.094  10.563
12166DOPS   CNO 4537   9.584   5.784  11.123
12166DOPS   PO4 4538   9.814   6.004  11.383
12166DOPS   GL1 4539   9.604   6.174  11.663
12166DOPS   GL2 4540   9.354   6.134  11.613
12166DOPS   C1A 4541   9.514   5.924  12.053
12166DOPS   D2A 4542   9.364   5.784  12.503
12166DOPS   C3A 4543   9.024   5.834  12.793
12166DOPS   C4A 4544   8.744   5.874  13.203
12166DOPS   C1B 4545   9.144   6.314  11.933
12166DOPS   D2B 4546   8.864   6.364  12.333
12166DOPS   C3B 4547   8.544   6.054  12.403
12166DOPS   C4B 4548   8.124   5.884  12.323
12167DOPS   CNO 4549  14.314   4.144  10.723
12167DOPS   PO4 4550  14.544   3.954  10.973
12167DOPS   GL1 4551  14.534   4.184  11.283
12167DOPS   GL2 4552  14.704   4.354  11.333
12167DOPS   C1A 4553  14.744   4.024  11.603
12167DOPS   D2A 4554  14.934   3.864  12.023
12167DOPS   C3A 4555  14.964   3.924  12.503
12167DOPS   C4A 4556  14.964   3.564  12.783
12167DOPS   C1B 4557  15.104   4.494  11.563
12167DOPS   D2B 4558  15.454   4.474  11.863
12167DOPS   C3B 4559  15.734   4.684  12.213
12167DOPS   C4B 4560  16.024   4.954  12.513
12168DOPS   CNO 4561  22.554   7.814   3.503
12168DOPS   PO4 4562  22.644   0.127   3.833
12168DOPS   GL1 4563  22.314   0.294   4.053
12168DOPS   GL2 4564  22.454   0.087   4.293
12168DOPS   C1A 4565  22.254   0.514   4.403
12168DOPS   D2A 4566  22.494   0.844   4.653
12168DOPS   C3A 4567  22.604   0.924   5.113
12168DOPS   C4A 4568  22.764   1.144   5.513
12168DOPS   C1B 4569  22.114   0.007   4.563
12168DOPS   D2B 4570  22.184   0.047   5.043
12168DOPS   C3B 4571  22.234   0.177   5.503
12168DOPS   C4B 4572  21.994   0.324   5.903
12169DOPS   CNO 4573  20.264   3.084   4.213
12169DOPS   PO4 4574  20.324   2.944   4.563
12169DOPS   GL1 4575  20.694   2.834   4.923
12169DOPS   GL2 4576  20.784   2.764   4.623
12169DOPS   C1A 4577  20.834   2.664   5.323
12169DOPS   D2A 4578  20.784   2.364   5.683
12169DOPS   C3A 4579  21.064   2.194   5.993
12169DOPS   C4A 4580  21.194   1.854   6.343
12169DOPS   C1B 4581  21.044   2.544   4.883
12169DOPS   D2B 4582  21.274   2.404   5.263
12169DOPS   C3B 4583  21.214   2.604   5.743
12169DOPS   C4B 4584  20.874   2.614   6.123
12170DOPS   CNO 4585  10.554   6.974  11.563
12170DOPS   PO4 4586  10.454   7.234  11.863
12170DOPS   GL1 4587  10.514   7.234  12.223
12170DOPS   GL2 4588  10.474   7.044  12.403
12170DOPS   C1A 4589  10.444   7.564  12.423
12170DOPS   D2A 4590  10.334   7.694  12.903
12170DOPS   C3A 4591  10.034   7.664  13.293
12170DOPS   C4A 4592  10.164   7.494  13.813
12170DOPS   C1B 4593  10.514   7.234  12.813
12170DOPS   D2B 4594  10.474   7.234  13.363
12170DOPS   C3B 4595  10.064   7.184  13.443
12170DOPS   C4B 4596   9.634   6.964  13.493
12171DOPS   CNO 4597  13.534   5.314  11.273
12171DOPS   PO4 4598  13.854   5.544  11.213
12171DOPS   GL1 4599  13.974   5.664  11.643
12171DOPS   GL2 4600  14.254   5.774  11.533
12171DOPS   C1A 4601  14.064   5.534  12.083
12171DOPS   D2A 4602  14.114   5.154  12.383
12171DOPS   C3A 4603  14.344   5.114  12.743
12171DOPS   C4A 4604  14.804   5.354  12.813
12171DOPS   C1B 4605  14.664   5.624  11.383
12171DOPS   D2B 4606  15.174   5.504  11.353
12171DOPS   C3B 4607  15.414   5.424  11.663
12171DOPS   C4B 4608  15.354   5.484  12.153
12172DOPS   CNO 4609   5.764   4.774   8.083
12172DOPS   PO4 4610   5.654   4.444   8.253
12172DOPS   GL1 4611   5.374   4.504   8.573
12172DOPS   GL2 4612   5.584   4.674   8.703
12172DOPS   C1A 4613   5.014   4.334   8.723
12172DOPS   D2A 4614   4.784   3.984   8.973
12172DOPS   C3A 4615   4.514   4.004   9.373
12172DOPS   C4A 4616   4.174   3.954   9.753
12172DOPS   C1B 4617   5.204   4.774   9.003
12172DOPS   D2B 4618   4.864   5.044   9.203
12172DOPS   C3B 4619   4.424   4.864   9.353
12172DOPS   C4B 4620   4.034   4.914   9.583
12173DOPS   CNO 4621   5.734   1.724   7.873
12173DOPS   PO4 4622   5.404   1.894   7.973
12173DOPS   GL1 4623   5.154   1.854   8.353
12173DOPS   GL2 4624   4.984   1.704   8.203
12173DOPS   C1A 4625   4.904   2.164   8.463
12173DOPS   D2A 4626   4.474   2.284   8.663
12173DOPS   C3A 4627   4.104   2.044   8.813
12173DOPS   C4A 4628   3.614   2.094   8.873
12173DOPS   C1B 4629   4.604   1.794   8.163
12173DOPS   D2B 4630   4.154   1.844   8.133
12173DOPS   C3B 4631   3.764   1.904   8.413
12173DOPS   C4B 4632   3.484   1.634   8.723
12174DOPS   CNO 4633  12.664   0.107  11.533
12174DOPS   PO4 4634  12.644   0.177  11.943
12174DOPS   GL1 4635  13.004   0.167  12.113
12174DOPS   GL2 4636  12.914   7.684  12.163
12174DOPS   C1A 4637  13.434   7.794  12.143
12174DOPS   D2A 4638  13.844   7.654  12.253
12174DOPS   C3A 4639  14.254   7.544  12.463
12174DOPS   C4A 4640  14.634   7.184  12.523
12174DOPS   C1B 4641  13.154   7.424  12.433
12174DOPS   D2B 4642  13.274   7.194  12.843
12174DOPS   C3B 4643  13.694   7.064  13.033
12174DOPS   C4B 4644  14.184   7.274  12.963
12175DOPS   CNO 4645  18.224   7.734   4.993
12175DOPS   PO4 4646  18.274   0.264   5.153
12175DOPS   GL1 4647  18.394   0.384   5.543
12175DOPS   GL2 4648  18.674   0.314   5.423
12175DOPS   C1A 4649  18.544   0.494   5.983
12175DOPS   D2A 4650  18.884   0.424   6.303
12175DOPS   C3A 4651  19.294   0.284   6.493
12175DOPS   C4A 4652  19.544   0.027   6.813
12175DOPS   C1B 4653  18.954   0.484   5.763
12175DOPS   D2B 4654  19.284   0.614   6.033
12175DOPS   C3B 4655  19.274   0.984   6.283
12175DOPS   C4B 4656  19.454   1.324   6.553
12176DOPS   CNO 4657  20.294   7.104   4.323
12176DOPS   PO4 4658  20.124   6.764   4.453
12176DOPS   GL1 4659  20.404   6.624   4.833
12176DOPS   GL2 4660  20.244   6.684   5.033
12176DOPS   C1A 4661  20.804   6.424   4.823
12176DOPS   D2A 4662  21.164   6.174   5.013
12176DOPS   C3A 4663  21.574   6.264   5.203
12176DOPS   C4A 4664  22.084   6.284   5.193
12176DOPS   C1B 4665  20.224   6.614   5.453
12176DOPS   D2B 4666  20.344   6.374   5.903
12176DOPS   C3B 4667  20.594   6.464   6.283
12176DOPS   C4B 4668  20.904   6.804   6.583
12177DOPS   CNO 4669  17.654   6.214   6.423
12177DOPS   PO4 4670  17.974   6.294   6.263
12177DOPS   GL1 4671  18.304   6.384   6.473
12177DOPS   GL2 4672  18.504   6.344   6.233
12177DOPS   C1A 4673  18.494   6.594   6.883
12177DOPS   D2A 4674  18.724   6.634   7.343
12177DOPS   C3A 4675  19.174   6.674   7.403
12177DOPS   C4A 4676  19.604   6.734   7.573
12177DOPS   C1B 4677  18.834   6.444   6.463
12177DOPS   D2B 4678  18.974   6.694   6.923
12177DOPS   C3B 4679  19.044   7.114   7.153
12177DOPS   C4B 4680  19.084   7.614   7.323
12178DOPS   CNO 4681  20.074   4.064   4.573
12178DOPS   PO4 4682  20.114   4.404   4.633
12178DOPS   GL1 4683  20.334   4.574   4.973
12178DOPS   GL2 4684  20.494   4.744   4.843
12178DOPS   C1A 4685  20.374   4.374   5.413
12178DOPS   D2A 4686  20.304   4.044   5.833
12178DOPS   C3A 4687  20.754   3.904   5.933
12178DOPS   C4A 4688  21.234   4.054   5.833
12178DOPS   C1B 4689  20.644   5.064   5.103
12178DOPS   D2B 4690  20.664   5.354   5.493
12178DOPS   C3B 4691  20.984   5.554   5.743
12178DOPS   C4B 4692  21.134   5.954   6.063
12179DOPS   CNO 4693   3.644   0.314   5.973
12179DOPS   PO4 4694   3.334   0.444   6.203
12179DOPS   GL1 4695   3.104   0.504   6.613
12179DOPS   GL2 4696   2.904   0.724   6.513
12179DOPS   C1A 4697   2.854   0.464   6.983
12179DOPS   D2A 4698   2.474   0.474   7.333
12179DOPS   C3A 4699   2.224   0.394   7.693
12179DOPS   C4A 4700   2.164   0.204   8.153
12179DOPS   C1B 4701   2.604   0.934   6.733
12179DOPS   D2B 4702   2.184   1.024   7.003
12179DOPS   C3B 4703   1.734   0.974   7.033
12179DOPS   C4B 4704   1.274   0.814   7.123
12180DOPS   CNO 4705   7.364   7.044  10.103
12180DOPS   PO4 4706   7.444   7.204  10.433
12180DOPS   GL1 4707   7.244   7.034  10.813
12180DOPS   GL2 4708   7.554   6.974  10.943
12180DOPS   C1A 4709   7.014   7.154  11.163
12180DOPS   D2A 4710   6.854   7.064  11.613
12180DOPS   C3A 4711   6.984   7.254  12.023
12180DOPS   C4A 4712   6.744   7.264  12.443
12180DOPS   C1B 4713   7.554   6.764  11.283
12180DOPS   D2B 4714   7.804   6.554  11.623
12180DOPS   C3B 4715   7.574   6.334  11.953
12180DOPS   C4B 4716   7.224   6.294  12.303
12181DOPS   CNO 4717  17.074   6.054   7.143
12181DOPS   PO4 4718  16.994   6.214   7.463
12181DOPS   GL1 4719  17.384   6.224   7.693
12181DOPS   GL2 4720  17.294   6.004   7.863
12181DOPS   C1A 4721  17.824   6.364   7.643
12181DOPS   D2A 4722  18.274   6.594   7.623
12181DOPS   C3A 4723  18.624   6.594   7.983
12181DOPS   C4A 4724  19.024   6.784   8.303
12181DOPS   C1B 4725  17.744   5.984   8.053
12181DOPS   D2B 4726  18.004   6.024   8.463
12181DOPS   C3B 4727  18.414   6.024   8.793
12181DOPS   C4B 4728  18.884   5.944   8.643
12182DOPS   CNO 4729   8.234   2.824  10.263
12182DOPS   PO4 4730   8.404   3.084  10.493
12182DOPS   GL1 4731   8.364   3.114  10.853
12182DOPS   GL2 4732   8.604   2.994  11.023
12182DOPS   C1A 4733   8.084   3.134  11.203
12182DOPS   D2A 4734   7.714   3.114  11.483
12182DOPS   C3A 4735   7.314   3.284  11.633
12182DOPS   C4A 4736   6.834   3.154  11.733
12182DOPS   C1B 4737   8.544   3.234  11.353
12182DOPS   D2B 4738   8.204   3.404  11.673
12182DOPS   C3B 4739   8.144   3.374  12.183
12182DOPS   C4B 4740   7.924   3.284  12.583
12183DOPS   CNO 4741  15.914   7.444   8.543
12183DOPS   PO4 4742  16.264   7.554   8.413
12183DOPS   GL1 4743  16.624   7.624   8.603
12183DOPS   GL2 4744  16.624   0.037   8.643
12183DOPS   C1A 4745  16.914   7.394   8.923
12183DOPS   D2A 4746  17.114   7.464   9.393
12183DOPS   C3A 4747  17.364   7.234   9.663
12183DOPS   C4A 4748  17.334   6.944  10.093
12183DOPS   C1B 4749  17.064   0.067   8.713
12183DOPS   D2B 4750  17.434   0.097   8.983
12183DOPS   C3B 4751  17.844   0.067   8.993
12183DOPS   C4B 4752  18.234   7.654   8.883
12184DOPS   CNO 4753   4.234   3.394   7.023
12184DOPS   PO4 4754   4.424   3.584   7.263
12184DOPS   GL1 4755   4.254   3.574   7.603
12184DOPS   GL2 4756   3.994   3.454   7.573
12184DOPS   C1A 4757   4.164   3.724   7.983
12184DOPS   D2A 4758   3.824   4.014   8.283
12184DOPS   C3A 4759   3.514   3.954   8.633
12184DOPS   C4A 4760   3.074   3.854   8.733
12184DOPS   C1B 4761   3.674   3.654   7.733
12184DOPS   D2B 4762   3.384   3.824   8.103
12184DOPS   C3B 4763   3.054   3.494   8.303
12184DOPS   C4B 4764   2.774   3.074   8.243
12185DOPS   CNO 4765  10.084   3.904  11.503
12185DOPS   PO4 4766  10.024   4.204  11.683
12185DOPS   GL1 4767   9.934   4.274  12.093
12185DOPS   GL2 4768   9.674   4.244  12.053
12185DOPS   C1A 4769   9.864   4.584  12.373
12185DOPS   D2A 4770  10.034   4.944  12.673
12185DOPS   C3A 4771   9.804   4.884  13.103
12185DOPS   C4A 4772   9.984   5.134  13.503
12185DOPS   C1B 4773   9.554   3.924  12.283
12185DOPS   D2B 4774   9.394   3.644  12.663
12185DOPS   C3B 4775   9.294   3.904  13.053
12185DOPS   C4B 4776   9.204   4.204  13.473
12186DOPS   CNO 4777   4.204   3.884   6.463
12186DOPS   PO4 4778   4.124   3.594   6.583
12186DOPS   GL1 4779   3.774   3.604   6.843
12186DOPS   GL2 4780   3.644   3.674   6.643
12186DOPS   C1A 4781   3.694   3.324   7.183
12186DOPS   D2A 4782   3.574   3.144   7.663
12186DOPS   C3A 4783   3.444   3.174   8.143
12186DOPS   C4A 4784   3.314   3.394   8.643
12186DOPS   C1B 4785   3.234   3.544   6.783
12186DOPS   D2B 4786   2.824   3.154   6.873
12186DOPS   C3B 4787   2.364   2.984   6.943
12186DOPS   C4B 4788   1.934   2.934   7.063
12187DOPS   CNO 4789   4.514   5.774   7.053
12187DOPS   PO4 4790   4.624   5.384   7.163
12187DOPS   GL1 4791   4.274   5.354   7.413
12187DOPS   GL2 4792   4.164   5.184   7.523
12187DOPS   C1A 4793   4.204   5.514   7.833
12187DOPS   D2A 4794   3.974   5.824   8.113
12187DOPS   C3A 4795   3.714   5.884   8.563
12187DOPS   C4A 4796   3.504   5.804   8.973
12187DOPS   C1B 4797   3.944   5.134   7.863
12187DOPS   D2B 4798   3.594   4.844   8.123
12187DOPS   C3B 4799   3.414   5.024   8.543
12187DOPS   C4B 4800   3.274   5.194   9.013
23975DOPC   NC3 4801  23.514   7.134   7.793
23975DOPC   PO4 4802  23.304   6.804   7.863
23975DOPC   GL1 4803  23.364   6.664   7.543
23975DOPC   GL2 4804  23.114   6.484   7.543
23975DOPC   C1A 4805  23.414   6.804   7.103
23975DOPC   D2A 4806  23.414   6.984   6.673
23975DOPC   C3A 4807  23.384   6.844   6.223
23975DOPC   C4A 4808  23.434   6.934   5.723
23975DOPC   C1B 4809  22.914   6.424   7.203
23975DOPC   D2B 4810  22.714   6.274   6.763
23975DOPC   C3B 4811  22.454   6.184   6.403
23975DOPC   C4B 4812  22.734   6.114   5.973
23976DOPC   NC3 4813  16.714   1.004  14.003
23976DOPC   PO4 4814  16.934   0.864  13.703
23976DOPC   GL1 4815  16.804   0.724  13.273
23976DOPC   GL2 4816  16.744   0.984  13.303
23976DOPC   C1A 4817  16.454   0.544  13.043
23976DOPC   D2A 4818  16.174   0.197  12.703
23976DOPC   C3A 4819  16.094   7.604  12.883
23976DOPC   C4A 4820  15.824   7.294  12.883
23976DOPC   C1B 4821  16.314   0.974  13.153
23976DOPC   D2B 4822  16.014   0.784  12.843
23976DOPC   C3B 4823  16.004   0.534  12.443
23976DOPC   C4B 4824  15.804   0.137  12.083
23977DOPC   NC3 4825   8.444   2.834  15.273
23977DOPC   PO4 4826   8.134   3.074  15.133
23977DOPC   GL1 4827   7.774   2.994  14.833
23977DOPC   GL2 4828   7.944   2.744  14.843
23977DOPC   C1A 4829   8.104   3.124  14.433
23977DOPC   D2A 4830   8.324   3.284  13.973
23977DOPC   C3A 4831   8.554   3.544  13.713
23977DOPC   C4A 4832   8.734   3.934  13.483
23977DOPC   C1B 4833   8.264   2.684  14.513
23977DOPC   D2B 4834   8.444   2.844  14.063
23977DOPC   C3B 4835   8.714   3.064  13.683
23977DOPC   C4B 4836   8.984   3.454  13.923
23978DOPC   NC3 4837   9.804   6.304  16.143
23978DOPC   PO4 4838  10.104   6.054  16.233
23978DOPC   GL1 4839  10.284   6.144  15.943
23978DOPC   GL2 4840  10.284   6.434  16.043
23978DOPC   C1A 4841  10.484   5.904  15.643
23978DOPC   D2A 4842  10.734   5.644  15.293
23978DOPC   C3A 4843  11.084   5.784  14.993
23978DOPC   C4A 4844  11.374   5.684  14.653
23978DOPC   C1B 4845  10.394   6.734  15.833
23978DOPC   D2B 4846  10.654   7.074  15.573
23978DOPC   C3B 4847  10.854   7.294  15.153
23978DOPC   C4B 4848  11.144   7.294  14.793
23979DOPC   NC3 4849  16.134   0.384  14.963
23979DOPC   PO4 4850  15.904   0.077  14.953
23979DOPC   GL1 4851  15.754   0.137  14.583
23979DOPC   GL2 4852  15.564   7.744  14.643
23979DOPC   C1A 4853  15.774   0.214  14.143
23979DOPC   D2A 4854  15.644   7.774  13.783
23979DOPC   C3A 4855  15.874   7.584  13.443
23979DOPC   C4A 4856  16.134   7.294  13.683
23979DOPC   C1B 4857  15.424   7.694  14.253
23979DOPC   D2B 4858  15.134   7.594  13.853
23979DOPC   C3B 4859  14.884   7.654  13.443
23979DOPC   C4B 4860  14.804   7.624  12.913
23980DOPC   NC3 4861  22.154   3.104   7.653
23980DOPC   PO4 4862  22.084   2.854   7.933
23980DOPC   GL1 4863  21.674   2.924   7.993
23980DOPC   GL2 4864  21.644   2.714   7.763
23980DOPC   C1A 4865  21.384   3.284   7.853
23980DOPC   D2A 4866  20.924   3.404   7.713
23980DOPC   C3A 4867  20.844   3.884   7.553
23980DOPC   C4A 4868  20.664   4.324   7.323
23980DOPC   C1B 4869  21.654   2.984   7.403
23980DOPC   D2B 4870  21.544   3.084   6.943
23980DOPC   C3B 4871  21.464   2.724   6.613
23980DOPC   C4B 4872  21.424   2.314   6.353
23981DOPC   NC3 4873  23.224   4.004   7.053
23981DOPC   PO4 4874  23.174   3.774   7.443
23981DOPC   GL1 4875  23.234   3.374   7.263
23981DOPC   GL2 4876  23.004   3.284   7.263
23981DOPC   C1A 4877  23.364   3.424   6.843
23981DOPC   D2A 4878  23.600   3.594   6.403
23981DOPC   C3A 4879  23.234   3.534   6.093
23981DOPC   C4A 4880  22.834   3.474   5.893
23981DOPC   C1B 4881  23.034   3.024   7.003
23981DOPC   D2B 4882  22.954   2.734   6.653
23981DOPC   C3B 4883  23.224   2.624   6.253
23981DOPC   C4B 4884  23.414   2.294   6.013
23982DOPC   NC3 4885  24.710   0.394   8.293
23982DOPC   PO4 4886  24.740   0.704   8.053
23982DOPC   GL1 4887  24.770   0.484   7.643
23982DOPC   GL2 4888  24.880   0.187   7.843
23982DOPC   C1A 4889  24.860   0.684   7.313
23982DOPC   D2A 4890   0.064   0.634   6.823
23982DOPC   C3A 4891   0.454   0.454   6.743
23982DOPC   C4A 4892   0.894   0.464   6.683
23982DOPC   C1B 4893   0.234   0.274   7.713
23982DOPC   D2B 4894   0.624   0.574   7.753
23982DOPC   C3B 4895   0.964   0.574   8.073
23982DOPC   C4B 4896   1.364   0.704   7.933
23983DOPC   NC3 4897  18.834   2.174  12.163
23983DOPC   PO4 4898  18.824   1.844  11.903
23983DOPC   GL1 4899  18.574   1.884  11.573
23983DOPC   GL2 4900  18.604   2.004  11.433
23983DOPC   C1A 4901  18.184   1.694  11.443
23983DOPC   D2A 4902  17.864   1.394  11.283
23983DOPC   C3A 4903  17.494   1.094  11.503
23983DOPC   C4A 4904  17.024   1.134  11.693
23983DOPC   C1B 4905  18.394   2.164  11.063
23983DOPC   D2B 4906  18.364   2.094  10.623
23983DOPC   C3B 4907  18.094   2.254  10.273
23983DOPC   C4B 4908  17.954   2.314   9.803
23984DOPC   NC3 4909   8.914   2.644  15.933
23984DOPC   PO4 4910   9.214   2.394  15.913
23984DOPC   GL1 4911   9.464   2.344  15.583
23984DOPC   GL2 4912   9.624   2.584  15.613
23984DOPC   C1A 4913   9.614   2.184  15.183
23984DOPC   D2A 4914   9.524   2.064  14.723
23984DOPC   C3A 4915   9.394   1.644  14.503
23984DOPC   C4A 4916   9.094   1.394  14.703
23984DOPC   C1B 4917   9.634   2.764  15.203
23984DOPC   D2B 4918   9.854   2.634  14.743
23984DOPC   C3B 4919   9.924   2.574  14.263
23984DOPC   C4B 4920  10.054   2.634  13.743
23985DOPC   NC3 4921  11.774   2.234  16.063
23985DOPC   PO4 4922  12.114   2.414  16.043
23985DOPC   GL1 4923  12.084   2.714  15.633
23985DOPC   GL2 4924  12.364   2.614  15.643
23985DOPC   C1A 4925  11.974   2.634  15.213
23985DOPC   D2A 4926  11.894   2.434  14.743
23985DOPC   C3A 4927  12.054   2.724  14.403
23985DOPC   C4A 4928  12.304   2.734  13.963
23985DOPC   C1B 4929  12.474   2.874  15.323
23985DOPC   D2B 4930  12.304   2.914  14.913
23985DOPC   C3B 4931  12.274   3.164  14.513
23985DOPC   C4B 4932  12.304   3.214  14.043
23986DOPC   NC3 4933  13.824   1.764  15.963
23986DOPC   PO4 4934  13.554   1.504  15.823
23986DOPC   GL1 4935  13.644   1.414  15.503
23986DOPC   GL2 4936  13.894   1.614  15.513
23986DOPC   C1A 4937  13.344   1.584  15.143
23986DOPC   D2A 4938  12.954   1.754  14.833
23986DOPC   C3A 4939  12.544   1.794  15.073
23986DOPC   C4A 4940  12.194   1.764  15.373
23986DOPC   C1B 4941  13.734   1.994  15.433
23986DOPC   D2B 4942  13.734   2.424  15.203
23986DOPC   C3B 4943  13.374   2.584  15.023
23986DOPC   C4B 4944  13.124   2.754  14.553
23987DOPC   NC3 4945  19.814   3.674  10.233
23987DOPC   PO4 4946  19.784   4.074  10.353
23987DOPC   GL1 4947  19.474   4.104  10.143
23987DOPC   GL2 4948  19.514   3.924   9.953
23987DOPC   C1A 4949  19.134   4.294  10.053
23987DOPC   D2A 4950  18.914   4.704   9.943
23987DOPC   C3A 4951  18.774   5.084   9.753
23987DOPC   C4A 4952  18.624   5.434   9.553
23987DOPC   C1B 4953  19.284   4.054   9.473
23987DOPC   D2B 4954  18.954   4.244   9.173
23987DOPC   C3B 4955  18.874   4.554   8.833
23987DOPC   C4B 4956  18.564   4.924   8.803
23988DOPC   NC3 4957  21.444   1.784   8.383
23988DOPC   PO4 4958  21.094   1.624   8.513
23988DOPC   GL1 4959  20.784   1.534   8.233
23988DOPC   GL2 4960  20.914   1.794   8.063
23988DOPC   C1A 4961  20.464   1.354   8.043
23988DOPC   D2A 4962  20.054   1.084   8.093
23988DOPC   C3A 4963  19.614   1.084   7.933
23988DOPC   C4A 4964  19.554   0.854   7.493
23988DOPC   C1B 4965  20.904   1.864   7.633
23988DOPC   D2B 4966  20.864   1.944   7.193
23988DOPC   C3B 4967  21.084   1.634   6.893
23988DOPC   C4B 4968  21.344   1.304   6.683
23989DOPC   NC3 4969  19.854   0.087  10.313
23989DOPC   PO4 4970  20.094   7.604  10.293
23989DOPC   GL1 4971  19.814   7.364  10.053
23989DOPC   GL2 4972  19.634   7.404  10.283
23989DOPC   C1A 4973  19.824   7.204   9.663
23989DOPC   D2A 4974  19.474   7.004   9.363
23989DOPC   C3A 4975  19.314   7.084   8.903
23989DOPC   C4A 4976  19.034   7.254   8.563
23989DOPC   C1B 4977  19.164   7.444  10.203
23989DOPC   D2B 4978  18.784   7.484   9.883
23989DOPC   C3B 4979  18.364   7.324   9.743
23989DOPC   C4B 4980  17.904   7.414   9.733
23990DOPC   NC3 4981  16.394   6.064  14.513
23990DOPC   PO4 4982  16.054   6.094  14.703
23990DOPC   GL1 4983  15.804   5.854  14.513
23990DOPC   GL2 4984  15.994   5.884  14.293
23990DOPC   C1A 4985  15.474   5.664  14.343
23990DOPC   D2A 4986  15.314   5.634  13.893
23990DOPC   C3A 4987  15.014   5.814  13.593
23990DOPC   C4A 4988  14.514   5.834  13.463
23990DOPC   C1B 4989  16.184   5.634  13.963
23990DOPC   D2B 4990  16.154   5.294  13.603
23990DOPC   C3B 4991  15.904   5.224  13.253
23990DOPC   C4B 4992  15.764   5.244  12.833
23991DOPC   NC3 4993   6.254   7.644  14.763
23991DOPC   PO4 4994   6.484   7.294  14.733
23991DOPC   GL1 4995   6.784   7.404  14.533
23991DOPC   GL2 4996   6.854   7.074  14.473
23991DOPC   C1A 4997   6.854   7.574  14.153
23991DOPC   D2A 4998   7.004   7.534  13.693
23991DOPC   C3A 4999   7.204   7.584  13.273
23991DOPC   C4A 5000   7.364   0.077  12.833
23991DOPC   C1B 5001   7.034   7.014  14.073
23991DOPC   D2B 5002   7.314   6.824  13.703
23991DOPC   C3B 5003   7.474   6.924  13.283
23991DOPC   C4B 5004   7.754   6.934  12.823
23992DOPC   NC3 5005  16.424   5.134  14.203
23992DOPC   PO4 5006  16.734   5.074  13.973
23992DOPC   GL1 5007  16.734   4.974  13.583
23992DOPC   GL2 5008  16.614   5.274  13.563
23992DOPC   C1A 5009  16.444   4.894  13.293
23992DOPC   D2A 5010  15.954   4.774  13.153
23992DOPC   C3A 5011  15.484   4.794  13.233
23992DOPC   C4A 5012  15.054   4.984  13.283
23992DOPC   C1B 5013  16.494   5.664  13.423
23992DOPC   D2B 5014  16.344   6.084  13.163
23992DOPC   C3B 5015  16.034   6.114  12.803
23992DOPC   C4B 5016  15.814   6.344  12.413
23993DOPC   NC3 5017  18.774   0.724  12.263
23993DOPC   PO4 5018  18.884   0.444  12.033
23993DOPC   GL1 5019  18.574   0.494  11.833
23993DOPC   GL2 5020  18.744   0.754  11.793
23993DOPC   C1A 5021  18.174   0.574  11.543
23993DOPC   D2A 5022  17.874   0.764  11.213
23993DOPC   C3A 5023  17.574   1.104  10.983
23993DOPC   C4A 5024  17.714   1.414  10.653
23993DOPC   C1B 5025  18.674   0.714  11.303
23993DOPC   D2B 5026  18.534   0.634  10.803
23993DOPC   C3B 5027  18.114   0.494  10.703
23993DOPC   C4B 5028  17.694   0.354  10.503
23994DOPC   NC3 5029  19.604   2.934  10.583
23994DOPC   PO4 5030  19.394   2.734  10.863
23994DOPC   GL1 5031  19.004   2.864  10.593
23994DOPC   GL2 5032  19.194   2.864  10.403
23994DOPC   C1A 5033  18.584   2.814  10.453
23994DOPC   D2A 5034  18.144   2.744  10.233
23994DOPC   C3A 5035  17.774   2.774   9.963
23994DOPC   C4A 5036  17.594   2.654   9.573
23994DOPC   C1B 5037  19.074   3.094  10.063
23994DOPC   D2B 5038  18.884   3.354   9.713
23994DOPC   C3B 5039  18.824   3.254   9.243
23994DOPC   C4B 5040  18.934   3.414   8.763
23995DOPC   NC3 5041   3.784   1.344  12.683
23995DOPC   PO4 5042   4.094   1.104  12.613
23995DOPC   GL1 5043   4.364   1.414  12.423
23995DOPC   GL2 5044   4.104   1.324  12.243
23995DOPC   C1A 5045   4.744   1.494  12.153
23995DOPC   D2A 5046   5.094   1.654  11.843
23995DOPC   C3A 5047   5.304   1.724  11.433
23995DOPC   C4A 5048   5.404   1.794  10.973
23995DOPC   C1B 5049   4.164   1.554  11.873
23995DOPC   D2B 5050   4.274   1.814  11.453
23995DOPC   C3B 5051   4.524   2.064  11.173
23995DOPC   C4B 5052   4.724   2.264  10.813
23996DOPC   NC3 5053   0.474   7.004   8.693
23996DOPC   PO4 5054   0.184   7.234   8.683
23996DOPC   GL1 5055   0.194   7.174   8.263
23996DOPC   GL2 5056   0.494   7.234   8.293
23996DOPC   C1A 5057   0.284   6.804   7.993
23996DOPC   D2A 5058   0.394   6.464   7.663
23996DOPC   C3A 5059   0.804   6.594   7.473
23996DOPC   C4A 5060   1.284   6.554   7.693
23996DOPC   C1B 5061   0.574   7.364   7.923
23996DOPC   D2B 5062   0.834   7.374   7.483
23996DOPC   C3B 5063   1.264   7.234   7.373
23996DOPC   C4B 5064   1.724   7.444   7.143
23997DOPC   NC3 5065  24.170   0.804   8.013
23997DOPC   PO4 5066  24.080   1.184   7.843
23997DOPC   GL1 5067  24.100   1.324   7.473
23997DOPC   GL2 5068  24.020   1.074   7.383
23997DOPC   C1A 5069  24.090   1.514   7.053
23997DOPC   D2A 5070  24.140   1.514   6.553
23997DOPC   C3A 5071  23.930   1.704   6.203
23997DOPC   C4A 5072  23.770   1.994   5.733
23997DOPC   C1B 5073  23.850   0.894   7.003
23997DOPC   D2B 5074  23.670   0.764   6.543
23997DOPC   C3B 5075  23.760   0.614   6.173
23997DOPC   C4B 5076  23.690   0.234   5.883
23998DOPC   NC3 5077  12.524   1.934  16.003
23998DOPC   PO4 5078  12.134   1.914  16.143
23998DOPC   GL1 5079  11.924   1.904  15.753
23998DOPC   GL2 5080  12.194   2.084  15.723
23998DOPC   C1A 5081  11.494   2.024  15.633
23998DOPC   D2A 5082  11.114   2.264  15.393
23998DOPC   C3A 5083  11.064   2.294  14.943
23998DOPC   C4A 5084  11.224   2.204  14.413
23998DOPC   C1B 5085  12.394   2.254  15.393
23998DOPC   D2B 5086  12.424   2.384  14.883
23998DOPC   C3B 5087  12.344   2.234  14.473
23998DOPC   C4B 5088  12.124   2.304  14.043
23999DOPC   NC3 5089  21.374   2.564   8.793
23999DOPC   PO4 5090  21.374   2.134   8.773
23999DOPC   GL1 5091  21.064   2.134   8.423
23999DOPC   GL2 5092  21.314   2.204   8.223
23999DOPC   C1A 5093  20.774   2.274   8.063
23999DOPC   D2A 5094  20.464   2.184   7.653
23999DOPC   C3A 5095  20.084   1.964   7.813
23999DOPC   C4A 5096  19.724   1.664   8.013
23999DOPC   C1B 5097  21.374   1.974   7.873
23999DOPC   D2B 5098  21.334   1.594   7.583
23999DOPC   C3B 5099  21.494   1.724   7.163
23999DOPC   C4B 5100  21.784   2.034   7.003
24000DOPC   NC3 5101  18.094   3.934  12.983
24000DOPC   PO4 5102  17.994   3.584  12.973
24000DOPC   GL1 5103  17.734   3.414  12.603
24000DOPC   GL2 5104  17.614   3.354  12.843
24000DOPC   C1A 5105  17.484   3.424  12.223
24000DOPC   D2A 5106  17.124   3.454  11.843
24000DOPC   C3A 5107  16.734   3.704  11.923
24000DOPC   C4A 5108  16.224   3.664  11.933
24000DOPC   C1B 5109  17.124   3.374  12.893
24000DOPC   D2B 5110  16.634   3.094  13.013
24000DOPC   C3B 5111  16.214   3.054  12.883
24000DOPC   C4B 5112  15.774   2.974  12.703
24001DOPC   NC3 5113   2.544   2.624  10.953
24001DOPC   PO4 5114   2.214   2.774  10.713
24001DOPC   GL1 5115   2.454   2.824  10.343
24001DOPC   GL2 5116   2.254   2.564  10.253
24001DOPC   C1A 5117   2.844   2.914  10.053
24001DOPC   D2A 5118   3.054   3.114   9.703
24001DOPC   C3A 5119   3.364   3.464   9.533
24001DOPC   C4A 5120   3.714   3.224   9.273
24001DOPC   C1B 5121   2.584   2.384  10.043
24001DOPC   D2B 5122   2.984   2.054   9.943
24001DOPC   C3B 5123   3.324   2.144   9.583
24001DOPC   C4B 5124   3.804   2.134   9.313
24002DOPC   NC3 5125   8.214   3.564  15.233
24002DOPC   PO4 5126   8.534   3.324  15.333
24002DOPC   GL1 5127   8.774   3.394  15.003
24002DOPC   GL2 5128   8.584   3.574  14.903
24002DOPC   C1A 5129   9.104   3.584  14.853
24002DOPC   D2A 5130   9.174   3.634  14.383
24002DOPC   C3A 5131   9.484   3.524  14.073
24002DOPC   C4A 5132   9.484   3.434  13.553
24002DOPC   C1B 5133   8.774   3.854  14.633
24002DOPC   D2B 5134   8.874   4.274  14.403
24002DOPC   C3B 5135   9.064   4.664  14.233
24002DOPC   C4B 5136   9.174   4.894  13.823
24003DOPC   NC3 5137  21.834   0.944   8.003
24003DOPC   PO4 5138  21.464   0.864   8.083
24003DOPC   GL1 5139  21.134   0.714   7.863
24003DOPC   GL2 5140  21.044   0.994   7.913
24003DOPC   C1A 5141  20.904   0.444   7.573
24003DOPC   D2A 5142  20.664   0.314   7.133
24003DOPC   C3A 5143  20.254   0.284   6.813
24003DOPC   C4A 5144  19.984   0.107   6.383
24003DOPC   C1B 5145  20.914   1.334   7.773
24003DOPC   D2B 5146  20.794   1.434   7.313
24003DOPC   C3B 5147  20.844   1.224   6.923
24003DOPC   C4B 5148  20.814   0.864   6.513
24004DOPC   NC3 5149  18.624   6.064  12.943
24004DOPC   PO4 5150  18.224   6.064  13.083
24004DOPC   GL1 5151  17.894   6.364  12.903
24004DOPC   GL2 5152  17.704   6.154  12.953
24004DOPC   C1A 5153  17.814   6.554  12.583
24004DOPC   D2A 5154  17.624   6.624  12.093
24004DOPC   C3A 5155  17.254   6.584  11.883
24004DOPC   C4A 5156  16.884   6.454  11.593
24004DOPC   C1B 5157  17.344   6.234  13.103
24004DOPC   D2B 5158  16.914   6.194  12.893
24004DOPC   C3B 5159  16.744   6.094  12.463
24004DOPC   C4B 5160  16.624   6.214  12.033
24005DOPC   NC3 5161  17.234   6.604  14.683
24005DOPC   PO4 5162  17.294   6.724  14.363
24005DOPC   GL1 5163  17.074   6.544  14.153
24005DOPC   GL2 5164  16.894   6.644  14.293
24005DOPC   C1A 5165  17.044   6.294  13.783
24005DOPC   D2A 5166  17.104   6.004  13.403
24005DOPC   C3A 5167  16.844   5.734  13.073
24005DOPC   C4A 5168  16.474   5.744  12.753
24005DOPC   C1B 5169  16.574   6.484  14.053
24005DOPC   D2B 5170  16.224   6.244  13.913
24005DOPC   C3B 5171  15.884   6.444  13.603
24005DOPC   C4B 5172  16.054   6.564  13.093
24006DOPC   NC3 5173   5.764   6.254  14.723
24006DOPC   PO4 5174   5.984   5.964  14.563
24006DOPC   GL1 5175   6.334   5.984  14.353
24006DOPC   GL2 5176   6.224   5.904  14.053
24006DOPC   C1A 5177   6.674   6.264  14.283
24006DOPC   D2A 5178   7.094   6.584  14.303
24006DOPC   C3A 5179   7.384   6.484  14.023
24006DOPC   C4A 5180   7.744   6.484  13.673
24006DOPC   C1B 5181   6.534   6.074  13.773
24006DOPC   D2B 5182   6.764   6.164  13.303
24006DOPC   C3B 5183   7.054   6.214  12.943
24006DOPC   C4B 5184   7.304   5.964  12.603
24007DOPC   NC3 5185  23.354   5.474   7.623
24007DOPC   PO4 5186  23.690   5.464   7.883
24007DOPC   GL1 5187  24.030   5.344   7.703
24007DOPC   GL2 5188  24.210   5.304   7.843
24007DOPC   C1A 5189  24.000   5.474   7.293
24007DOPC   D2A 5190  24.020   5.614   6.843
24007DOPC   C3A 5191  23.890   5.624   6.333
24007DOPC   C4A 5192  23.710   5.374   5.953
24007DOPC   C1B 5193  24.450   5.664   7.593
24007DOPC   D2B 5194  24.730   5.934   7.303
24007DOPC   C3B 5195  24.840   6.024   6.823
24007DOPC   C4B 5196  24.820   6.224   6.413
24008DOPC   NC3 5197  24.700   6.344   8.653
24008DOPC   PO4 5198  24.500   6.534   8.383
24008DOPC   GL1 5199  24.580   6.644   8.013
24008DOPC   GL2 5200  24.300   6.594   7.923
24008DOPC   C1A 5201  24.910   6.694   7.723
24008DOPC   D2A 5202   0.114   6.784   7.313
24008DOPC   C3A 5203   0.194   7.094   6.983
24008DOPC   C4A 5204   0.454   7.564   6.883
24008DOPC   C1B 5205  24.290   6.804   7.533
24008DOPC   D2B 5206  24.320   7.054   7.093
24008DOPC   C3B 5207  24.270   6.974   6.563
24008DOPC   C4B 5208  24.240   6.814   6.073
24009DOPC   NC3 5209   1.794   4.264  11.093
24009DOPC   PO4 5210   2.024   4.414  10.853
24009DOPC   GL1 5211   2.194   4.364  10.503
24009DOPC   GL2 5212   2.204   4.694  10.503
24009DOPC   C1A 5213   2.524   4.334  10.143
24009DOPC   D2A 5214   2.864   4.304   9.813
24009DOPC   C3A 5215   2.954   4.394   9.383
24009DOPC   C4A 5216   3.274   4.304   8.983
24009DOPC   C1B 5217   2.564   4.874  10.293
24009DOPC   D2B 5218   2.934   4.734  10.063
24009DOPC   C3B 5219   3.204   4.714   9.693
24009DOPC   C4B 5220   3.494   5.034   9.443
24010DOPC   NC3 5221  19.074   1.834  11.473
24010DOPC   PO4 5222  19.244   2.004  11.183
24010DOPC   GL1 5223  19.004   1.864  10.853
24010DOPC   GL2 5224  18.994   1.624  11.033
24010DOPC   C1A 5225  18.764   1.874  10.483
24010DOPC   D2A 5226  18.374   1.864  10.173
24010DOPC   C3A 5227  18.164   1.684   9.803
24010DOPC   C4A 5228  18.154   1.264   9.503
24010DOPC   C1B 5229  18.594   1.704  10.973
24010DOPC   D2B 5230  18.094   1.804  10.923
24010DOPC   C3B 5231  17.944   1.874  10.533
24010DOPC   C4B 5232  17.704   1.934  10.123
24011DOPC   NC3 5233  24.090   6.784   8.263
24011DOPC   PO4 5234  23.840   6.574   8.033
24011DOPC   GL1 5235  23.950   6.364   7.723
24011DOPC   GL2 5236  24.170   6.234   7.773
24011DOPC   C1A 5237  23.790   6.504   7.363
24011DOPC   D2A 5238  23.830   6.344   6.883
24011DOPC   C3A 5239  23.720   6.084   6.473
24011DOPC   C4A 5240  23.354   6.044   6.213
24011DOPC   C1B 5241  24.510   6.304   7.543
24011DOPC   D2B 5242  24.630   6.534   7.153
24011DOPC   C3B 5243  24.950   6.664   6.843
24011DOPC   C4B 5244   0.254   6.964   6.543
24012DOPC   NC3 5245  24.150   1.664   7.753
24012DOPC   PO4 5246  24.500   1.424   7.783
24012DOPC   GL1 5247  24.530   1.444   7.393
24012DOPC   GL2 5248  24.430   1.174   7.283
24012DOPC   C1A 5249  24.670   1.544   6.993
24012DOPC   D2A 5250  24.760   1.464   6.553
24012DOPC   C3A 5251   0.034   1.524   6.193
24012DOPC   C4A 5252   0.324   1.774   5.903
24012DOPC   C1B 5253  24.320   1.124   6.873
24012DOPC   D2B 5254  24.050   1.054   6.453
24012DOPC   C3B 5255  23.670   1.284   6.313
24012DOPC   C4B 5256  23.264   1.224   5.963
24013DOPC   NC3 5257  18.034   6.714  13.783
24013DOPC   PO4 5258  17.774   6.444  13.763
24013DOPC   GL1 5259  17.384   6.664  13.823
24013DOPC   GL2 5260  17.324   6.564  13.503
24013DOPC   C1A 5261  17.444   7.034  13.633
24013DOPC   D2A 5262  17.284   7.484  13.383
24013DOPC   C3A 5263  16.904   7.674  13.223
24013DOPC   C4A 5264  16.484   0.047  13.033
24013DOPC   C1B 5265  16.894   6.444  13.303
24013DOPC   D2B 5266  16.554   6.514  12.953
24013DOPC   C3B 5267  16.504   6.524  12.483
24013DOPC   C4B 5268  16.154   6.614  12.153
24014DOPC   NC3 5269  10.084   1.274  16.403
24014DOPC   PO4 5270   9.954   1.544  16.143
24014DOPC   GL1 5271   9.954   1.524  15.783
24014DOPC   GL2 5272  10.084   1.774  15.693
24014DOPC   C1A 5273   9.654   1.364  15.473
24014DOPC   D2A 5274   9.254   1.074  15.233
24014DOPC   C3A 5275   9.294   0.654  15.063
24014DOPC   C4A 5276   9.454   0.204  14.973
24014DOPC   C1B 5277  10.304   1.834  15.373
24014DOPC   D2B 5278  10.634   1.884  15.043
24014DOPC   C3B 5279  10.484   1.984  14.653
24014DOPC   C4B 5280  10.344   1.894  14.203
24015DOPC   NC3 5281  22.734   6.934   8.033
24015DOPC   PO4 5282  22.754   7.354   8.033
24015DOPC   GL1 5283  23.134   7.394   7.733
24015DOPC   GL2 5284  22.994   7.114   7.673
24015DOPC   C1A 5285  23.144   7.734   7.473
24015DOPC   D2A 5286  23.094   0.027   6.983
24015DOPC   C3A 5287  23.314   7.564   6.643
24015DOPC   C4A 5288  23.444   7.314   6.203
24015DOPC   C1B 5289  22.984   6.994   7.313
24015DOPC   D2B 5290  22.924   6.784   6.813
24015DOPC   C3B 5291  22.914   7.004   6.433
24015DOPC   C4B 5292  22.944   7.014   5.923
24016DOPC   NC3 5293  21.964   4.004   8.003
24016DOPC   PO4 5294  21.614   3.944   7.803
24016DOPC   GL1 5295  21.414   3.854   7.423
24016DOPC   GL2 5296  21.644   3.934   7.223
24016DOPC   C1A 5297  21.134   3.764   7.163
24016DOPC   D2A 5298  21.144   3.604   6.723
24016DOPC   C3A 5299  21.254   3.214   6.523
24016DOPC   C4A 5300  21.284   2.924   6.173
24016DOPC   C1B 5301  21.564   4.014   6.803
24016DOPC   D2B 5302  21.374   4.194   6.363
24016DOPC   C3B 5303  20.994   4.314   6.143
24016DOPC   C4B 5304  20.594   4.444   5.893
24017DOPC   NC3 5305  13.724   6.884  15.983
24017DOPC   PO4 5306  13.724   7.074  15.633
24017DOPC   GL1 5307  13.564   6.974  15.313
24017DOPC   GL2 5308  13.654   7.164  15.103
24017DOPC   C1A 5309  13.544   6.534  15.153
24017DOPC   D2A 5310  13.524   6.114  14.863
24017DOPC   C3A 5311  13.524   6.374  14.503
24017DOPC   C4A 5312  13.554   6.634  14.063
24017DOPC   C1B 5313  13.304   6.994  14.943
24017DOPC   D2B 5314  12.834   6.844  14.943
24017DOPC   C3B 5315  12.514   6.794  14.613
24017DOPC   C4B 5316  12.094   6.844  14.343
24018DOPC   NC3 5317  23.564   2.994   7.803
24018DOPC   PO4 5318  23.554   3.334   7.573
24018DOPC   GL1 5319  23.920   3.434   7.403
24018DOPC   GL2 5320  23.720   3.484   7.183
24018DOPC   C1A 5321  24.300   3.214   7.193
24018DOPC   D2A 5322  24.610   3.134   6.843
24018DOPC   C3A 5323  24.520   3.334   6.373
24018DOPC   C4A 5324  24.270   3.424   5.913
24018DOPC   C1B 5325  23.870   3.334   6.813
24018DOPC   D2B 5326  23.990   3.254   6.343
24018DOPC   C3B 5327  24.140   2.924   6.023
24018DOPC   C4B 5328  24.400   2.524   6.113
24019DOPC   NC3 5329  24.580   3.734   8.973
24019DOPC   PO4 5330  24.520   3.954   8.653
24019DOPC   GL1 5331  24.690   4.214   8.333
24019DOPC   GL2 5332  24.850   4.364   8.453
24019DOPC   C1A 5333  24.890   4.384   7.923
24019DOPC   D2A 5334  25.030   4.614   7.503
24019DOPC   C3A 5335  24.800   4.864   7.103
24019DOPC   C4A 5336  24.790   5.164   6.663
24019DOPC   C1B 5337   0.174   4.174   8.383
24019DOPC   D2B 5338   0.574   3.894   8.313
24019DOPC   C3B 5339   0.824   3.804   7.953
24019DOPC   C4B 5340   0.984   3.784   7.473
24020DOPC   NC3 5341  15.194   7.074  14.733
24020DOPC   PO4 5342  15.544   6.874  14.673
24020DOPC   GL1 5343  15.664   6.704  14.303
24020DOPC   GL2 5344  15.534   6.794  14.113
24020DOPC   C1A 5345  15.734   6.354  14.033
24020DOPC   D2A 5346  15.764   5.904  13.913
24020DOPC   C3A 5347  15.824   5.754  13.493
24020DOPC   C4A 5348  15.634   5.654  13.063
24020DOPC   C1B 5349  15.594   6.774  13.733
24020DOPC   D2B 5350  15.484   6.714  13.303
24020DOPC   C3B 5351  15.554   6.774  12.913
24020DOPC   C4B 5352  15.614   7.014  12.453
24021DOPC   NC3 5353  15.884   4.554  14.913
24021DOPC   PO4 5354  16.084   4.364  14.633
24021DOPC   GL1 5355  15.934   4.244  14.353
24021DOPC   GL2 5356  15.874   4.054  14.233
24021DOPC   C1A 5357  15.924   4.464  14.003
24021DOPC   D2A 5358  15.884   4.344  13.533
24021DOPC   C3A 5359  15.684   4.354  13.153
24021DOPC   C4A 5360  15.364   4.224  12.803
24021DOPC   C1B 5361  15.904   3.934  13.823
24021DOPC   D2B 5362  15.834   3.714  13.363
24021DOPC   C3B 5363  15.424   3.744  13.123
24021DOPC   C4B 5364  15.004   3.994  13.113
24022DOPC   NC3 5365   0.894   1.824   9.363
24022DOPC   PO4 5366   1.074   1.604   9.613
24022DOPC   GL1 5367   1.344   1.674   9.393
24022DOPC   GL2 5368   1.394   1.304   9.383
24022DOPC   C1A 5369   1.704   1.894   9.463
24022DOPC   D2A 5370   2.024   2.354   9.443
24022DOPC   C3A 5371   2.154   2.564   9.003
24022DOPC   C4A 5372   2.584   2.544   8.893
24022DOPC   C1B 5373   1.794   1.414   9.443
24022DOPC   D2B 5374   2.184   1.244   9.173
24022DOPC   C3B 5375   2.244   1.594   8.873
24022DOPC   C4B 5376   2.634   1.824   8.723
24023DOPC   NC3 5377   3.234   1.124  11.933
24023DOPC   PO4 5378   3.284   1.074  11.513
24023DOPC   GL1 5379   3.454   0.814  11.243
24023DOPC   GL2 5380   3.604   0.714  11.493
24023DOPC   C1A 5381   3.654   0.834  10.853
24023DOPC   D2A 5382   3.964   0.844  10.533
24023DOPC   C3A 5383   4.394   0.914  10.343
24023DOPC   C4A 5384   4.904   1.004  10.213
24023DOPC   C1B 5385   3.964   0.894  11.353
24023DOPC   D2B 5386   4.264   1.274  11.233
24023DOPC   C3B 5387   4.464   1.134  10.853
24023DOPC   C4B 5388   4.924   0.954  10.723
24024DOPC   NC3 5389   8.034   3.914  15.683
24024DOPC   PO4 5390   8.194   4.174  15.433
24024DOPC   GL1 5391   8.274   4.274  15.073
24024DOPC   GL2 5392   8.354   4.014  14.933
24024DOPC   C1A 5393   8.394   4.644  14.923
24024DOPC   D2A 5394   8.624   4.924  14.563
24024DOPC   C3A 5395   8.774   5.024  14.113
24024DOPC   C4A 5396   8.794   5.044  13.593
24024DOPC   C1B 5397   8.424   4.204  14.493
24024DOPC   D2B 5398   8.274   4.624  14.233
24024DOPC   C3B 5399   8.054   4.794  13.863
24024DOPC   C4B 5400   8.044   4.694  13.393
24025DOPC   NC3 5401  24.570   0.904   7.633
24025DOPC   PO4 5402  24.250   0.724   7.553
24025DOPC   GL1 5403  24.230   0.704   7.123
24025DOPC   GL2 5404  24.470   0.764   7.083
24025DOPC   C1A 5405  24.120   0.554   6.693
24025DOPC   D2A 5406  24.340   0.614   6.273
24025DOPC   C3A 5407  24.770   0.544   6.093
24025DOPC   C4A 5408   0.244   0.664   6.153
24025DOPC   C1B 5409  24.640   0.794   6.603
24025DOPC   D2B 5410  24.810   1.014   6.163
24025DOPC   C3B 5411  24.560   1.434   6.103
24025DOPC   C4B 5412  24.460   1.894   6.273
24026DOPC   NC3 5413  20.334   7.184   9.883
24026DOPC   PO4 5414  20.374   7.494   9.663
24026DOPC   GL1 5415  20.064   7.464   9.413
24026DOPC   GL2 5416  19.844   7.714   9.573
24026DOPC   C1A 5417  19.794   7.334   9.083
24026DOPC   D2A 5418  19.534   7.464   8.633
24026DOPC   C3A 5419  19.294   7.524   8.183
24026DOPC   C4A 5420  19.054   0.127   8.063
24026DOPC   C1B 5421  19.474   7.564   9.333
24026DOPC   D2B 5422  19.204   7.534   8.973
24026DOPC   C3B 5423  19.194   7.804   8.633
24026DOPC   C4B 5424  19.574   0.127   8.363
24027DOPC   NC3 5425  20.494   5.044   9.393
24027DOPC   PO4 5426  20.504   5.234   9.753
24027DOPC   GL1 5427  20.194   5.384   9.543
24027DOPC   GL2 5428  20.354   5.534   9.383
24027DOPC   C1A 5429  19.964   5.244   9.163
24027DOPC   D2A 5430  19.574   4.964   8.993
24027DOPC   C3A 5431  19.414   4.564   9.013
24027DOPC   C4A 5432  19.364   4.054   8.963
24027DOPC   C1B 5433  20.174   5.694   9.033
24027DOPC   D2B 5434  20.164   5.674   8.513
24027DOPC   C3B 5435  19.744   5.714   8.413
24027DOPC   C4B 5436  19.344   5.664   8.213
24028DOPC   NC3 5437   8.934   4.724  15.063
24028DOPC   PO4 5438   9.164   4.494  15.203
24028DOPC   GL1 5439   9.414   4.474  14.983
24028DOPC   GL2 5440   9.224   4.574  14.753
24028DOPC   C1A 5441   9.694   4.614  14.753
24028DOPC   D2A 5442  10.164   4.814  14.663
24028DOPC   C3A 5443  10.364   4.824  14.233
24028DOPC   C4A 5444  10.524   4.964  13.813
24028DOPC   C1B 5445   9.164   4.964  14.643
24028DOPC   D2B 5446   9.254   5.244  14.213
24028DOPC   C3B 5447   9.184   5.444  13.843
24028DOPC   C4B 5448   9.114   5.594  13.363
24029DOPC   NC3 5449  20.804   3.004  10.063
24029DOPC   PO4 5450  20.624   3.264   9.813
24029DOPC   GL1 5451  20.504   3.444   9.453
24029DOPC   GL2 5452  20.344   3.164   9.403
24029DOPC   C1A 5453  20.104   3.514   9.163
24029DOPC   D2A 5454  19.904   3.484   8.683
24029DOPC   C3A 5455  19.724   3.294   8.273
24029DOPC   C4A 5456  19.504   3.454   7.883
24029DOPC   C1B 5457  20.044   2.934   9.243
24029DOPC   D2B 5458  20.004   2.464   9.203
24029DOPC   C3B 5459  19.734   2.174   9.473
24029DOPC   C4B 5460  19.634   1.694   9.523
24030DOPC   NC3 5461  17.944   3.084  12.913
24030DOPC   PO4 5462  17.954   2.724  13.033
24030DOPC   GL1 5463  17.724   2.704  12.803
24030DOPC   GL2 5464  17.504   2.884  12.803
24030DOPC   C1A 5465  17.474   2.504  12.533
24030DOPC   D2A 5466  17.414   2.684  12.093
24030DOPC   C3A 5467  17.114   2.884  11.803
24030DOPC   C4A 5468  16.674   3.184  11.893
24030DOPC   C1B 5469  17.094   2.834  12.903
24030DOPC   D2B 5470  16.744   2.704  12.653
24030DOPC   C3B 5471  16.374   2.804  12.473
24030DOPC   C4B 5472  16.234   3.264  12.363
24031DOPC   NC3 5473  10.964   4.774  15.973
24031DOPC   PO4 5474  11.184   4.464  15.833
24031DOPC   GL1 5475  11.064   4.404  15.433
24031DOPC   GL2 5476  11.234   4.654  15.363
24031DOPC   C1A 5477  10.924   4.134  15.193
24031DOPC   D2A 5478  10.954   4.104  14.683
24031DOPC   C3A 5479  10.824   3.924  14.333
24031DOPC   C4A 5480  10.544   3.914  13.913
24031DOPC   C1B 5481  11.504   4.444  15.133
24031DOPC   D2B 5482  11.884   4.474  14.823
24031DOPC   C3B 5483  12.234   4.804  14.733
24031DOPC   C4B 5484  12.294   5.094  14.293
24032DOPC   NC3 5485  24.510   4.924   8.723
24032DOPC   PO4 5486  24.900   4.814   8.703
24032DOPC   GL1 5487   0.254   4.874   8.593
24032DOPC   GL2 5488   0.204   4.654   8.363
24032DOPC   C1A 5489   0.634   5.054   8.503
24032DOPC   D2A 5490   1.014   5.174   8.203
24032DOPC   C3A 5491   1.144   5.004   7.783
24032DOPC   C4A 5492   1.384   4.934   7.353
24032DOPC   C1B 5493   0.274   4.624   7.933
24032DOPC   D2B 5494   0.464   4.584   7.503
24032DOPC   C3B 5495   0.984   4.554   7.453
24032DOPC   C4B 5496   1.514   4.444   7.433
24033DOPC   NC3 5497  11.874   5.384  16.293
24033DOPC   PO4 5498  11.464   5.244  16.263
24033DOPC   GL1 5499  11.574   5.004  15.913
24033DOPC   GL2 5500  11.364   4.894  15.833
24033DOPC   C1A 5501  11.654   4.934  15.463
24033DOPC   D2A 5502  11.404   4.904  15.043
24033DOPC   C3A 5503  11.284   5.184  14.653
24033DOPC   C4A 5504  11.084   5.414  14.353
24033DOPC   C1B 5505  11.184   5.104  15.463
24033DOPC   D2B 5506  10.934   5.264  15.073
24033DOPC   C3B 5507  10.744   5.274  14.643
24033DOPC   C4B 5508  10.604   5.314  14.183
24034DOPC   NC3 5509  19.444   3.454  11.413
24034DOPC   PO4 5510  19.194   3.754  11.413
24034DOPC   GL1 5511  18.794   3.864  11.173
24034DOPC   GL2 5512  18.764   3.554  11.093
24034DOPC   C1A 5513  18.434   4.004  11.233
24034DOPC   D2A 5514  18.094   4.364  11.053
24034DOPC   C3A 5515  18.184   4.304  10.593
24034DOPC   C4A 5516  18.104   4.644  10.223
24034DOPC   C1B 5517  18.374   3.544  11.003
24034DOPC   D2B 5518  17.904   3.404  10.893
24034DOPC   C3B 5519  17.454   3.384  11.103
24034DOPC   C4B 5520  17.124   3.184  11.413
24035DOPC   NC3 5521  18.764   7.514  12.403
24035DOPC   PO4 5522  18.504   7.294  12.613
24035DOPC   GL1 5523  18.094   7.314  12.643
24035DOPC   GL2 5524  17.974   7.534  12.733
24035DOPC   C1A 5525  17.804   7.094  12.333
24035DOPC   D2A 5526  17.534   7.194  11.913
24035DOPC   C3A 5527  17.074   7.084  11.853
24035DOPC   C4A 5528  16.784   6.914  11.463
24035DOPC   C1B 5529  17.584   7.594  12.483
24035DOPC   D2B 5530  17.254   7.714  12.243
24035DOPC   C3B 5531  17.184   7.664  11.843
24035DOPC   C4B 5532  16.944   0.027  11.433
24036DOPC   NC3 5533  20.834   6.724   9.413
24036DOPC   PO4 5534  20.624   6.844   9.733
24036DOPC   GL1 5535  20.214   6.754   9.673
24036DOPC   GL2 5536  20.234   6.994   9.463
24036DOPC   C1A 5537  19.764   6.634   9.583
24036DOPC   D2A 5538  19.344   6.504   9.523
24036DOPC   C3A 5539  19.034   6.684   9.263
24036DOPC   C4A 5540  18.844   6.824   8.793
24036DOPC   C1B 5541  19.894   6.914   9.233
24036DOPC   D2B 5542  19.664   6.614   8.963
24036DOPC   C3B 5543  19.774   6.574   8.493
24036DOPC   C4B 5544  19.474   6.594   8.093
24037DOPC   NC3 5545  12.564   5.504  16.603
24037DOPC   PO4 5546  12.724   5.594  16.223
24037DOPC   GL1 5547  12.574   5.374  15.823
24037DOPC   GL2 5548  12.514   5.624  15.893
24037DOPC   C1A 5549  12.764   5.184  15.513
24037DOPC   D2A 5550  13.064   4.964  15.183
24037DOPC   C3A 5551  13.374   4.654  15.083
24037DOPC   C4A 5552  13.824   4.344  15.123
24037DOPC   C1B 5553  12.274   5.854  15.623
24037DOPC   D2B 5554  12.044   5.924  15.173
24037DOPC   C3B 5555  12.264   6.014  14.783
24037DOPC   C4B 5556  12.524   5.854  14.363
24038DOPC   NC3 5557  13.294   4.114  16.013
24038DOPC   PO4 5558  13.094   3.754  16.013
24038DOPC   GL1 5559  13.014   3.754  15.613
24038DOPC   GL2 5560  12.734   3.704  15.633
24038DOPC   C1A 5561  13.094   3.654  15.143
24038DOPC   D2A 5562  13.134   3.714  14.693
24038DOPC   C3A 5563  12.914   3.754  14.293
24038DOPC   C4A 5564  12.654   3.774  13.853
24038DOPC   C1B 5565  12.504   3.824  15.183
24038DOPC   D2B 5566  12.764   3.994  14.773
24038DOPC   C3B 5567  12.414   4.194  14.623
24038DOPC   C4B 5568  12.124   4.494  14.313
24039DOPC   NC3 5569   5.744   4.724  14.343
24039DOPC   PO4 5570   5.734   5.114  14.243
24039DOPC   GL1 5571   5.824   5.274  13.853
24039DOPC   GL2 5572   5.774   5.144  13.593
24039DOPC   C1A 5573   6.154   5.494  13.603
24039DOPC   D2A 5574   6.584   5.614  13.353
24039DOPC   C3A 5575   6.714   5.794  12.963
24039DOPC   C4A 5576   6.804   5.914  12.533
24039DOPC   C1B 5577   6.034   5.214  13.253
24039DOPC   D2B 5578   6.434   5.404  12.953
24039DOPC   C3B 5579   6.374   5.674  12.563
24039DOPC   C4B 5580   6.414   5.834  12.093
24040DOPC   NC3 5581   4.284   1.484  12.893
24040DOPC   PO4 5582   4.104   1.724  12.643
24040DOPC   GL1 5583   4.354   1.814  12.293
24040DOPC   GL2 5584   4.524   1.844  12.453
24040DOPC   C1A 5585   4.444   1.984  11.913
24040DOPC   D2A 5586   4.874   2.074  11.553
24040DOPC   C3A 5587   5.054   2.114  11.153
24040DOPC   C4A 5588   5.214   2.394  10.793
24040DOPC   C1B 5589   4.874   2.004  12.273
24040DOPC   D2B 5590   5.374   2.024  12.003
24040DOPC   C3B 5591   5.684   2.184  11.713
24040DOPC   C4B 5592   6.134   2.194  11.463
24041DOPC   NC3 5593  21.604   5.764   8.853
24041DOPC   PO4 5594  21.184   5.784   8.873
24041DOPC   GL1 5595  20.944   5.694   8.663
24041DOPC   GL2 5596  20.954   5.374   8.633
24041DOPC   C1A 5597  20.584   5.964   8.673
24041DOPC   D2A 5598  20.224   6.284   8.703
24041DOPC   C3A 5599  19.994   6.144   8.353
24041DOPC   C4A 5600  19.614   5.984   8.003
24041DOPC   C1B 5601  20.594   5.314   8.473
24041DOPC   D2B 5602  20.184   5.114   8.243
24041DOPC   C3B 5603  19.944   4.774   8.293
24041DOPC   C4B 5604  19.834   4.484   8.603
24042DOPC   NC3 5605   1.804   6.314  10.643
24042DOPC   PO4 5606   2.144   6.484  10.703
24042DOPC   GL1 5607   2.474   6.554  10.553
24042DOPC   GL2 5608   2.754   6.534  10.583
24042DOPC   C1A 5609   2.504   6.324  10.143
24042DOPC   D2A 5610   2.644   6.174   9.703
24042DOPC   C3A 5611   2.804   6.414   9.373
24042DOPC   C4A 5612   3.244   6.604   9.253
24042DOPC   C1B 5613   2.984   6.654  10.263
24042DOPC   D2B 5614   3.164   6.514   9.803
24042DOPC   C3B 5615   3.524   6.724   9.743
24042DOPC   C4B 5616   3.964   7.014   9.763
24043DOPC   NC3 5617   0.444   7.744   9.363
24043DOPC   PO4 5618   0.364   0.274   9.203
24043DOPC   GL1 5619   0.704   0.364   8.973
24043DOPC   GL2 5620   0.644   0.664   8.953
24043DOPC   C1A 5621   0.804   0.137   8.603
24043DOPC   D2A 5622   1.134   0.097   8.313
24043DOPC   C3A 5623   1.444   7.634   8.233
24043DOPC   C4A 5624   1.764   7.304   8.073
24043DOPC   C1B 5625   0.924   0.604   8.653
24043DOPC   D2B 5626   1.354   0.584   8.393
24043DOPC   C3B 5627   1.624   0.294   8.133
24043DOPC   C4B 5628   1.874   0.067   7.793
24044DOPC   NC3 5629   3.784   2.014  11.883
24044DOPC   PO4 5630   3.394   2.034  11.793
24044DOPC   GL1 5631   3.464   1.814  11.443
24044DOPC   GL2 5632   3.764   1.784  11.483
24044DOPC   C1A 5633   3.464   1.754  11.003
24044DOPC   D2A 5634   3.594   1.694  10.513
24044DOPC   C3A 5635   3.764   1.524  10.143
24044DOPC   C4A 5636   4.124   1.384   9.803
24044DOPC   C1B 5637   3.854   1.374  11.543
24044DOPC   D2B 5638   4.164   1.084  11.743
24044DOPC   C3B 5639   4.474   0.854  11.493
24044DOPC   C4B 5640   4.864   0.684  11.223
24045DOPC   NC3 5641  12.424   6.934  16.193
24045DOPC   PO4 5642  12.304   7.324  16.303
24045DOPC   GL1 5643  12.174   7.384  15.913
24045DOPC   GL2 5644  12.144   7.104  15.783
24045DOPC   C1A 5645  12.084   7.664  15.613
24045DOPC   D2A 5646  11.864   7.774  15.283
24045DOPC   C3A 5647  11.624   7.454  15.023
24045DOPC   C4A 5648  11.334   7.094  15.163
24045DOPC   C1B 5649  12.034   7.184  15.363
24045DOPC   D2B 5650  11.844   6.904  15.053
24045DOPC   C3B 5651  11.734   7.074  14.683
24045DOPC   C4B 5652  11.544   7.444  14.473
24046DOPC   NC3 5653  14.884   7.814  15.183
24046DOPC   PO4 5654  15.144   7.524  15.073
24046DOPC   GL1 5655  15.214   7.494  14.623
24046DOPC   GL2 5656  15.134   7.784  14.693
24046DOPC   C1A 5657  15.014   7.334  14.233
24046DOPC   D2A 5658  14.674   7.414  13.863
24046DOPC   C3A 5659  14.334   7.204  13.583
24046DOPC   C4A 5660  13.894   7.354  13.433
24046DOPC   C1B 5661  14.914   0.097  14.293
24046DOPC   D2B 5662  14.604   0.117  13.883
24046DOPC   C3B 5663  14.434   7.694  13.503
24046DOPC   C4B 5664  14.434   0.017  13.083
24047DOPC   NC3 5665   1.164   4.024   9.673
24047DOPC   PO4 5666   1.104   3.644   9.573
24047DOPC   GL1 5667   1.344   3.524   9.293
24047DOPC   GL2 5668   1.404   3.804   9.213
24047DOPC   C1A 5669   1.654   3.244   9.163
24047DOPC   D2A 5670   1.954   2.974   8.873
24047DOPC   C3A 5671   2.084   2.674   8.513
24047DOPC   C4A 5672   2.244   2.384   8.133
24047DOPC   C1B 5673   1.754   3.844   8.863
24047DOPC   D2B 5674   1.994   4.074   8.463
24047DOPC   C3B 5675   2.224   3.974   8.043
24047DOPC   C4B 5676   2.514   3.964   7.673
24048DOPC   NC3 5677   5.364   5.894  14.193
24048DOPC   PO4 5678   5.334   6.174  13.913
24048DOPC   GL1 5679   5.574   6.424  13.553
24048DOPC   GL2 5680   5.554   6.134  13.543
24048DOPC   C1A 5681   5.924   6.434  13.313
24048DOPC   D2A 5682   6.314   6.544  13.093
24048DOPC   C3A 5683   6.574   6.444  12.673
24048DOPC   C4A 5684   6.754   6.304  12.203
24048DOPC   C1B 5685   5.774   5.984  13.173
24048DOPC   D2B 5686   5.974   5.654  12.843
24048DOPC   C3B 5687   6.144   5.234  12.613
24048DOPC   C4B 5688   5.654   5.164  12.413
24049DOPC   NC3 5689  20.544   7.224  10.543
24049DOPC   PO4 5690  20.244   7.074  10.333
24049DOPC   GL1 5691  19.884   7.074  10.453
24049DOPC   GL2 5692  19.874   7.284  10.633
24049DOPC   C1A 5693  19.404   6.994  10.313
24049DOPC   D2A 5694  18.974   7.014  10.063
24049DOPC   C3A 5695  18.764   7.044   9.653
24049DOPC   C4A 5696  18.924   7.224   9.193
24049DOPC   C1B 5697  19.394   7.354  10.683
24049DOPC   D2B 5698  18.874   7.234  10.793
24049DOPC   C3B 5699  18.644   7.274  10.433
24049DOPC   C4B 5700  18.164   7.204  10.273
24050DOPS   CNO 5701  20.544   0.854   9.813
24050DOPS   PO4 5702  20.364   0.524   9.773
24050DOPS   GL1 5703  19.994   0.664   9.533
24050DOPS   GL2 5704  19.944   0.384   9.533
24050DOPS   C1A 5705  19.684   0.924   9.483
24050DOPS   D2A 5706  19.344   1.234   9.483
24050DOPS   C3A 5707  18.974   1.504   9.353
24050DOPS   C4A 5708  18.664   1.634   8.943
24050DOPS   C1B 5709  19.514   0.224   9.493
24050DOPS   D2B 5710  19.104   0.254   9.203
24050DOPS   C3B 5711  18.624   0.364   9.173
24050DOPS   C4B 5712  18.124   0.424   9.273
24051DOPS   CNO 5713  14.934   2.294  15.353
24051DOPS   PO4 5714  14.904   2.654  15.553
24051DOPS   GL1 5715  14.604   2.844  15.353
24051DOPS   GL2 5716  14.384   2.634  15.403
24051DOPS   C1A 5717  14.524   3.074  14.973
24051DOPS   D2A 5718  14.484   3.334  14.523
24051DOPS   C3A 5719  14.184   3.314  14.153
24051DOPS   C4A 5720  13.694   3.394  13.943
24051DOPS   C1B 5721  14.004   2.854  15.323
24051DOPS   D2B 5722  13.614   3.214  15.113
24051DOPS   C3B 5723  13.244   3.204  14.753
24051DOPS   C4B 5724  12.844   3.204  14.483
24052DOPS   CNO 5725  23.650   1.994   8.233
24052DOPS   PO4 5726  23.810   1.634   8.123
24052DOPS   GL1 5727  23.750   1.514   7.653
24052DOPS   GL2 5728  23.630   1.234   7.663
24052DOPS   C1A 5729  23.810   1.814   7.283
24052DOPS   D2A 5730  23.660   1.924   6.793
24052DOPS   C3A 5731  23.494   1.934   6.373
24052DOPS   C4A 5732  23.324   1.734   5.983
24052DOPS   C1B 5733  23.660   1.334   7.223
24052DOPS   D2B 5734  23.474   1.454   6.813
24052DOPS   C3B 5735  23.174   1.374   6.463
24052DOPS   C4B 5736  22.844   1.444   6.073
24053DOPS   CNO 5737  21.824   5.344   8.803
24053DOPS   PO4 5738  21.794   5.074   8.523
24053DOPS   GL1 5739  21.694   5.414   8.223
24053DOPS   GL2 5740  21.914   5.374   8.083
24053DOPS   C1A 5741  21.264   5.464   7.993
24053DOPS   D2A 5742  20.824   5.334   7.813
24053DOPS   C3A 5743  20.374   5.214   7.743
24053DOPS   C4A 5744  19.924   5.014   7.833
24053DOPS   C1B 5745  21.784   5.564   7.723
24053DOPS   D2B 5746  21.604   5.544   7.243
24053DOPS   C3B 5747  21.434   5.084   7.143
24053DOPS   C4B 5748  21.064   4.734   7.213
24054DOPS   CNO 5749   6.894   3.674  15.093
24054DOPS   PO4 5750   7.094   3.864  14.853
24054DOPS   GL1 5751   7.044   3.884  14.463
24054DOPS   GL2 5752   7.224   3.624  14.373
24054DOPS   C1A 5753   7.144   4.134  14.083
24054DOPS   D2A 5754   6.994   4.104  13.573
24054DOPS   C3A 5755   7.244   4.034  13.243
24054DOPS   C4A 5756   7.404   4.274  12.823
24054DOPS   C1B 5757   7.504   3.494  14.023
24054DOPS   D2B 5758   7.944   3.534  13.793
24054DOPS   C3B 5759   8.164   3.914  13.563
24054DOPS   C4B 5760   7.874   4.174  13.293
24055DOPS   CNO 5761  22.474   6.484   8.193
24055DOPS   PO4 5762  22.274   6.344   7.903
24055DOPS   GL1 5763  22.004   6.574   7.603
24055DOPS   GL2 5764  22.294   6.464   7.423
24055DOPS   C1A 5765  21.714   6.294   7.413
24055DOPS   D2A 5766  21.414   5.964   7.213
24055DOPS   C3A 5767  21.094   5.724   7.053
24055DOPS   C4A 5768  21.194   5.384   6.763
24055DOPS   C1B 5769  22.224   6.324   6.933
24055DOPS   D2B 5770  21.944   6.284   6.483
24055DOPS   C3B 5771  21.534   6.134   6.393
24055DOPS   C4B 5772  21.144   6.344   6.343
24056DOPS   CNO 5773   0.004   3.164   8.433
24056DOPS   PO4 5774   0.114   2.924   8.183
24056DOPS   GL1 5775   0.304   3.034   7.863
24056DOPS   GL2 5776   0.564   3.154   8.003
24056DOPS   C1A 5777   0.394   3.344   7.573
24056DOPS   D2A 5778   0.584   3.614   7.133
24056DOPS   C3A 5779   0.804   3.884   6.893
24056DOPS   C4A 5780   0.934   4.164   6.423
24056DOPS   C1B 5781   0.984   3.344   7.803
24056DOPS   D2B 5782   0.904   3.284   7.343
24056DOPS   C3B 5783   1.214   3.544   7.073
24056DOPS   C4B 5784   1.274   3.824   6.613
24057DOPS   CNO 5785   8.864   7.004  16.163
24057DOPS   PO4 5786   8.904   7.224  15.883
24057DOPS   GL1 5787   9.174   7.114  15.673
24057DOPS   GL2 5788   9.214   7.364  15.523
24057DOPS   C1A 5789   9.434   7.034  15.323
24057DOPS   D2A 5790   9.664   6.734  15.003
24057DOPS   C3A 5791   9.854   6.344  15.133
24057DOPS   C4A 5792  10.224   5.994  15.193
24057DOPS   C1B 5793   9.554   7.574  15.293
24057DOPS   D2B 5794   9.674   7.624  14.763
24057DOPS   C3B 5795  10.074   7.494  14.663
24057DOPS   C4B 5796  10.354   7.324  14.273
24058DOPS   CNO 5797  22.904   6.174   8.303
24058DOPS   PO4 5798  22.954   6.394   8.003
24058DOPS   GL1 5799  22.664   6.314   7.663
24058DOPS   GL2 5800  22.714   6.634   7.623
24058DOPS   C1A 5801  22.524   6.124   7.263
24058DOPS   D2A 5802  22.464   5.874   6.883
24058DOPS   C3A 5803  22.464   5.544   6.553
24058DOPS   C4A 5804  22.274   5.104   6.373
24058DOPS   C1B 5805  22.554   6.724   7.183
24058DOPS   D2B 5806  22.464   6.704   6.673
24058DOPS   C3B 5807  22.104   6.714   6.303
24058DOPS   C4B 5808  22.034   6.414   6.013
24059DOPS   CNO 5809   4.074   0.284  13.333
24059DOPS   PO4 5810   4.384   0.304  13.103
24059DOPS   GL1 5811   4.384   0.354  12.693
24059DOPS   GL2 5812   4.564   0.107  12.643
24059DOPS   C1A 5813   4.444   0.624  12.373
24059DOPS   D2A 5814   4.664   1.014  12.103
24059DOPS   C3A 5815   4.694   1.264  11.743
24059DOPS   C4A 5816   4.754   1.604  11.383
24059DOPS   C1B 5817   4.794   0.157  12.303
24059DOPS   D2B 5818   5.074   0.214  11.903
24059DOPS   C3B 5819   5.214   0.037  11.503
24059DOPS   C4B 5820   5.454   7.704  11.083
24060DOPS   CNO 5821  20.324   4.934  10.203
24060DOPS   PO4 5822  20.024   4.954  10.413
24060DOPS   GL1 5823  19.674   4.734  10.373
24060DOPS   GL2 5824  19.774   4.544  10.233
24060DOPS   C1A 5825  19.234   4.754  10.353
24060DOPS   D2A 5826  18.764   4.984  10.313
24060DOPS   C3A 5827  18.514   5.364  10.273
24060DOPS   C4A 5828  18.324   5.744  10.213
24060DOPS   C1B 5829  19.454   4.764   9.893
24060DOPS   D2B 5830  19.264   5.114   9.603
24060DOPS   C3B 5831  19.424   5.384   9.233
24060DOPS   C4B 5832  19.684   5.654   8.923
24061DOPS   CNO 5833  12.204   5.014  16.543
24061DOPS   PO4 5834  12.344   5.234  16.253
24061DOPS   GL1 5835  12.094   5.184  15.893
24061DOPS   GL2 5836  12.134   5.414  15.833
24061DOPS   C1A 5837  12.134   4.934  15.533
24061DOPS   D2A 5838  11.954   4.544  15.313
24061DOPS   C3A 5839  11.944   4.114  15.143
24061DOPS   C4A 5840  12.114   3.874  14.793
24061DOPS   C1B 5841  12.364   5.434  15.363
24061DOPS   D2B 5842  12.754   5.404  15.053
24061DOPS   C3B 5843  12.914   5.134  14.743
24061DOPS   C4B 5844  13.124   4.714  14.603
24062DOPS   CNO 5845   2.414   2.104  11.363
24062DOPS   PO4 5846   2.654   2.144  11.063
24062DOPS   GL1 5847   2.874   1.964  10.803
24062DOPS   GL2 5848   2.874   1.654  10.883
24062DOPS   C1A 5849   3.204   2.034  10.553
24062DOPS   D2A 5850   3.484   2.084  10.143
24062DOPS   C3A 5851   3.814   1.904   9.833
24062DOPS   C4A 5852   4.214   2.004   9.553
24062DOPS   C1B 5853   3.184   1.464  10.633
24062DOPS   D2B 5854   3.444   1.114  10.343
24062DOPS   C3B 5855   3.804   1.034  10.063
24062DOPS   C4B 5856   3.764   1.084   9.563
24063DOPS   CNO 5857  20.814   4.854   9.693
24063DOPS   PO4 5858  20.484   4.734   9.783
24063DOPS   GL1 5859  20.114   4.714   9.413
24063DOPS   GL2 5860  20.034   4.454   9.553
24063DOPS   C1A 5861  20.144   4.674   8.993
24063DOPS   D2A 5862  20.424   4.724   8.563
24063DOPS   C3A 5863  20.404   4.634   8.103
24063DOPS   C4A 5864  20.314   4.674   7.603
24063DOPS   C1B 5865  19.754   4.204   9.273
24063DOPS   D2B 5866  19.694   3.744   9.123
24063DOPS   C3B 5867  19.414   3.614   8.783
24063DOPS   C4B 5868  19.294   3.434   8.363
24064DOPS   CNO 5869  15.604   3.504  14.943
24064DOPS   PO4 5870  15.434   3.184  14.983
24064DOPS   GL1 5871  15.314   2.804  14.723
24064DOPS   GL2 5872  15.254   2.914  14.513
24064DOPS   C1A 5873  14.934   2.614  14.803
24064DOPS   D2A 5874  14.574   2.404  15.023
24064DOPS   C3A 5875  14.234   2.584  14.963
24064DOPS   C4A 5876  13.834   2.824  14.833
24064DOPS   C1B 5877  14.874   2.844  14.263
24064DOPS   D2B 5878  14.504   3.004  13.973
24064DOPS   C3B 5879  14.874   3.164  13.673
24064DOPS   C4B 5880  14.944   3.344  13.263
24065DOPS   CNO 5881  11.724   2.664  16.273
24065DOPS   PO4 5882  11.614   2.684  15.903
24065DOPS   GL1 5883  11.624   2.464  15.543
24065DOPS   GL2 5884  11.834   2.324  15.633
24065DOPS   C1A 5885  11.494   2.414  15.143
24065DOPS   D2A 5886  11.404   2.644  14.693
24065DOPS   C3A 5887  11.654   2.504  14.353
24065DOPS   C4A 5888  11.784   2.764  13.963
24065DOPS   C1B 5889  11.894   2.144  15.213
24065DOPS   D2B 5890  12.114   1.874  14.833
24065DOPS   C3B 5891  12.474   1.734  14.573
24065DOPS   C4B 5892  12.804   1.444  14.333
24066DOPS   CNO 5893   7.584   1.894  14.993
24066DOPS   PO4 5894   7.434   1.584  14.843
24066DOPS   GL1 5895   7.514   1.254  14.573
24066DOPS   GL2 5896   7.324   1.304  14.423
24066DOPS   C1A 5897   7.974   1.154  14.423
24066DOPS   D2A 5898   8.384   1.304  14.183
24066DOPS   C3A 5899   8.454   1.524  13.843
24066DOPS   C4A 5900   8.484   1.684  13.323
24066DOPS   C1B 5901   7.654   1.494  14.173
24066DOPS   D2B 5902   8.024   1.874  14.223
24066DOPS   C3B 5903   8.494   1.944  14.113
24066DOPS   C4B 5904   8.954   1.984  13.973
24067DOPS   CNO 5905  23.144   0.354   8.203
24067DOPS   PO4 5906  23.234   0.544   7.883
24067DOPS   GL1 5907  23.184   0.404   7.513
24067DOPS   GL2 5908  23.464   0.314   7.373
24067DOPS   C1A 5909  23.054   0.594   7.143
24067DOPS   D2A 5910  22.914   0.614   6.643
24067DOPS   C3A 5911  22.644   0.454   6.313
24067DOPS   C4A 5912  22.364   0.087   6.243
24067DOPS   C1B 5913  23.590   7.774   7.133
24067DOPS   D2B 5914  23.710   7.324   6.853
24067DOPS   C3B 5915  23.840   7.204   6.463
24067DOPS   C4B 5916  23.850   7.064   5.963
24068DOPS   CNO 5917   0.204   5.434   9.223
24068DOPS   PO4 5918   0.074   5.334   8.883
24068DOPS   GL1 5919   0.284   5.294   8.513
24068DOPS   GL2 5920   0.504   5.444   8.663
24068DOPS   C1A 5921   0.434   5.434   8.113
24068DOPS   D2A 5922   0.364   5.424   7.643
24068DOPS   C3A 5923   0.664   5.194   7.313
24068DOPS   C4A 5924   0.914   4.884   6.953
24068DOPS   C1B 5925   0.924   5.474   8.583
24068DOPS   D2B 5926   1.254   5.614   8.233
24068DOPS   C3B 5927   1.364   5.634   7.803
24068DOPS   C4B 5928   1.274   5.844   7.363
24069DOPS   CNO 5929  24.730   1.784   8.433
24069DOPS   PO4 5930  24.830   1.544   8.133
24069DOPS   GL1 5931  24.980   1.674   7.823
24069DOPS   GL2 5932   0.084   1.824   7.903
24069DOPS   C1A 5933  24.920   1.744   7.443
24069DOPS   D2A 5934   0.094   1.984   7.063
24069DOPS   C3A 5935   0.284   2.354   6.863
24069DOPS   C4A 5936   0.104   2.464   6.443
24069DOPS   C1B 5937   0.524   1.704   7.913
24069DOPS   D2B 5938   0.984   1.554   7.683
24069DOPS   C3B 5939   0.974   1.774   7.223
24069DOPS   C4B 5940   1.094   2.134   7.083
24070DOPS   CNO 5941   9.884   0.784  16.403
24070DOPS   PO4 5942  10.204   0.804  16.193
24070DOPS   GL1 5943  10.274   0.984  15.843
24070DOPS   GL2 5944  10.254   1.254  15.923
24070DOPS   C1A 5945  10.514   0.914  15.483
24070DOPS   D2A 5946  10.664   0.874  15.033
24070DOPS   C3A 5947  10.964   0.734  14.663
24070DOPS   C4A 5948  11.354   0.554  14.403
24070DOPS   C1B 5949  10.254   1.344  15.473
24070DOPS   D2B 5950  10.384   1.454  14.963
24070DOPS   C3B 5951  10.784   1.284  14.753
24070DOPS   C4B 5952  11.244   1.194  14.633
24071DOPS   CNO 5953   3.024   2.814  11.163
24071DOPS   PO4 5954   2.794   3.124  11.203
24071DOPS   GL1 5955   2.564   3.344  10.843
24071DOPS   GL2 5956   2.604   3.024  10.763
24071DOPS   C1A 5957   2.944   3.604  10.763
24071DOPS   D2A 5958   3.234   3.714  10.423
24071DOPS   C3A 5959   3.624   3.404  10.393
24071DOPS   C4A 5960   3.974   3.204  10.183
24071DOPS   C1B 5961   2.844   2.734  10.533
24071DOPS   D2B 5962   3.104   2.514  10.203
24071DOPS   C3B 5963   3.044   2.544   9.793
24071DOPS   C4B 5964   3.034   2.604   9.293
24072DOPS   CNO 5965   8.144   2.244  15.763
24072DOPS   PO4 5966   8.414   2.484  15.723
24072DOPS   GL1 5967   8.604   2.384  15.303
24072DOPS   GL2 5968   8.894   2.434  15.513
24072DOPS   C1A 5969   8.574   2.524  14.903
24072DOPS   D2A 5970   8.654   2.334  14.483
24072DOPS   C3A 5971   8.814   2.484  14.033
24072DOPS   C4A 5972   9.024   2.634  13.633
24072DOPS   C1B 5973   9.154   2.514  15.103
24072DOPS   D2B 5974   9.134   2.534  14.613
24072DOPS   C3B 5975   9.414   2.524  14.293
24072DOPS   C4B 5976   9.514   2.494  13.803
24073DOPS   CNO 5977  16.324   5.564  14.823
24073DOPS   PO4 5978  16.124   5.354  14.563
24073DOPS   GL1 5979  15.884   5.424  14.233
24073DOPS   GL2 5980  15.724   5.264  14.383
24073DOPS   C1A 5981  15.714   5.394  13.853
24073DOPS   D2A 5982  15.434   5.434  13.463
24073DOPS   C3A 5983  15.144   5.524  13.133
24073DOPS   C4A 5984  15.184   5.544  12.643
24073DOPS   C1B 5985  15.704   4.934  14.143
24073DOPS   D2B 5986  15.434   4.554  13.863
24073DOPS   C3B 5987  15.004   4.504  13.633
24073DOPS   C4B 5988  14.684   4.344  13.273
24074DOPS   CNO 5989   7.554   5.874  15.683
24074DOPS   PO4 5990   7.414   6.174  15.473
24074DOPS   GL1 5991   7.584   6.094  15.013
24074DOPS   GL2 5992   7.714   6.324  15.023
24074DOPS   C1A 5993   7.724   5.834  14.713
24074DOPS   D2A 5994   7.854   5.564  14.363
24074DOPS   C3A 5995   8.064   5.644  14.003
24074DOPS   C4A 5996   8.264   5.664  13.563
24074DOPS   C1B 5997   7.974   6.394  14.693
24074DOPS   D2B 5998   8.424   6.524  14.423
24074DOPS   C3B 5999   8.674   6.574  13.993
24074DOPS   C4B 6000   8.794   6.454  13.523
24075DOPC   NC3 6001  24.950   6.284   3.543
24075DOPC   PO4 6002   0.154   6.544   3.613
24075DOPC   GL1 6003   0.034   6.874   3.953
24075DOPC   GL2 6004  24.840   6.724   4.003
24075DOPC   C1A 6005   0.064   6.994   4.323
24075DOPC   D2A 6006  24.820   7.134   4.653
24075DOPC   C3A 6007  24.800   7.474   5.023
24075DOPC   C4A 6008  24.990   7.814   5.283
24075DOPC   C1B 6009  24.870   6.594   4.453
24075DOPC   D2B 6010  24.580   6.664   4.853
24075DOPC   C3B 6011  24.470   6.444   5.243
24075DOPC   C4B 6012  24.490   6.354   5.793
24076DOPC   NC3 6013   7.654   2.634  10.043
24076DOPC   PO4 6014   7.464   2.364  10.223
24076DOPC   GL1 6015   7.424   2.474  10.623
24076DOPC   GL2 6016   7.584   2.714  10.593
24076DOPC   C1A 6017   7.334   2.424  11.043
24076DOPC   D2A 6018   7.154   2.344  11.503
24076DOPC   C3A 6019   6.864   2.564  11.783
24076DOPC   C4A 6020   6.594   2.794  12.113
24076DOPC   C1B 6021   7.284   2.944  10.813
24076DOPC   D2B 6022   7.134   3.374  11.123
24076DOPC   C3B 6023   6.904   3.564  11.453
24076DOPC   C4B 6024   6.754   3.634  11.923
24077DOPC   NC3 6025  17.204   7.054   7.973
24077DOPC   PO4 6026  17.344   6.684   7.963
24077DOPC   GL1 6027  17.564   6.594   8.313
24077DOPC   GL2 6028  17.724   6.394   8.103
24077DOPC   C1A 6029  17.884   6.844   8.433
24077DOPC   D2A 6030  18.024   7.084   8.823
24077DOPC   C3A 6031  17.974   7.354   9.183
24077DOPC   C4A 6032  17.604   7.624   9.413
24077DOPC   C1B 6033  18.214   6.504   8.243
24077DOPC   D2B 6034  18.534   6.934   8.403
24077DOPC   C3B 6035  18.584   7.294   8.733
24077DOPC   C4B 6036  18.704   7.714   8.943
24078DOPC   NC3 6037   1.604   2.374   4.453
24078DOPC   PO4 6038   1.294   2.264   4.573
24078DOPC   GL1 6039   1.124   1.854   4.693
24078DOPC   GL2 6040   1.194   2.024   4.933
24078DOPC   C1A 6041   1.114   1.514   4.953
24078DOPC   D2A 6042   1.084   1.364   5.423
24078DOPC   C3A 6043   1.124   0.944   5.683
24078DOPC   C4A 6044   1.564   0.764   5.803
24078DOPC   C1B 6045   1.174   1.924   5.393
24078DOPC   D2B 6046   1.134   1.734   5.863
24078DOPC   C3B 6047   0.864   1.774   6.173
24078DOPC   C4B 6048   0.664   2.064   6.513
24079DOPC   NC3 6049  13.024   0.424  11.713
24079DOPC   PO4 6050  12.764   0.654  11.893
24079DOPC   GL1 6051  12.564   0.734  12.313
24079DOPC   GL2 6052  12.714   0.454  12.323
24079DOPC   C1A 6053  12.404   0.654  12.763
24079DOPC   D2A 6054  12.364   0.594  13.233
24079DOPC   C3A 6055  12.514   0.664  13.673
24079DOPC   C4A 6056  12.494   1.054  14.043
24079DOPC   C1B 6057  13.074   0.344  12.553
24079DOPC   D2B 6058  13.264   7.814  12.753
24079DOPC   C3B 6059  13.424   7.634  13.153
24079DOPC   C4B 6060  13.394   7.194  13.413
24080DOPC   NC3 6061   6.334   5.384   9.163
24080DOPC   PO4 6062   6.314   5.694   9.353
24080DOPC   GL1 6063   6.034   5.604   9.623
24080DOPC   GL2 6064   5.964   5.414   9.483
24080DOPC   C1A 6065   6.004   5.714  10.063
24080DOPC   D2A 6066   5.904   6.024  10.433
24080DOPC   C3A 6067   5.564   6.254  10.283
24080DOPC   C4A 6068   5.254   6.274   9.903
24080DOPC   C1B 6069   5.614   5.444   9.803
24080DOPC   D2B 6070   5.204   5.404  10.123
24080DOPC   C3B 6071   4.904   5.304  10.503
24080DOPC   C4B 6072   4.434   5.214  10.583
24081DOPC   NC3 6073   5.974   0.734   8.063
24081DOPC   PO4 6074   5.614   0.554   8.013
24081DOPC   GL1 6075   5.314   0.384   8.163
24081DOPC   GL2 6076   5.414   0.224   8.293
24081DOPC   C1A 6077   5.014   0.504   8.453
24081DOPC   D2A 6078   4.664   0.594   8.723
24081DOPC   C3A 6079   4.244   0.304   8.623
24081DOPC   C4A 6080   3.854   7.784   8.643
24081DOPC   C1B 6081   5.164   0.037   8.573
24081DOPC   D2B 6082   4.714   0.027   8.783
24081DOPC   C3B 6083   4.454   0.224   9.053
24081DOPC   C4B 6084   4.244   0.474   9.363
24082DOPC   NC3 6085  22.844   2.584   3.783
24082DOPC   PO4 6086  22.764   2.904   3.653
24082DOPC   GL1 6087  22.934   3.204   3.853
24082DOPC   GL2 6088  23.184   3.084   3.883
24082DOPC   C1A 6089  22.854   3.344   4.233
24082DOPC   D2A 6090  22.924   3.584   4.703
24082DOPC   C3A 6091  23.034   3.404   5.153
24082DOPC   C4A 6092  23.214   3.344   5.573
24082DOPC   C1B 6093  23.014   2.814   4.253
24082DOPC   D2B 6094  23.214   2.504   4.573
24082DOPC   C3B 6095  23.494   2.494   4.983
24082DOPC   C4B 6096  23.710   2.504   5.403
24083DOPC   NC3 6097   7.994   7.034  10.993
24083DOPC   PO4 6098   8.324   7.294  10.973
24083DOPC   GL1 6099   8.414   7.104  11.323
24083DOPC   GL2 6100   8.524   7.274  11.463
24083DOPC   C1A 6101   8.054   7.044  11.533
24083DOPC   D2A 6102   7.704   7.034  11.873
24083DOPC   C3A 6103   7.764   7.214  12.263
24083DOPC   C4A 6104   7.654   7.404  12.713
24083DOPC   C1B 6105   8.334   7.254  11.863
24083DOPC   D2B 6106   8.124   7.574  12.253
24083DOPC   C3B 6107   8.254   0.187  12.323
24083DOPC   C4B 6108   8.304   0.594  12.063
24084DOPC   NC3 6109   1.034   5.444   4.683
24084DOPC   PO4 6110   0.834   5.804   4.703
24084DOPC   GL1 6111   0.864   6.034   5.053
24084DOPC   GL2 6112   0.624   5.884   5.133
24084DOPC   C1A 6113   0.944   6.404   5.203
24084DOPC   D2A 6114   0.764   6.724   5.523
24084DOPC   C3A 6115   0.514   6.524   5.883
24084DOPC   C4A 6116   0.284   6.484   6.293
24084DOPC   C1B 6117   0.164   5.934   5.203
24084DOPC   D2B 6118  24.690   5.924   5.203
24084DOPC   C3B 6119  24.380   5.904   5.603
24084DOPC   C4B 6120  24.250   5.624   6.023
24085DOPC   NC3 6121  12.304   0.434  12.123
24085DOPC   PO4 6122  12.114   0.774  12.173
24085DOPC   GL1 6123  11.954   0.704  12.553
24085DOPC   GL2 6124  11.964   0.964  12.613
24085DOPC   C1A 6125  11.944   0.424  12.943
24085DOPC   D2A 6126  12.024   0.197  13.453
24085DOPC   C3A 6127  12.184   0.274  13.893
24085DOPC   C4A 6128  12.454   0.524  14.153
24085DOPC   C1B 6129  12.104   1.014  13.053
24085DOPC   D2B 6130  12.304   1.104  13.523
24085DOPC   C3B 6131  12.054   0.854  13.783
24085DOPC   C4B 6132  11.884   0.604  14.163
24086DOPC   NC3 6133   5.914   2.594   8.413
24086DOPC   PO4 6134   5.724   2.464   8.693
24086DOPC   GL1 6135   5.404   2.314   8.893
24086DOPC   GL2 6136   5.244   2.504   8.743
24086DOPC   C1A 6137   5.224   2.524   9.213
24086DOPC   D2A 6138   5.074   2.614   9.683
24086DOPC   C3A 6139   4.604   2.584   9.913
24086DOPC   C4A 6140   4.264   2.664  10.283
24086DOPC   C1B 6141   4.824   2.514   8.853
24086DOPC   D2B 6142   4.444   2.634   9.033
24086DOPC   C3B 6143   4.214   2.534   9.453
24086DOPC   C4B 6144   4.144   2.354   9.913
24087DOPC   NC3 6145  14.914   3.314   9.653
24087DOPC   PO4 6146  15.154   3.544   9.913
24087DOPC   GL1 6147  15.594   3.624   9.963
24087DOPC   GL2 6148  15.664   3.374   9.983
24087DOPC   C1A 6149  15.904   3.844  10.203
24087DOPC   D2A 6150  16.024   3.944  10.713
24087DOPC   C3A 6151  15.984   3.974  11.143
24087DOPC   C4A 6152  15.904   4.374  11.453
24087DOPC   C1B 6153  15.884   3.344  10.363
24087DOPC   D2B 6154  16.244   3.214  10.723
24087DOPC   C3B 6155  16.594   3.214  11.043
24087DOPC   C4B 6156  16.684   3.454  11.473
24088DOPC   NC3 6157   3.494   6.064   6.283
24088DOPC   PO4 6158   3.504   6.434   6.413
24088DOPC   GL1 6159   3.134   6.534   6.713
24088DOPC   GL2 6160   3.174   6.264   6.793
24088DOPC   C1A 6161   2.954   6.834   6.973
24088DOPC   D2A 6162   2.734   6.944   7.413
24088DOPC   C3A 6163   2.554   7.184   7.843
24088DOPC   C4A 6164   2.324   7.524   8.123
24088DOPC   C1B 6165   2.984   6.304   7.123
24088DOPC   D2B 6166   2.624   6.344   7.533
24088DOPC   C3B 6167   2.344   6.604   7.793
24088DOPC   C4B 6168   2.074   6.964   7.943
24089DOPC   NC3 6169   7.274   6.164   9.953
24089DOPC   PO4 6170   7.604   6.004  10.103
24089DOPC   GL1 6171   7.434   5.934  10.463
24089DOPC   GL2 6172   7.404   5.594  10.433
24089DOPC   C1A 6173   7.234   6.074  10.883
24089DOPC   D2A 6174   6.884   6.234  11.173
24089DOPC   C3A 6175   6.814   6.384  11.643
24089DOPC   C4A 6176   6.874   6.734  11.943
24089DOPC   C1B 6177   7.164   5.294  10.543
24089DOPC   D2B 6178   6.824   5.244  10.813
24089DOPC   C3B 6179   6.674   4.974  11.143
24089DOPC   C4B 6180   6.454   4.934  11.623
24090DOPC   NC3 6181   9.694   0.224  12.183
24090DOPC   PO4 6182  10.084   0.214  12.083
24090DOPC   GL1 6183  10.094   0.007  12.493
24090DOPC   GL2 6184  10.104   0.234  12.613
24090DOPC   C1A 6185   9.824   7.604  12.803
24090DOPC   D2A 6186   9.564   7.394  13.143
24090DOPC   C3A 6187   9.654   7.494  13.603
24090DOPC   C4A 6188   9.704   7.704  14.043
24090DOPC   C1B 6189  10.134   0.274  13.073
24090DOPC   D2B 6190  10.324   0.504  13.533
24090DOPC   C3B 6191  10.644   0.624  13.943
24090DOPC   C4B 6192  11.024   0.814  14.153
24091DOPC   NC3 6193  14.494   7.194  11.043
24091DOPC   PO4 6194  14.304   6.854  10.943
24091DOPC   GL1 6195  14.334   6.554  11.333
24091DOPC   GL2 6196  14.504   6.764  11.353
24091DOPC   C1A 6197  14.314   6.214  11.583
24091DOPC   D2A 6198  14.534   5.814  11.873
24091DOPC   C3A 6199  14.824   5.894  12.203
24091DOPC   C4A 6200  15.024   6.044  12.673
24091DOPC   C1B 6201  14.654   6.764  11.763
24091DOPC   D2B 6202  14.964   6.774  12.093
24091DOPC   C3B 6203  15.054   6.904  12.543
24091DOPC   C4B 6204  15.074   6.694  13.033
24092DOPC   NC3 6205  13.644   3.264  11.333
24092DOPC   PO4 6206  13.894   2.964  11.443
24092DOPC   GL1 6207  14.054   2.994  11.783
24092DOPC   GL2 6208  14.304   3.184  11.683
24092DOPC   C1A 6209  14.304   2.994  12.133
24092DOPC   D2A 6210  14.614   3.154  12.463
24092DOPC   C3A 6211  14.954   3.074  12.743
24092DOPC   C4A 6212  15.344   2.854  13.023
24092DOPC   C1B 6213  14.454   3.494  11.893
24092DOPC   D2B 6214  14.524   3.734  12.353
24092DOPC   C3B 6215  14.504   3.984  12.693
24092DOPC   C4B 6216  14.504   4.444  12.793
24093DOPC   NC3 6217   0.034   1.244   3.623
24093DOPC   PO4 6218  24.970   0.854   3.663
24093DOPC   GL1 6219  24.690   0.874   4.003
24093DOPC   GL2 6220  24.500   1.074   4.033
24093DOPC   C1A 6221  24.770   0.834   4.373
24093DOPC   D2A 6222  24.950   0.844   4.873
24093DOPC   C3A 6223  24.870   1.064   5.333
24093DOPC   C4A 6224  24.980   1.284   5.753
24093DOPC   C1B 6225  24.260   1.014   4.393
24093DOPC   D2B 6226  24.100   0.784   4.753
24093DOPC   C3B 6227  23.840   0.854   5.173
24093DOPC   C4B 6228  23.800   0.784   5.673
24094DOPC   NC3 6229   5.704   6.834   8.783
24094DOPC   PO4 6230   5.824   6.484   8.943
24094DOPC   GL1 6231   5.584   6.344   9.203
24094DOPC   GL2 6232   5.434   6.584   9.283
24094DOPC   C1A 6233   5.314   6.034   9.323
24094DOPC   D2A 6234   4.974   5.644   9.303
24094DOPC   C3A 6235   4.694   5.554   9.733
24094DOPC   C4A 6236   4.544   5.564  10.183
24094DOPC   C1B 6237   5.114   6.634   9.623
24094DOPC   D2B 6238   4.884   6.794  10.003
24094DOPC   C3B 6239   4.594   6.564  10.313
24094DOPC   C4B 6240   4.574   6.474  10.823
24095DOPC   NC3 6241  11.804   2.954  12.183
24095DOPC   PO4 6242  11.674   2.634  12.023
24095DOPC   GL1 6243  11.734   2.424  12.413
24095DOPC   GL2 6244  11.544   2.584  12.423
24095DOPC   C1A 6245  11.994   2.334  12.803
24095DOPC   D2A 6246  12.024   1.974  13.133
24095DOPC   C3A 6247  12.174   1.904  13.583
24095DOPC   C4A 6248  12.404   1.564  13.863
24095DOPC   C1B 6249  11.394   2.704  12.743
24095DOPC   D2B 6250  11.284   2.694  13.173
24095DOPC   C3B 6251  11.084   2.424  13.493
24095DOPC   C4B 6252  10.994   2.124  13.883
24096DOPC   NC3 6253  15.944   4.814   8.693
24096DOPC   PO4 6254  16.114   5.134   8.903
24096DOPC   GL1 6255  16.354   5.384   8.933
24096DOPC   GL2 6256  16.444   5.624   8.803
24096DOPC   C1A 6257  16.644   5.514   9.273
24096DOPC   D2A 6258  16.824   5.424   9.723
24096DOPC   C3A 6259  17.164   5.154   9.893
24096DOPC   C4A 6260  17.384   4.994  10.303
24096DOPC   C1B 6261  16.604   5.954   9.053
24096DOPC   D2B 6262  16.674   5.894   9.563
24096DOPC   C3B 6263  16.854   5.874  10.023
24096DOPC   C4B 6264  17.214   5.844  10.303
24097DOPC   NC3 6265   2.644   0.774   5.133
24097DOPC   PO4 6266   2.914   0.654   5.393
24097DOPC   GL1 6267   2.924   0.484   5.853
24097DOPC   GL2 6268   2.994   0.754   5.933
24097DOPC   C1A 6269   2.594   0.274   6.093
24097DOPC   D2A 6270   2.284   0.137   6.413
24097DOPC   C3A 6271   1.814   0.224   6.483
24097DOPC   C4A 6272   1.334   0.157   6.653
24097DOPC   C1B 6273   2.624   0.774   6.153
24097DOPC   D2B 6274   2.224   0.824   6.463
24097DOPC   C3B 6275   1.814   0.704   6.353
24097DOPC   C4B 6276   1.414   0.524   6.193
24098DOPC   NC3 6277   6.634   7.574   9.483
24098DOPC   PO4 6278   6.584   7.184   9.613
24098DOPC   GL1 6279   6.464   6.964   9.923
24098DOPC   GL2 6280   6.214   6.924   9.793
24098DOPC   C1A 6281   6.474   6.964  10.433
24098DOPC   D2A 6282   6.324   6.844  10.863
24098DOPC   C3A 6283   6.024   7.124  10.963
24098DOPC   C4A 6284   5.624   7.214  11.153
24098DOPC   C1B 6285   5.874   6.804   9.993
24098DOPC   D2B 6286   5.364   6.754  10.103
24098DOPC   C3B 6287   5.154   7.054  10.363
24098DOPC   C4B 6288   4.884   7.384  10.583
24099DOPC   NC3 6289  22.964   3.564   3.193
24099DOPC   PO4 6290  23.164   3.554   3.533
24099DOPC   GL1 6291  23.044   3.624   3.923
24099DOPC   GL2 6292  23.294   3.544   4.073
24099DOPC   C1A 6293  23.014   3.824   4.273
24099DOPC   D2A 6294  22.584   3.984   4.543
24099DOPC   C3A 6295  22.594   3.904   4.973
24099DOPC   C4A 6296  22.804   3.784   5.433
24099DOPC   C1B 6297  23.474   3.614   4.443
24099DOPC   D2B 6298  23.404   3.514   4.903
24099DOPC   C3B 6299  23.484   3.684   5.303
24099DOPC   C4B 6300  23.314   3.814   5.713
24100DOPC   NC3 6301  14.424   5.924   9.943
24100DOPC   PO4 6302  14.404   6.234  10.243
24100DOPC   GL1 6303  14.674   6.084  10.553
24100DOPC   GL2 6304  14.514   5.934  10.713
24100DOPC   C1A 6305  15.014   6.344  10.823
24100DOPC   D2A 6306  15.214   6.604  11.183
24100DOPC   C3A 6307  15.594   6.644  11.373
24100DOPC   C4A 6308  16.024   6.704  11.673
24100DOPC   C1B 6309  14.674   6.104  11.083
24100DOPC   D2B 6310  14.844   6.344  11.503
24100DOPC   C3B 6311  14.994   5.944  11.713
24100DOPC   C4B 6312  14.974   5.454  11.823
24101DOPC   NC3 6313   6.434   2.994   8.993
24101DOPC   PO4 6314   6.194   3.174   9.243
24101DOPC   GL1 6315   6.044   3.104   9.593
24101DOPC   GL2 6316   5.774   3.284   9.503
24101DOPC   C1A 6317   6.124   2.964  10.013
24101DOPC   D2A 6318   5.914   2.654  10.283
24101DOPC   C3A 6319   5.954   2.574  10.733
24101DOPC   C4A 6320   6.344   2.404  11.033
24101DOPC   C1B 6321   5.634   3.624   9.763
24101DOPC   D2B 6322   5.544   3.974  10.103
24101DOPC   C3B 6323   5.344   4.404   9.983
24101DOPC   C4B 6324   5.294   4.894   9.903
24102DOPC   NC3 6325   3.894   5.324   6.393
24102DOPC   PO4 6326   3.764   5.644   6.593
24102DOPC   GL1 6327   3.404   5.904   6.773
24102DOPC   GL2 6328   3.214   5.654   6.753
24102DOPC   C1A 6329   3.424   6.114   7.083
24102DOPC   D2A 6330   3.344   6.374   7.483
24102DOPC   C3A 6331   3.334   6.294   7.973
24102DOPC   C4A 6332   3.134   6.094   8.403
24102DOPC   C1B 6333   2.894   5.584   6.983
24102DOPC   D2B 6334   2.584   5.434   7.353
24102DOPC   C3B 6335   2.164   5.194   7.423
24102DOPC   C4B 6336   1.884   4.824   7.413
24103DOPC   NC3 6337  21.774   0.664   3.513
24103DOPC   PO4 6338  21.604   0.874   3.803
24103DOPC   GL1 6339  21.774   0.824   4.213
24103DOPC   GL2 6340  21.514   0.724   4.343
24103DOPC   C1A 6341  22.044   0.994   4.513
24103DOPC   D2A 6342  22.254   1.334   4.853
24103DOPC   C3A 6343  22.634   1.424   5.083
24103DOPC   C4A 6344  23.154   1.384   5.083
24103DOPC   C1B 6345  21.744   0.424   4.563
24103DOPC   D2B 6346  22.084   0.544   4.893
24103DOPC   C3B 6347  22.094   0.924   5.163
24103DOPC   C4B 6348  22.284   1.264   5.433
24104DOPC   NC3 6349  14.574   3.374  10.843
24104DOPC   PO4 6350  14.614   2.984  10.753
24104DOPC   GL1 6351  14.984   2.944  10.843
24104DOPC   GL2 6352  14.914   3.154  11.063
24104DOPC   C1A 6353  15.314   2.664  10.803
24104DOPC   D2A 6354  15.724   2.354  10.673
24104DOPC   C3A 6355  16.124   2.244  10.833
24104DOPC   C4A 6356  16.654   2.124  10.893
24104DOPC   C1B 6357  15.224   3.234  11.333
24104DOPC   D2B 6358  15.654   3.394  11.423
24104DOPC   C3B 6359  15.874   3.764  11.573
24104DOPC   C4B 6360  15.854   4.174  11.923
24105DOPC   NC3 6361  17.504   5.924   7.413
24105DOPC   PO4 6362  17.314   5.624   7.633
24105DOPC   GL1 6363  17.614   5.534   7.973
24105DOPC   GL2 6364  17.834   5.584   7.783
24105DOPC   C1A 6365  17.764   5.604   8.383
24105DOPC   D2A 6366  18.064   5.674   8.843
24105DOPC   C3A 6367  18.494   5.504   9.053
24105DOPC   C4A 6368  18.984   5.534   9.123
24105DOPC   C1B 6369  18.174   5.524   8.023
24105DOPC   D2B 6370  18.384   5.634   8.413
24105DOPC   C3B 6371  18.744   5.414   8.653
24105DOPC   C4B 6372  19.244   5.554   8.683
24106DOPC   NC3 6373  15.954   1.584   8.703
24106DOPC   PO4 6374  15.884   1.474   9.073
24106DOPC   GL1 6375  16.284   1.494   9.383
24106DOPC   GL2 6376  16.354   1.584   9.203
24106DOPC   C1A 6377  16.604   1.494   9.753
24106DOPC   D2A 6378  16.854   1.484  10.133
24106DOPC   C3A 6379  16.784   1.244  10.473
24106DOPC   C4A 6380  16.364   1.134  10.623
24106DOPC   C1B 6381  16.734   1.814   9.013
24106DOPC   D2B 6382  17.044   2.084   8.753
24106DOPC   C3B 6383  17.394   2.074   9.033
24106DOPC   C4B 6384  17.484   2.054   9.483
24107DOPC   NC3 6385   0.374   3.654   3.913
24107DOPC   PO4 6386   0.354   3.344   4.183
24107DOPC   GL1 6387   0.124   3.414   4.523
24107DOPC   GL2 6388   0.324   3.244   4.643
24107DOPC   C1A 6389  24.960   3.654   4.793
24107DOPC   D2A 6390  24.670   3.934   5.053
24107DOPC   C3A 6391  24.620   3.704   5.463
24107DOPC   C4A 6392  24.770   3.604   5.873
24107DOPC   C1B 6393   0.434   3.364   5.053
24107DOPC   D2B 6394   0.374   3.354   5.533
24107DOPC   C3B 6395  24.960   3.334   5.493
24107DOPC   C4B 6396  24.680   3.054   5.863
24108DOPC   NC3 6397  15.914   3.124   9.423
24108DOPC   PO4 6398  15.924   3.484   9.613
24108DOPC   GL1 6399  16.174   3.394   9.953
24108DOPC   GL2 6400  16.164   3.094   9.823
24108DOPC   C1A 6401  16.504   3.474  10.203
24108DOPC   D2A 6402  16.854   3.494  10.543
24108DOPC   C3A 6403  17.094   3.664  10.873
24108DOPC   C4A 6404  17.494   3.884  11.063
24108DOPC   C1B 6405  16.274   3.004  10.203
24108DOPC   D2B 6406  16.754   2.914  10.443
24108DOPC   C3B 6407  16.884   2.524  10.663
24108DOPC   C4B 6408  17.104   2.244  11.043
24109DOPC   NC3 6409   4.114   4.504   7.053
24109DOPC   PO4 6410   4.234   4.164   7.223
24109DOPC   GL1 6411   3.834   4.134   7.343
24109DOPC   GL2 6412   3.844   4.394   7.483
24109DOPC   C1A 6413   3.464   3.894   7.173
24109DOPC   D2A 6414   2.944   4.004   7.073
24109DOPC   C3A 6415   2.484   4.044   7.153
24109DOPC   C4A 6416   2.204   4.384   7.303
24109DOPC   C1B 6417   3.534   4.714   7.613
24109DOPC   D2B 6418   3.124   4.814   7.843
24109DOPC   C3B 6419   2.794   4.704   8.123
24109DOPC   C4B 6420   2.464   4.354   8.273
24110DOPC   NC3 6421  12.034   7.094  11.883
24110DOPC   PO4 6422  12.004   7.484  12.003
24110DOPC   GL1 6423  12.034   7.624  12.323
24110DOPC   GL2 6424  12.334   7.804  12.243
24110DOPC   C1A 6425  12.154   7.534  12.703
24110DOPC   D2A 6426  12.374   7.424  13.133
24110DOPC   C3A 6427  12.584   7.484  13.523
24110DOPC   C4A 6428  12.724   7.374  14.003
24110DOPC   C1B 6429  12.654   7.804  12.603
24110DOPC   D2B 6430  12.814   0.077  13.073
24110DOPC   C3B 6431  13.074   0.254  13.403
24110DOPC   C4B 6432  13.144   0.584  13.753
24111DOPC   NC3 6433   7.934   7.714  10.703
24111DOPC   PO4 6434   7.694   7.434  10.873
24111DOPC   GL1 6435   7.404   7.304  11.123
24111DOPC   GL2 6436   7.214   7.504  10.923
24111DOPC   C1A 6437   7.334   7.174  11.533
24111DOPC   D2A 6438   7.334   6.714  11.743
24111DOPC   C3A 6439   7.314   6.824  12.173
24111DOPC   C4A 6440   7.284   7.174  12.433
24111DOPC   C1B 6441   6.874   7.674  11.173
24111DOPC   D2B 6442   6.374   7.684  11.083
24111DOPC   C3B 6443   6.174   7.784  11.573
24111DOPC   C4B 6444   6.154   0.037  12.053
24112DOPC   NC3 6445   3.944   5.854   7.043
24112DOPC   PO4 6446   4.194   6.124   6.963
24112DOPC   GL1 6447   4.324   6.084   7.363
24112DOPC   GL2 6448   4.214   5.784   7.393
24112DOPC   C1A 6449   4.134   6.184   7.743
24112DOPC   D2A 6450   3.834   6.414   8.083
24112DOPC   C3A 6451   3.504   6.524   8.353
24112DOPC   C4A 6452   3.044   6.684   8.553
24112DOPC   C1B 6453   3.794   5.514   7.533
24112DOPC   D2B 6454   3.444   5.234   7.773
24112DOPC   C3B 6455   3.054   5.244   8.073
24112DOPC   C4B 6456   2.884   5.084   8.503
24113DOPC   NC3 6457   6.384   0.934   9.103
24113DOPC   PO4 6458   6.254   0.564   9.213
24113DOPC   GL1 6459   5.924   0.554   9.433
24113DOPC   GL2 6460   5.724   0.544   9.253
24113DOPC   C1A 6461   5.844   0.187   9.673
24113DOPC   D2A 6462   5.554   7.584   9.753
24113DOPC   C3A 6463   5.374   7.334   9.403
24113DOPC   C4A 6464   5.314   6.994   9.123
24113DOPC   C1B 6465   5.404   0.524   9.553
24113DOPC   D2B 6466   5.174   0.414  10.033
24113DOPC   C3B 6467   5.484   0.117  10.073
24113DOPC   C4B 6468   5.534   7.654  10.463
24114DOPC   NC3 6469   3.234   6.874   6.343
24114DOPC   PO4 6470   3.184   6.864   5.933
24114DOPC   GL1 6471   2.784   6.774   6.033
24114DOPC   GL2 6472   2.694   7.024   6.143
24114DOPC   C1A 6473   2.774   6.734   6.513
24114DOPC   D2A 6474   2.554   6.484   6.943
24114DOPC   C3A 6475   2.214   6.424   7.263
24114DOPC   C4A 6476   2.104   6.124   7.703
24114DOPC   C1B 6477   2.294   7.114   6.333
24114DOPC   D2B 6478   1.994   7.134   6.763
24114DOPC   C3B 6479   1.504   7.034   6.903
24114DOPC   C4B 6480   1.124   6.844   7.103
24115DOPC   NC3 6481   4.394   2.234   7.233
24115DOPC   PO4 6482   4.034   2.124   7.133
24115DOPC   GL1 6483   3.724   2.134   7.413
24115DOPC   GL2 6484   3.644   2.404   7.363
24115DOPC   C1A 6485   3.624   1.944   7.853
24115DOPC   D2A 6486   3.384   1.744   8.223
24115DOPC   C3A 6487   3.024   1.534   8.443
24115DOPC   C4A 6488   2.664   1.324   8.763
24115DOPC   C1B 6489   3.334   2.484   7.643
24115DOPC   D2B 6490   3.114   2.814   7.903
24115DOPC   C3B 6491   2.874   2.434   7.923
24115DOPC   C4B 6492   2.564   2.164   7.723
24116DOPC   NC3 6493  14.264   5.774  11.083
24116DOPC   PO4 6494  14.224   5.514  10.833
24116DOPC   GL1 6495  14.444   5.134  11.143
24116DOPC   GL2 6496  14.264   5.334  11.333
24116DOPC   C1A 6497  14.844   5.124  11.393
24116DOPC   D2A 6498  15.304   4.984  11.503
24116DOPC   C3A 6499  15.704   4.844  11.653
24116DOPC   C4A 6500  16.094   4.644  11.843
24116DOPC   C1B 6501  14.434   5.314  11.723
24116DOPC   D2B 6502  14.514   5.364  12.233
24116DOPC   C3B 6503  14.264   5.664  12.563
24116DOPC   C4B 6504  14.034   5.894  12.923
24117DOPC   NC3 6505  11.124   2.104  12.053
24117DOPC   PO4 6506  11.364   2.114  12.373
24117DOPC   GL1 6507  11.294   2.124  12.743
24117DOPC   GL2 6508  11.524   2.274  12.773
24117DOPC   C1A 6509  10.934   2.174  13.033
24117DOPC   D2A 6510  10.644   2.094  13.393
24117DOPC   C3A 6511  10.554   2.464  13.423
24117DOPC   C4A 6512  10.244   2.674  13.073
24117DOPC   C1B 6513  11.564   2.254  13.223
24117DOPC   D2B 6514  11.634   2.204  13.713
24117DOPC   C3B 6515  12.014   2.444  13.593
24117DOPC   C4B 6516  12.364   2.794  13.433
24118DOPC   NC3 6517  23.534   3.154   3.593
24118DOPC   PO4 6518  23.630   3.534   3.693
24118DOPC   GL1 6519  23.750   3.654   4.023
24118DOPC   GL2 6520  23.850   3.384   4.133
24118DOPC   C1A 6521  23.820   3.934   4.303
24118DOPC   D2A 6522  24.090   4.304   4.183
24118DOPC   C3A 6523  23.950   4.704   4.283
24118DOPC   C4A 6524  24.300   5.094   4.243
24118DOPC   C1B 6525  23.454   3.134   4.223
24118DOPC   D2B 6526  23.184   3.134   4.643
24118DOPC   C3B 6527  23.114   2.824   4.983
24118DOPC   C4B 6528  23.084   2.544   5.323
24119DOPC   NC3 6529  17.844   1.804   6.433
24119DOPC   PO4 6530  18.004   2.004   6.123
24119DOPC   GL1 6531  18.374   2.244   6.323
24119DOPC   GL2 6532  18.224   2.064   6.523
24119DOPC   C1A 6533  18.874   2.174   6.483
24119DOPC   D2A 6534  19.214   2.404   6.743
24119DOPC   C3A 6535  19.484   2.384   7.133
24119DOPC   C4A 6536  19.714   2.144   7.493
24119DOPC   C1B 6537  18.524   2.154   6.833
24119DOPC   D2B 6538  18.824   2.194   7.163
24119DOPC   C3B 6539  19.114   2.314   7.473
24119DOPC   C4B 6540  19.294   2.474   7.863
24120DOPC   NC3 6541  17.744   0.804   6.623
24120DOPC   PO4 6542  17.684   1.054   6.953
24120DOPC   GL1 6543  17.994   1.274   7.083
24120DOPC   GL2 6544  18.214   1.264   6.993
24120DOPC   C1A 6545  18.074   1.174   7.553
24120DOPC   D2A 6546  18.064   1.024   8.003
24120DOPC   C3A 6547  18.304   1.314   8.223
24120DOPC   C4A 6548  18.264   1.674   8.533
24120DOPC   C1B 6549  18.554   1.134   7.233
24120DOPC   D2B 6550  18.964   0.994   7.473
24120DOPC   C3B 6551  19.104   1.094   7.893
24120DOPC   C4B 6552  19.104   0.994   8.363
24121DOPC   NC3 6553   6.964   6.864   9.713
24121DOPC   PO4 6554   7.064   6.624  10.043
24121DOPC   GL1 6555   7.034   6.774  10.463
24121DOPC   GL2 6556   7.324   6.724  10.493
24121DOPC   C1A 6557   6.814   6.774  10.863
24121DOPC   D2A 6558   6.704   6.744  11.303
24121DOPC   C3A 6559   6.314   6.574  11.383
24121DOPC   C4A 6560   6.034   6.144  11.433
24121DOPC   C1B 6561   7.244   6.574  10.973
24121DOPC   D2B 6562   7.354   6.324  11.393
24121DOPC   C3B 6563   7.174   6.034  11.713
24121DOPC   C4B 6564   6.974   5.814  12.083
24122DOPC   NC3 6565   7.754   6.894  10.563
24122DOPC   PO4 6566   8.024   6.634  10.683
24122DOPC   GL1 6567   7.864   6.554  11.033
24122DOPC   GL2 6568   8.154   6.654  11.283
24122DOPC   C1A 6569   7.774   6.164  11.143
24122DOPC   D2A 6570   7.504   5.824  11.363
24122DOPC   C3A 6571   7.284   5.564  11.703
24122DOPC   C4A 6572   7.214   5.194  11.973
24122DOPC   C1B 6573   8.214   6.264  11.593
24122DOPC   D2B 6574   8.214   5.904  11.833
24122DOPC   C3B 6575   8.604   5.824  11.803
24122DOPC   C4B 6576   9.044   5.864  11.533
24123DOPC   NC3 6577   9.994   5.544  11.383
24123DOPC   PO4 6578  10.114   5.674  11.763
24123DOPC   GL1 6579   9.964   5.664  12.153
24123DOPC   GL2 6580   9.974   5.464  12.243
24123DOPC   C1A 6581   9.804   5.994  12.463
24123DOPC   D2A 6582   9.604   6.184  12.843
24123DOPC   C3A 6583   9.234   6.054  13.213
24123DOPC   C4A 6584   8.914   5.964  13.623
24123DOPC   C1B 6585   9.724   5.384  12.543
24123DOPC   D2B 6586   9.464   5.574  12.953
24123DOPC   C3B 6587   9.594   5.394  13.393
24123DOPC   C4B 6588   9.634   5.214  13.883
24124DOPC   NC3 6589  12.984   3.524  11.483
24124DOPC   PO4 6590  13.344   3.614  11.283
24124DOPC   GL1 6591  13.704   3.624  11.573
24124DOPC   GL2 6592  13.554   3.474  11.733
24124DOPC   C1A 6593  13.934   3.524  11.943
24124DOPC   D2A 6594  14.144   3.434  12.413
24124DOPC   C3A 6595  14.444   3.504  12.813
24124DOPC   C4A 6596  14.584   3.694  13.233
24124DOPC   C1B 6597  13.584   3.244  12.153
24124DOPC   D2B 6598  13.544   2.974  12.563
24124DOPC   C3B 6599  13.604   2.934  13.043
24124DOPC   C4B 6600  13.684   3.194  13.393
24125DOPC   NC3 6601   2.884   5.974   5.633
24125DOPC   PO4 6602   3.134   5.974   5.953
24125DOPC   GL1 6603   3.074   5.694   6.243
24125DOPC   GL2 6604   3.044   6.014   6.423
24125DOPC   C1A 6605   2.754   5.604   6.483
24125DOPC   D2A 6606   2.364   5.654   6.833
24125DOPC   C3A 6607   1.914   5.654   6.883
24125DOPC   C4A 6608   1.454   5.474   7.093
24125DOPC   C1B 6609   2.804   6.054   6.783
24125DOPC   D2B 6610   2.644   5.934   7.223
24125DOPC   C3B 6611   2.204   5.764   7.333
24125DOPC   C4B 6612   1.774   5.684   7.503
24126DOPC   NC3 6613  13.124   2.874  12.033
24126DOPC   PO4 6614  13.154   2.464  12.013
24126DOPC   GL1 6615  13.424   2.154  12.273
24126DOPC   GL2 6616  13.654   2.314  12.183
24126DOPC   C1A 6617  13.434   2.134  12.743
24126DOPC   D2A 6618  13.684   2.194  13.103
24126DOPC   C3A 6619  14.014   2.474  13.283
24126DOPC   C4A 6620  14.474   2.594  13.353
24126DOPC   C1B 6621  14.034   2.334  12.333
24126DOPC   D2B 6622  14.434   2.104  12.533
24126DOPC   C3B 6623  14.844   2.264  12.463
24126DOPC   C4B 6624  15.274   2.084  12.423
24127DOPC   NC3 6625   3.814   1.174   6.413
24127DOPC   PO4 6626   4.044   1.054   6.743
24127DOPC   GL1 6627   3.904   0.964   7.153
24127DOPC   GL2 6628   3.874   1.184   7.243
24127DOPC   C1A 6629   3.584   0.634   7.323
24127DOPC   D2A 6630   3.364   0.294   7.593
24127DOPC   C3A 6631   3.174   0.264   7.973
24127DOPC   C4A 6632   2.954   0.087   8.443
24127DOPC   C1B 6633   3.524   1.174   7.523
24127DOPC   D2B 6634   3.474   1.124   8.023
24127DOPC   C3B 6635   3.344   1.184   8.543
24127DOPC   C4B 6636   3.074   1.054   8.973
24128DOPC   NC3 6637  16.934   2.694   6.723
24128DOPC   PO4 6638  17.234   2.934   6.663
24128DOPC   GL1 6639  17.484   2.724   7.033
24128DOPC   GL2 6640  17.214   2.644   7.073
24128DOPC   C1A 6641  17.804   2.824   7.313
24128DOPC   D2A 6642  18.214   2.894   7.483
24128DOPC   C3A 6643  18.264   2.504   7.783
24128DOPC   C4A 6644  18.104   2.034   7.803
24128DOPC   C1B 6645  17.384   2.284   7.313
24128DOPC   D2B 6646  17.614   1.904   7.573
24128DOPC   C3B 6647  18.044   1.754   7.403
24128DOPC   C4B 6648  18.544   1.734   7.213
24129DOPC   NC3 6649   5.824   5.924   9.313
24129DOPC   PO4 6650   5.824   5.624   9.063
24129DOPC   GL1 6651   5.434   5.474   9.113
24129DOPC   GL2 6652   5.424   5.574   9.393
24129DOPC   C1A 6653   5.124   5.344   8.883
24129DOPC   D2A 6654   5.014   5.004   8.573
24129DOPC   C3A 6655   4.734   4.774   8.843
24129DOPC   C4A 6656   4.244   4.674   8.923
24129DOPC   C1B 6657   5.154   5.764   9.733
24129DOPC   D2B 6658   4.844   6.014  10.053
24129DOPC   C3B 6659   5.074   6.334  10.373
24129DOPC   C4B 6660   5.244   6.674  10.713
24130DOPC   NC3 6661  21.064   0.724   4.073
24130DOPC   PO4 6662  20.784   0.494   4.233
24130DOPC   GL1 6663  20.824   0.394   4.633
24130DOPC   GL2 6664  21.034   0.127   4.583
24130DOPC   C1A 6665  20.484   0.197   4.823
24130DOPC   D2A 6666  20.294   0.067   5.233
24130DOPC   C3A 6667  20.504   0.187   5.613
24130DOPC   C4A 6668  20.774   0.304   5.973
24130DOPC   C1B 6669  20.954   0.047   5.003
24130DOPC   D2B 6670  20.984   0.027   5.493
24130DOPC   C3B 6671  21.304   0.017   5.843
24130DOPC   C4B 6672  21.734   0.047   5.563
24131DOPC   NC3 6673   4.144   4.374   6.133
24131DOPC   PO4 6674   4.124   4.454   6.553
24131DOPC   GL1 6675   3.724   4.584   6.743
24131DOPC   GL2 6676   3.644   4.414   6.593
24131DOPC   C1A 6677   3.514   4.484   7.163
24131DOPC   D2A 6678   3.204   4.284   7.543
24131DOPC   C3A 6679   3.014   3.834   7.613
24131DOPC   C4A 6680   2.684   3.534   7.473
24131DOPC   C1B 6681   3.254   4.264   6.733
24131DOPC   D2B 6682   2.754   4.234   6.623
24131DOPC   C3B 6683   2.364   4.404   6.803
24131DOPC   C4B 6684   1.914   4.474   6.903
24132DOPC   NC3 6685   6.574   6.724   9.393
24132DOPC   PO4 6686   6.594   6.554   9.773
24132DOPC   GL1 6687   6.574   6.524  10.193
24132DOPC   GL2 6688   6.304   6.614  10.193
24132DOPC   C1A 6689   6.644   6.354  10.583
24132DOPC   D2A 6690   6.374   6.254  10.973
24132DOPC   C3A 6691   5.924   6.054  10.943
24132DOPC   C4A 6692   5.484   5.884  10.753
24132DOPC   C1B 6693   6.004   6.524  10.483
24132DOPC   D2B 6694   5.774   6.654  10.943
24132DOPC   C3B 6695   5.454   6.664  11.333
24132DOPC   C4B 6696   5.254   6.614  11.773
24133DOPC   NC3 6697   9.524   4.014  11.663
24133DOPC   PO4 6698   9.574   4.354  11.443
24133DOPC   GL1 6699   9.294   4.654  11.603
24133DOPC   GL2 6700   9.184   4.374  11.723
24133DOPC   C1A 6701   8.994   4.874  11.813
24133DOPC   D2A 6702   8.684   5.144  11.993
24133DOPC   C3A 6703   8.534   5.094  12.453
24133DOPC   C4A 6704   8.364   5.064  12.923
24133DOPC   C1B 6705   9.014   4.464  12.083
24133DOPC   D2B 6706   8.994   4.864  12.393
24133DOPC   C3B 6707   8.754   4.744  12.803
24133DOPC   C4B 6708   8.534   4.724  13.193
24134DOPC   NC3 6709   0.794   2.784   4.273
24134DOPC   PO4 6710   1.004   2.644   4.573
24134DOPC   GL1 6711   0.944   2.494   4.903
24134DOPC   GL2 6712   0.824   2.244   4.763
24134DOPC   C1A 6713   0.804   2.284   5.303
24134DOPC   D2A 6714   0.604   2.164   5.793
24134DOPC   C3A 6715   0.144   2.204   5.833
24134DOPC   C4A 6716  24.820   2.244   6.193
24134DOPC   C1B 6717   0.814   1.844   5.043
24134DOPC   D2B 6718   0.744   1.684   5.543
24134DOPC   C3B 6719   0.814   1.304   5.813
24134DOPC   C4B 6720   0.614   0.824   5.693
24135DOPC   NC3 6721   0.804   7.564   4.183
24135DOPC   PO4 6722   1.164   7.554   4.323
24135DOPC   GL1 6723   1.224   7.664   4.673
24135DOPC   GL2 6724   1.514   7.484   4.663
24135DOPC   C1A 6725   1.004   7.664   5.093
24135DOPC   D2A 6726   0.764   7.774   5.533
24135DOPC   C3A 6727   0.624   7.514   5.953
24135DOPC   C4A 6728   0.584   7.314   6.383
24135DOPC   C1B 6729   1.454   7.434   5.083
24135DOPC   D2B 6730   1.574   7.274   5.553
24135DOPC   C3B 6731   1.444   7.034   5.923
24135DOPC   C4B 6732   1.484   7.054   6.383
24136DOPC   NC3 6733  10.544   2.544  11.583
24136DOPC   PO4 6734  10.764   2.424  11.913
24136DOPC   GL1 6735  10.594   2.364  12.323
24136DOPC   GL2 6736  10.324   2.364  12.243
24136DOPC   C1A 6737  10.574   2.384  12.813
24136DOPC   D2A 6738  10.834   2.734  13.023
24136DOPC   C3A 6739  10.864   2.944  13.383
24136DOPC   C4A 6740  10.934   3.124  13.833
24136DOPC   C1B 6741  10.114   2.194  12.573
24136DOPC   D2B 6742   9.964   2.294  13.053
24136DOPC   C3B 6743   9.944   2.184  13.503
24136DOPC   C4B 6744   9.874   2.144  13.993
24137DOPC   NC3 6745  14.654   4.484  10.883
24137DOPC   PO4 6746  14.424   4.654  11.153
24137DOPC   GL1 6747  14.604   4.784  11.493
24137DOPC   GL2 6748  14.334   4.814  11.613
24137DOPC   C1A 6749  14.824   4.834  11.863
24137DOPC   D2A 6750  15.284   5.004  12.063
24137DOPC   C3A 6751  15.534   5.124  12.443
24137DOPC   C4A 6752  15.214   5.074  12.823
24137DOPC   C1B 6753  14.154   4.564  11.943
24137DOPC   D2B 6754  14.044   4.504  12.453
24137DOPC   C3B 6755  13.974   4.704  12.913
24137DOPC   C4B 6756  13.784   4.984  13.233
24138DOPC   NC3 6757  21.914   1.254   3.973
24138DOPC   PO4 6758  22.244   1.464   3.823
24138DOPC   GL1 6759  22.604   1.384   4.053
24138DOPC   GL2 6760  22.344   1.234   4.253
24138DOPC   C1A 6761  22.834   1.774   4.293
24138DOPC   D2A 6762  22.854   2.184   4.633
24138DOPC   C3A 6763  22.694   2.454   5.073
24138DOPC   C4A 6764  22.484   2.694   5.443
24138DOPC   C1B 6765  22.034   1.494   4.423
24138DOPC   D2B 6766  21.964   1.794   4.763
24138DOPC   C3B 6767  22.034   1.684   5.263
24138DOPC   C4B 6768  21.814   1.444   5.573
24139DOPC   NC3 6769  16.144   0.664   7.963
24139DOPC   PO4 6770  16.464   0.814   8.093
24139DOPC   GL1 6771  16.754   0.754   8.303
24139DOPC   GL2 6772  16.854   0.984   8.353
24139DOPC   C1A 6773  16.994   0.554   8.573
24139DOPC   D2A 6774  17.314   0.644   8.953
24139DOPC   C3A 6775  17.584   0.484   9.293
24139DOPC   C4A 6776  17.834   0.244   9.633
24139DOPC   C1B 6777  17.254   1.034   8.533
24139DOPC   D2B 6778  17.614   1.244   8.823
24139DOPC   C3B 6779  17.834   0.954   9.143
24139DOPC   C4B 6780  17.934   0.764   9.593
24140DOPC   NC3 6781   8.704   0.854  10.993
24140DOPC   PO4 6782   8.964   0.744  11.303
24140DOPC   GL1 6783   8.824   0.564  11.643
24140DOPC   GL2 6784   8.954   0.324  11.623
24140DOPC   C1A 6785   8.804   0.654  12.023
24140DOPC   D2A 6786   8.884   0.694  12.553
24140DOPC   C3A 6787   8.894   0.984  12.913
24140DOPC   C4A 6788   8.984   1.154  13.313
24140DOPC   C1B 6789   8.734   0.007  11.633
24140DOPC   D2B 6790   8.274   7.674  11.603
24140DOPC   C3B 6791   7.944   0.057  11.863
24140DOPC   C4B 6792   7.764   0.464  11.973
24141DOPC   NC3 6793  10.594   6.754  12.023
24141DOPC   PO4 6794  10.364   6.514  11.813
24141DOPC   GL1 6795   9.964   6.624  12.083
24141DOPC   GL2 6796  10.024   6.854  12.213
24141DOPC   C1A 6797   9.864   6.524  12.573
24141DOPC   D2A 6798   9.824   6.574  13.103
24141DOPC   C3A 6799   9.374   6.584  13.323
24141DOPC   C4A 6800   9.284   6.514  13.763
24141DOPC   C1B 6801  10.264   6.774  12.633
24141DOPC   D2B 6802  10.324   6.844  13.133
24141DOPC   C3B 6803  10.134   6.714  13.543
24141DOPC   C4B 6804  10.164   6.494  13.963
24142DOPC   NC3 6805   3.044   4.094   5.573
24142DOPC   PO4 6806   3.294   3.994   5.873
24142DOPC   GL1 6807   2.904   4.034   6.153
24142DOPC   GL2 6808   2.734   4.234   5.963
24142DOPC   C1A 6809   2.834   3.714   6.543
24142DOPC   D2A 6810   2.714   3.604   6.983
24142DOPC   C3A 6811   2.274   3.514   7.173
24142DOPC   C4A 6812   1.894   3.454   7.373
24142DOPC   C1B 6813   2.514   4.434   6.263
24142DOPC   D2B 6814   2.134   4.694   6.473
24142DOPC   C3B 6815   1.774   4.864   6.603
24142DOPC   C4B 6816   1.344   5.034   6.873
24143DOPC   NC3 6817  19.814   4.284   5.383
24143DOPC   PO4 6818  19.804   3.894   5.293
24143DOPC   GL1 6819  20.184   3.684   5.533
24143DOPC   GL2 6820  19.954   3.684   5.833
24143DOPC   C1A 6821  20.554   3.794   5.383
24143DOPC   D2A 6822  20.804   4.204   5.543
24143DOPC   C3A 6823  21.014   4.644   5.703
24143DOPC   C4A 6824  21.264   4.704   6.113
24143DOPC   C1B 6825  19.874   3.424   6.153
24143DOPC   D2B 6826  19.794   3.174   6.553
24143DOPC   C3B 6827  20.044   2.964   6.793
24143DOPC   C4B 6828  20.344   2.884   7.173
24144DOPC   NC3 6829  24.450   2.494   3.523
24144DOPC   PO4 6830  24.280   2.774   3.773
24144DOPC   GL1 6831  23.920   2.664   3.933
24144DOPC   GL2 6832  23.800   2.884   3.993
24144DOPC   C1A 6833  23.890   2.464   4.313
24144DOPC   D2A 6834  24.120   2.604   4.683
24144DOPC   C3A 6835  24.070   2.784   5.153
24144DOPC   C4A 6836  23.900   2.994   5.513
24144DOPC   C1B 6837  24.040   3.014   4.343
24144DOPC   D2B 6838  24.360   3.064   4.723
24144DOPC   C3B 6839  24.540   2.914   5.123
24144DOPC   C4B 6840  24.350   2.734   5.553
24145DOPC   NC3 6841  17.494   1.514   6.643
24145DOPC   PO4 6842  17.874   1.344   6.523
24145DOPC   GL1 6843  18.204   1.034   6.473
24145DOPC   GL2 6844  18.184   0.974   6.223
24145DOPC   C1A 6845  18.514   1.184   6.723
24145DOPC   D2A 6846  18.964   1.254   6.823
24145DOPC   C3A 6847  19.244   1.404   7.153
24145DOPC   C4A 6848  19.444   1.394   7.553
24145DOPC   C1B 6849  18.614   0.814   6.383
24145DOPC   D2B 6850  19.014   0.714   6.763
24145DOPC   C3B 6851  19.414   0.934   6.973
24145DOPC   C4B 6852  19.784   1.104   7.173
24146DOPC   NC3 6853  13.494   6.394  11.383
24146DOPC   PO4 6854  13.154   6.304  11.553
24146DOPC   GL1 6855  13.364   6.214  11.843
24146DOPC   GL2 6856  13.104   6.074  12.013
24146DOPC   C1A 6857  13.784   6.164  11.873
24146DOPC   D2A 6858  14.164   6.054  12.073
24146DOPC   C3A 6859  14.574   6.304  12.033
24146DOPC   C4A 6860  15.094   6.294  11.983
24146DOPC   C1B 6861  12.994   5.914  12.383
24146DOPC   D2B 6862  12.934   5.724  12.873
24146DOPC   C3B 6863  12.834   5.714  13.373
24146DOPC   C4B 6864  12.614   5.574  13.773
24147DOPC   NC3 6865   1.214   6.244   4.703
24147DOPC   PO4 6866   1.394   5.864   4.823
24147DOPC   GL1 6867   1.084   5.674   5.113
24147DOPC   GL2 6868   1.274   5.494   5.193
24147DOPC   C1A 6869   1.004   5.914   5.463
24147DOPC   D2A 6870   1.084   6.234   5.843
24147DOPC   C3A 6871   0.854   6.324   6.273
24147DOPC   C4A 6872   0.664   6.624   6.633
24147DOPC   C1B 6873   1.294   5.514   5.593
24147DOPC   D2B 6874   1.094   5.734   5.923
24147DOPC   C3B 6875   1.014   5.894   6.373
24147DOPC   C4B 6876   0.934   6.124   6.813
24148DOPC   NC3 6877   8.034   3.414  10.693
24148DOPC   PO4 6878   8.154   3.714  10.483
24148DOPC   GL1 6879   7.834   3.944  10.493
24148DOPC   GL2 6880   7.804   3.834  10.783
24148DOPC   C1A 6881   7.444   4.084  10.353
24148DOPC   D2A 6882   7.014   4.044  10.513
24148DOPC   C3A 6883   6.614   4.104  10.593
24148DOPC   C4A 6884   6.234   4.244  10.793
24148DOPC   C1B 6885   7.484   3.884  11.183
24148DOPC   D2B 6886   7.244   3.874  11.653
24148DOPC   C3B 6887   7.264   3.504  12.043
24148DOPC   C4B 6888   7.344   3.364  12.533
24149DOPC   NC3 6889  18.394   5.954   5.913
24149DOPC   PO4 6890  18.334   5.624   6.103
24149DOPC   GL1 6891  18.624   5.424   6.453
24149DOPC   GL2 6892  18.764   5.324   6.313
24149DOPC   C1A 6893  18.634   5.524   6.913
24149DOPC   D2A 6894  18.374   5.644   7.373
24149DOPC   C3A 6895  18.584   5.714   7.763
24149DOPC   C4A 6896  18.864   5.654   8.193
24149DOPC   C1B 6897  19.064   5.594   6.443
24149DOPC   D2B 6898  19.154   5.654   6.893
24149DOPC   C3B 6899  18.974   5.684   7.343
24149DOPC   C4B 6900  19.184   5.754   7.753
24150DOPS   CNO 6901  17.764   0.007   5.433
24150DOPS   PO4 6902  17.934   0.274   5.663
24150DOPS   GL1 6903  18.154   0.127   6.063
24150DOPS   GL2 6904  18.384   0.057   5.903
24150DOPS   C1A 6905  18.424   0.167   6.423
24150DOPS   D2A 6906  18.834   0.067   6.703
24150DOPS   C3A 6907  18.944   0.204   7.033
24150DOPS   C4A 6908  19.264   0.554   7.213
24150DOPS   C1B 6909  18.784   7.754   6.133
24150DOPS   D2B 6910  19.204   7.634   6.353
24150DOPS   C3B 6911  19.564   7.414   6.513
24150DOPS   C4B 6912  19.934   7.164   6.763
24151DOPS   CNO 6913   3.934   7.144   6.413
24151DOPS   PO4 6914   3.634   7.014   6.623
24151DOPS   GL1 6915   3.404   7.054   6.993
24151DOPS   GL2 6916   3.644   7.114   7.143
24151DOPS   C1A 6917   2.984   7.294   7.013
24151DOPS   D2A 6918   2.914   7.744   6.883
24151DOPS   C3A 6919   2.494   0.047   7.043
24151DOPS   C4A 6920   2.084   0.147   7.303
24151DOPS   C1B 6921   3.654   7.124   7.573
24151DOPS   D2B 6922   3.734   7.204   8.053
24151DOPS   C3B 6923   3.474   7.034   8.403
24151DOPS   C4B 6924   3.444   6.774   8.823
24152DOPS   CNO 6925   9.654   1.634  11.913
24152DOPS   PO4 6926   9.334   1.584  11.703
24152DOPS   GL1 6927   9.124   1.554  12.043
24152DOPS   GL2 6928   8.834   1.544  12.003
24152DOPS   C1A 6929   9.134   1.644  12.493
24152DOPS   D2A 6930   9.254   1.594  12.973
24152DOPS   C3A 6931   9.124   2.064  13.153
24152DOPS   C4A 6932   9.024   2.534  13.153
24152DOPS   C1B 6933   8.594   1.744  12.253
24152DOPS   D2B 6934   8.194   1.894  12.443
24152DOPS   C3B 6935   7.854   2.164  12.483
24152DOPS   C4B 6936   7.474   2.474  12.573
24153DOPS   CNO 6937  15.024   7.094   9.743
24153DOPS   PO4 6938  15.224   6.834   9.563
24153DOPS   GL1 6939  15.574   6.664   9.663
24153DOPS   GL2 6940  15.824   6.724   9.563
24153DOPS   C1A 6941  15.794   6.504   9.953
24153DOPS   D2A 6942  16.034   6.124  10.153
24153DOPS   C3A 6943  16.394   6.144  10.443
24153DOPS   C4A 6944  16.894   6.224  10.503
24153DOPS   C1B 6945  16.224   6.644   9.733
24153DOPS   D2B 6946  16.594   6.364   9.883
24153DOPS   C3B 6947  17.034   6.474  10.043
24153DOPS   C4B 6948  17.564   6.554  10.123
24154DOPS   CNO 6949  10.174   1.644  11.653
24154DOPS   PO4 6950  10.264   1.504  11.983
24154DOPS   GL1 6951  10.124   1.444  12.353
24154DOPS   GL2 6952  10.064   1.694  12.363
24154DOPS   C1A 6953   9.824   1.304  12.593
24154DOPS   D2A 6954   9.874   0.884  12.833
24154DOPS   C3A 6955   9.784   0.614  13.193
24154DOPS   C4A 6956   9.624   0.554  13.593
24154DOPS   C1B 6957  10.164   1.654  12.773
24154DOPS   D2B 6958  10.134   1.764  13.263
24154DOPS   C3B 6959  10.314   1.904  13.713
24154DOPS   C4B 6960  10.464   2.304  13.953
24155DOPS   CNO 6961   1.824   4.914   4.883
24155DOPS   PO4 6962   2.074   5.064   5.113
24155DOPS   GL1 6963   2.004   4.944   5.463
24155DOPS   GL2 6964   2.314   4.944   5.643
24155DOPS   C1A 6965   1.684   4.954   5.783
24155DOPS   D2A 6966   1.584   4.684   6.203
24155DOPS   C3A 6967   1.394   4.264   6.253
24155DOPS   C4A 6968   1.434   3.814   6.163
24155DOPS   C1B 6969   2.444   4.934   6.043
24155DOPS   D2B 6970   2.444   5.214   6.433
24155DOPS   C3B 6971   2.084   5.224   6.733
24155DOPS   C4B 6972   1.764   5.134   7.043
24156DOPS   CNO 6973  15.864   4.114   8.933
24156DOPS   PO4 6974  15.864   3.854   9.193
24156DOPS   GL1 6975  16.264   3.864   9.323
24156DOPS   GL2 6976  16.254   3.724   9.533
24156DOPS   C1A 6977  16.644   4.054   9.263
24156DOPS   D2A 6978  17.004   4.154   8.983
24156DOPS   C3A 6979  17.464   4.074   9.153
24156DOPS   C4A 6980  17.844   4.314   9.093
24156DOPS   C1B 6981  16.634   3.674   9.733
24156DOPS   D2B 6982  16.904   3.844  10.143
24156DOPS   C3B 6983  17.274   3.714  10.273
24156DOPS   C4B 6984  17.414   3.394  10.613
24157DOPS   CNO 6985   9.364   3.174  10.793
24157DOPS   PO4 6986   9.414   3.254  11.163
24157DOPS   GL1 6987   9.124   3.254  11.393
24157DOPS   GL2 6988   9.024   3.034  11.213
24157DOPS   C1A 6989   8.864   3.544  11.603
24157DOPS   D2A 6990   8.624   3.614  12.043
24157DOPS   C3A 6991   8.434   3.624  12.503
24157DOPS   C4A 6992   8.204   3.584  12.933
24157DOPS   C1B 6993   8.834   2.874  11.543
24157DOPS   D2B 6994   8.534   3.044  11.853
24157DOPS   C3B 6995   8.364   2.924  12.253
24157DOPS   C4B 6996   8.214   2.534  12.643
24158DOPS   CNO 6997  15.244   7.694   9.523
24158DOPS   PO4 6998  15.624   7.704   9.463
24158DOPS   GL1 6999  15.994   7.474   9.623
24158DOPS   GL2 7000  15.864   7.584   9.933
24158DOPS   C1A 7001  16.374   7.474   9.803
24158DOPS   D2A 7002  16.654   7.444  10.193
24158DOPS   C3A 7003  16.924   7.084  10.333
24158DOPS   C4A 7004  17.214   6.694  10.523
24158DOPS   C1B 7005  15.984   7.334  10.243
24158DOPS   D2B 7006  16.004   7.074  10.693
24158DOPS   C3B 7007  16.434   7.104  10.943
24158DOPS   C4B 7008  16.764   7.424  10.853
24159DOPS   CNO 7009  10.094   0.694  11.813
24159DOPS   PO4 7010   9.734   0.694  11.923
24159DOPS   GL1 7011   9.564   0.644  12.343
24159DOPS   GL2 7012   9.824   0.524  12.453
24159DOPS   C1A 7013   9.214   0.374  12.493
24159DOPS   D2A 7014   8.984   0.384  12.953
24159DOPS   C3A 7015   9.204   0.644  13.253
24159DOPS   C4A 7016   9.174   0.854  13.673
24159DOPS   C1B 7017   9.604   0.264  12.773
24159DOPS   D2B 7018   9.234   7.734  12.913
24159DOPS   C3B 7019   9.144   7.644  13.313
24159DOPS   C4B 7020   9.194   7.454  13.823
24160DOPS   CNO 7021  24.990   0.394   3.413
24160DOPS   PO4 7022   0.214   0.424   3.693
24160DOPS   GL1 7023   0.054   0.634   4.073
24160DOPS   GL2 7024  24.950   0.434   4.113
24160DOPS   C1A 7025   0.244   0.754   4.443
24160DOPS   D2A 7026   0.464   0.884   4.843
24160DOPS   C3A 7027   0.254   0.834   5.273
24160DOPS   C4A 7028   0.084   0.794   5.723
24160DOPS   C1B 7029  24.940   0.414   4.593
24160DOPS   D2B 7030  24.720   0.264   4.993
24160DOPS   C3B 7031  24.480   0.127   5.353
24160DOPS   C4B 7032  24.120   7.824   5.723
24161DOPS   CNO 7033   1.624   4.394   4.463
24161DOPS   PO4 7034   1.284   4.464   4.673
24161DOPS   GL1 7035   1.244   4.504   5.033
24161DOPS   GL2 7036   1.454   4.274   5.203
24161DOPS   C1A 7037   0.924   4.664   5.213
24161DOPS   D2A 7038   0.604   4.994   5.533
24161DOPS   C3A 7039   0.244   5.214   5.663
24161DOPS   C4A 7040  24.900   5.394   5.973
24161DOPS   C1B 7041   1.234   4.434   5.623
24161DOPS   D2B 7042   1.084   4.574   6.023
24161DOPS   C3B 7043   1.154   4.664   6.493
24161DOPS   C4B 7044   1.324   4.494   6.933
24162DOPS   CNO 7045   9.604   1.934  11.253
24162DOPS   PO4 7046   9.764   2.004  11.603
24162DOPS   GL1 7047   9.524   2.054  11.943
24162DOPS   GL2 7048   9.644   2.374  11.893
24162DOPS   C1A 7049   9.694   1.984  12.393
24162DOPS   D2A 7050   9.744   1.874  12.893
24162DOPS   C3A 7051   9.544   1.874  13.313
24162DOPS   C4A 7052   9.264   2.074  13.653
24162DOPS   C1B 7053   9.214   2.684  12.043
24162DOPS   D2B 7054   8.834   2.994  12.313
24162DOPS   C3B 7055   8.834   3.394  12.593
24162DOPS   C4B 7056   8.864   3.714  12.903
24163DOPS   CNO 7057  23.970   6.294   3.593
24163DOPS   PO4 7058  23.620   6.334   3.733
24163DOPS   GL1 7059  23.364   6.184   4.073
24163DOPS   GL2 7060  23.474   6.434   4.143
24163DOPS   C1A 7061  23.514   6.064   4.463
24163DOPS   D2A 7062  23.670   6.004   4.893
24163DOPS   C3A 7063  23.680   6.024   5.333
24163DOPS   C4A 7064  23.870   5.904   5.793
24163DOPS   C1B 7065  23.770   6.504   4.443
24163DOPS   D2B 7066  24.140   6.264   4.773
24163DOPS   C3B 7067  24.140   6.064   5.213
24163DOPS   C4B 7068  24.050   6.304   5.613
24164DOPS   CNO 7069   3.854   5.004   7.213
24164DOPS   PO4 7070   3.774   5.034   6.823
24164DOPS   GL1 7071   3.514   5.284   6.823
24164DOPS   GL2 7072   3.594   5.424   7.083
24164DOPS   C1A 7073   3.174   5.234   7.133
24164DOPS   D2A 7074   3.024   5.404   7.553
24164DOPS   C3A 7075   2.634   5.644   7.803
24164DOPS   C4A 7076   2.394   5.894   8.113
24164DOPS   C1B 7077   3.324   5.664   7.293
24164DOPS   D2B 7078   3.014   5.994   7.513
24164DOPS   C3B 7079   2.854   6.104   7.983
24164DOPS   C4B 7080   2.694   6.434   8.353
24165DOPS   CNO 7081  14.984   1.484  10.773
24165DOPS   PO4 7082  15.144   1.174  10.583
24165DOPS   GL1 7083  15.174   0.794  10.443
24165DOPS   GL2 7084  15.454   0.824  10.233
24165DOPS   C1A 7085  15.244   0.614  10.923
24165DOPS   D2A 7086  15.294   0.444  11.353
24165DOPS   C3A 7087  15.524   0.414  11.783
24165DOPS   C4A 7088  15.634   0.704  12.173
24165DOPS   C1B 7089  15.644   0.684  10.633
24165DOPS   D2B 7090  15.734   0.604  11.103
24165DOPS   C3B 7091  15.654   0.804  11.503
24165DOPS   C4B 7092  15.254   1.034  11.773
24166DOPS   CNO 7093  13.244   3.864  11.733
24166DOPS   PO4 7094  13.044   3.864  12.053
24166DOPS   GL1 7095  13.214   3.864  12.413
24166DOPS   GL2 7096  13.294   4.134  12.473
24166DOPS   C1A 7097  13.034   3.644  12.703
24166DOPS   D2A 7098  12.914   3.444  13.093
24166DOPS   C3A 7099  12.984   3.484  13.523
24166DOPS   C4A 7100  13.244   3.604  13.863
24166DOPS   C1B 7101  13.284   4.464  12.643
24166DOPS   D2B 7102  13.214   4.304  13.033
24166DOPS   C3B 7103  13.264   3.924  13.343
24166DOPS   C4B 7104  13.684   3.714  13.563
24167DOPS   CNO 7105  16.384   6.414   8.253
24167DOPS   PO4 7106  16.694   6.184   8.273
24167DOPS   GL1 7107  16.824   5.954   8.653
24167DOPS   GL2 7108  17.044   6.154   8.603
24167DOPS   C1A 7109  16.924   5.634   8.933
24167DOPS   D2A 7110  17.174   5.514   9.323
24167DOPS   C3A 7111  17.454   5.554   9.683
24167DOPS   C4A 7112  17.704   5.584  10.053
24167DOPS   C1B 7113  17.304   6.294   8.873
24167DOPS   D2B 7114  17.654   6.384   9.213
24167DOPS   C3B 7115  17.824   6.374   9.703
24167DOPS   C4B 7116  17.944   5.864   9.683
24168DOPS   CNO 7117  20.794   4.204   4.433
24168DOPS   PO4 7118  20.664   4.064   4.783
24168DOPS   GL1 7119  21.034   4.034   5.023
24168DOPS   GL2 7120  20.954   3.714   4.933
24168DOPS   C1A 7121  21.284   4.274   5.383
24168DOPS   D2A 7122  21.444   4.794   5.483
24168DOPS   C3A 7123  21.124   5.164   5.413
24168DOPS   C4A 7124  21.024   5.594   5.243
24168DOPS   C1B 7125  21.004   3.544   5.353
24168DOPS   D2B 7126  20.694   3.414   5.683
24168DOPS   C3B 7127  20.664   3.174   6.073
24168DOPS   C4B 7128  20.794   2.944   6.483
24169DOPS   CNO 7129   5.684   5.114   8.483
24169DOPS   PO4 7130   5.414   5.204   8.223
24169DOPS   GL1 7131   4.934   5.234   8.093
24169DOPS   GL2 7132   4.924   4.964   8.093
24169DOPS   C1A 7133   4.524   5.284   8.223
24169DOPS   D2A 7134   4.064   5.284   8.303
24169DOPS   C3A 7135   3.654   5.454   8.233
24169DOPS   C4A 7136   3.244   5.644   8.503
24169DOPS   C1B 7137   4.794   4.594   8.353
24169DOPS   D2B 7138   4.524   4.364   8.653
24169DOPS   C3B 7139   4.304   4.154   8.973
24169DOPS   C4B 7140   4.074   4.424   9.353
24170DOPS   CNO 7141   4.514   1.314   6.853
24170DOPS   PO4 7142   4.344   1.214   7.173
24170DOPS   GL1 7143   4.154   1.414   7.493
24170DOPS   GL2 7144   4.284   1.204   7.683
24170DOPS   C1A 7145   3.844   1.424   7.843
24170DOPS   D2A 7146   3.754   1.394   8.343
24170DOPS   C3A 7147   3.914   1.054   8.613
24170DOPS   C4A 7148   4.244   0.754   8.853
24170DOPS   C1B 7149   4.124   1.074   8.053
24170DOPS   D2B 7150   3.974   0.664   8.313
24170DOPS   C3B 7151   3.764   0.524   8.713
24170DOPS   C4B 7152   3.674   0.224   9.133
24171DOPS   CNO 7153  20.474   2.244   4.213
24171DOPS   PO4 7154  20.324   2.024   4.483
24171DOPS   GL1 7155  20.544   1.894   4.823
24171DOPS   GL2 7156  20.384   1.834   5.033
24171DOPS   C1A 7157  20.694   1.484   4.743
24171DOPS   D2A 7158  20.684   0.954   4.593
24171DOPS   C3A 7159  20.734   0.674   4.963
24171DOPS   C4A 7160  20.894   0.534   5.413
24171DOPS   C1B 7161  20.304   1.914   5.423
24171DOPS   D2B 7162  20.424   2.124   5.903
24171DOPS   C3B 7163  20.664   2.224   6.333
24171DOPS   C4B 7164  20.864   1.994   6.693
24172DOPS   CNO 7165   4.294   2.894   6.913
24172DOPS   PO4 7166   4.134   2.544   6.873
24172DOPS   GL1 7167   3.834   2.484   7.003
24172DOPS   GL2 7168   3.604   2.304   6.963
24172DOPS   C1A 7169   3.694   2.814   7.223
24172DOPS   D2A 7170   3.174   2.894   7.373
24172DOPS   C3A 7171   2.754   3.054   7.363
24172DOPS   C4A 7172   2.314   3.104   7.503
24172DOPS   C1B 7173   3.244   2.434   7.183
24172DOPS   D2B 7174   2.844   2.524   7.483
24172DOPS   C3B 7175   2.624   2.804   7.783
24172DOPS   C4B 7176   2.314   2.924   8.153
24173DOPS   CNO 7177  22.374   2.534   3.593
24173DOPS   PO4 7178  22.464   2.334   3.933
24173DOPS   GL1 7179  22.404   2.534   4.353
24173DOPS   GL2 7180  22.694   2.524   4.353
24173DOPS   C1A 7181  22.334   2.174   4.633
24173DOPS   D2A 7182  22.554   1.734   4.703
24173DOPS   C3A 7183  22.704   1.944   5.093
24173DOPS   C4A 7184  22.754   2.214   5.533
24173DOPS   C1B 7185  22.724   2.914   4.673
24173DOPS   D2B 7186  22.694   3.004   5.113
24173DOPS   C3B 7187  22.914   2.954   5.543
24173DOPS   C4B 7188  23.094   3.034   6.043
24174DOPS   CNO 7189   5.014   1.764   7.683
24174DOPS   PO4 7190   4.704   1.934   7.513
24174DOPS   GL1 7191   4.574   2.274   7.723
24174DOPS   GL2 7192   4.804   2.474   7.683
24174DOPS   C1A 7193   4.444   2.284   8.113
24174DOPS   D2A 7194   4.034   2.334   8.473
24174DOPS   C3A 7195   3.524   2.494   8.593
24174DOPS   C4A 7196   3.034   2.564   8.793
24174DOPS   C1B 7197   4.764   2.694   8.073
24174DOPS   D2B 7198   4.584   2.774   8.533
24174DOPS   C3B 7199   4.564   3.104   8.883
24174DOPS   C4B 7200   4.184   3.094   9.133
35962DOPC   NC3 7201   5.294   5.234  13.483
35962DOPC   PO4 7202   5.204   4.874  13.333
35962DOPC   GL1 7203   5.324   4.684  12.963
35962DOPC   GL2 7204   5.474   4.514  13.033
35962DOPC   C1A 7205   5.534   4.734  12.553
35962DOPC   D2A 7206   5.754   4.804  12.093
35962DOPC   C3A 7207   6.074   4.594  11.753
35962DOPC   C4A 7208   6.374   4.454  11.373
35962DOPC   C1B 7209   5.754   4.344  12.793
35962DOPC   D2B 7210   6.044   4.644  12.473
35962DOPC   C3B 7211   6.414   4.584  12.133
35962DOPC   C4B 7212   6.674   4.454  11.773
35963DOPC   NC3 7213  22.074   4.444   7.663
35963DOPC   PO4 7214  22.434   4.474   7.503
35963DOPC   GL1 7215  22.394   4.384   7.063
35963DOPC   GL2 7216  22.274   4.584   7.063
35963DOPC   C1A 7217  22.284   4.034   6.923
35963DOPC   D2A 7218  22.444   3.614   6.713
35963DOPC   C3A 7219  22.774   3.734   6.403
35963DOPC   C4A 7220  23.204   3.954   6.293
35963DOPC   C1B 7221  22.404   4.674   6.613
35963DOPC   D2B 7222  22.704   4.834   6.263
35963DOPC   C3B 7223  23.094   4.714   6.443
35963DOPC   C4B 7224  23.254   4.364   6.703
35964DOPC   NC3 7225  20.774   0.664   9.053
35964DOPC   PO4 7226  20.664   1.014   9.173
35964DOPC   GL1 7227  20.344   1.154   8.853
35964DOPC   GL2 7228  20.414   1.404   8.913
35964DOPC   C1A 7229  19.924   1.064   8.663
35964DOPC   D2A 7230  19.534   1.284   8.473
35964DOPC   C3A 7231  19.264   1.484   8.183
35964DOPC   C4A 7232  18.804   1.494   7.993
35964DOPC   C1B 7233  20.534   1.754   8.703
35964DOPC   D2B 7234  20.474   2.224   8.433
35964DOPC   C3B 7235  20.444   1.924   8.043
35964DOPC   C4B 7236  20.444   1.614   7.653
35965DOPC   NC3 7237   8.074   0.314  15.593
35965DOPC   PO4 7238   7.994   0.694  15.463
35965DOPC   GL1 7239   7.984   0.494  15.063
35965DOPC   GL2 7240   8.154   0.304  15.123
35965DOPC   C1A 7241   7.744   0.684  14.693
35965DOPC   D2A 7242   7.534   0.934  14.223
35965DOPC   C3A 7243   7.884   1.124  13.913
35965DOPC   C4A 7244   7.944   1.564  13.723
35965DOPC   C1B 7245   8.444   0.294  14.783
35965DOPC   D2B 7246   8.584   0.294  14.293
35965DOPC   C3B 7247   8.674   0.017  13.933
35965DOPC   C4B 7248   8.734   7.474  13.633
35966DOPC   NC3 7249  14.334   0.424  15.603
35966DOPC   PO4 7250  14.624   0.384  15.363
35966DOPC   GL1 7251  14.584   0.284  14.973
35966DOPC   GL2 7252  14.564   0.574  14.943
35966DOPC   C1A 7253  14.464   0.057  14.623
35966DOPC   D2A 7254  14.354   7.624  14.203
35966DOPC   C3A 7255  14.064   7.574  13.913
35966DOPC   C4A 7256  13.564   7.554  13.773
35966DOPC   C1B 7257  14.164   0.704  14.793
35966DOPC   D2B 7258  13.804   1.054  14.633
35966DOPC   C3B 7259  13.714   1.264  14.233
35966DOPC   C4B 7260  13.514   1.424  13.783
35967DOPC   NC3 7261   8.614   7.664  15.633
35967DOPC   PO4 7262   8.454   7.814  15.313
35967DOPC   GL1 7263   8.544   7.494  15.003
35967DOPC   GL2 7264   8.734   7.734  14.913
35967DOPC   C1A 7265   8.464   7.514  14.553
35967DOPC   D2A 7266   8.284   7.544  14.083
35967DOPC   C3A 7267   8.284   7.094  13.803
35967DOPC   C4A 7268   8.554   6.834  13.453
35967DOPC   C1B 7269   8.904   7.814  14.533
35967DOPC   D2B 7270   9.244   0.027  14.233
35967DOPC   C3B 7271   9.384   0.157  13.833
35967DOPC   C4B 7272   9.554   0.097  13.353
35968DOPC   NC3 7273  20.334   0.694   8.803
35968DOPC   PO4 7274  20.264   0.604   9.173
35968DOPC   GL1 7275  19.964   0.884   9.083
35968DOPC   GL2 7276  19.774   0.714   8.953
35968DOPC   C1A 7277  19.824   1.284   9.163
35968DOPC   D2A 7278  19.364   1.444   9.063
35968DOPC   C3A 7279  19.164   1.644   8.783
35968DOPC   C4A 7280  18.834   1.624   8.463
35968DOPC   C1B 7281  19.444   0.924   9.003
35968DOPC   D2B 7282  19.014   1.094   8.913
35968DOPC   C3B 7283  18.784   0.724   8.763
35968DOPC   C4B 7284  18.564   0.304   8.653
35969DOPC   NC3 7285   3.534   5.094  12.753
35969DOPC   PO4 7286   3.864   4.914  12.613
35969DOPC   GL1 7287   3.974   4.984  12.193
35969DOPC   GL2 7288   4.184   4.864  12.303
35969DOPC   C1A 7289   3.804   4.904  11.783
35969DOPC   D2A 7290   3.594   5.054  11.303
35969DOPC   C3A 7291   3.824   5.054  10.893
35969DOPC   C4A 7292   3.984   4.844  10.443
35969DOPC   C1B 7293   4.504   4.884  12.053
35969DOPC   D2B 7294   4.874   4.774  11.733
35969DOPC   C3B 7295   5.054   4.904  11.353
35969DOPC   C4B 7296   5.424   4.934  11.113
35970DOPC   NC3 7297  17.544   2.924  13.323
35970DOPC   PO4 7298  17.314   2.704  13.583
35970DOPC   GL1 7299  16.934   2.624  13.413
35970DOPC   GL2 7300  16.754   2.654  13.643
35970DOPC   C1A 7301  16.834   2.294  13.213
35970DOPC   D2A 7302  16.514   2.294  12.813
35970DOPC   C3A 7303  16.574   2.244  12.373
35970DOPC   C4A 7304  16.744   2.314  11.853
35970DOPC   C1B 7305  16.334   2.574  13.783
35970DOPC   D2B 7306  16.014   2.114  13.773
35970DOPC   C3B 7307  15.694   2.084  13.523
35970DOPC   C4B 7308  15.254   1.914  13.323
35971DOPC   NC3 7309   7.694   2.354  14.983
35971DOPC   PO4 7310   7.344   2.434  14.893
35971DOPC   GL1 7311   7.224   2.464  14.583
35971DOPC   GL2 7312   7.414   2.694  14.543
35971DOPC   C1A 7313   7.404   2.434  14.203
35971DOPC   D2A 7314   7.574   2.514  13.683
35971DOPC   C3A 7315   7.924   2.504  13.413
35971DOPC   C4A 7316   8.314   2.474  13.123
35971DOPC   C1B 7317   7.724   2.784  14.383
35971DOPC   D2B 7318   7.914   2.924  14.023
35971DOPC   C3B 7319   8.114   2.934  13.623
35971DOPC   C4B 7320   8.454   2.914  13.273
35972DOPC   NC3 7321   3.954   7.524  12.483
35972DOPC   PO4 7322   4.284   7.374  12.343
35972DOPC   GL1 7323   4.554   7.094  12.173
35972DOPC   GL2 7324   4.724   7.224  12.033
35972DOPC   C1A 7325   4.784   6.694  12.293
35972DOPC   D2A 7326   5.164   6.374  12.413
35972DOPC   C3A 7327   5.584   6.054  12.303
35972DOPC   C4A 7328   5.914   6.004  12.003
35972DOPC   C1B 7329   5.114   7.064  12.013
35972DOPC   D2B 7330   5.474   6.674  12.193
35972DOPC   C3B 7331   5.904   6.484  12.153
35972DOPC   C4B 7332   6.284   6.304  11.843
35973DOPC   NC3 7333  10.454   4.344  16.303
35973DOPC   PO4 7334  10.544   4.424  15.933
35973DOPC   GL1 7335  10.374   4.274  15.573
35973DOPC   GL2 7336  10.544   4.514  15.463
35973DOPC   C1A 7337  10.294   4.084  15.233
35973DOPC   D2A 7338  10.434   3.974  14.763
35973DOPC   C3A 7339  10.194   3.914  14.353
35973DOPC   C4A 7340   9.884   4.084  13.983
35973DOPC   C1B 7341  10.554   4.394  14.983
35973DOPC   D2B 7342  10.554   4.374  14.473
35973DOPC   C3B 7343  10.514   4.404  14.023
35973DOPC   C4B 7344  10.554   4.524  13.513
35974DOPC   NC3 7345  15.954   3.914  14.863
35974DOPC   PO4 7346  15.644   4.144  14.733
35974DOPC   GL1 7347  15.274   3.994  14.483
35974DOPC   GL2 7348  15.334   4.164  14.363
35974DOPC   C1A 7349  15.244   3.574  14.323
35974DOPC   D2A 7350  15.294   3.184  13.973
35974DOPC   C3A 7351  15.484   3.254  13.483
35974DOPC   C4A 7352  15.824   3.244  13.133
35974DOPC   C1B 7353  15.424   4.054  13.953
35974DOPC   D2B 7354  15.344   4.144  13.453
35974DOPC   C3B 7355  15.154   4.464  13.153
35974DOPC   C4B 7356  14.874   4.744  12.813
35975DOPC   NC3 7357   9.694   2.444  16.053
35975DOPC   PO4 7358   9.934   2.344  16.313
35975DOPC   GL1 7359  10.034   2.014  16.133
35975DOPC   GL2 7360   9.874   2.064  15.903
35975DOPC   C1A 7361  10.444   2.054  15.843
35975DOPC   D2A 7362  10.814   1.894  15.563
35975DOPC   C3A 7363  10.724   1.494  15.343
35975DOPC   C4A 7364  10.964   1.084  15.403
35975DOPC   C1B 7365  10.074   2.244  15.563
35975DOPC   D2B 7366  10.564   2.284  15.363
35975DOPC   C3B 7367  10.554   2.404  14.923
35975DOPC   C4B 7368  10.324   2.564  14.523
35976DOPC   NC3 7369   3.094   1.954  11.193
35976DOPC   PO4 7370   3.134   2.344  11.233
35976DOPC   GL1 7371   3.394   2.584  10.993
35976DOPC   GL2 7372   3.534   2.204  11.073
35976DOPC   C1A 7373   3.364   2.714  10.553
35976DOPC   D2A 7374   3.314   2.934  10.143
35976DOPC   C3A 7375   3.564   3.084   9.823
35976DOPC   C4A 7376   4.014   2.874   9.753
35976DOPC   C1B 7377   3.694   2.174  10.643
35976DOPC   D2B 7378   4.014   2.094  10.333
35976DOPC   C3B 7379   4.304   1.844  10.063
35976DOPC   C4B 7380   4.514   1.694   9.743
35977DOPC   NC3 7381   3.434   3.334  12.013
35977DOPC   PO4 7382   3.794   3.464  12.153
35977DOPC   GL1 7383   4.124   3.574  11.903
35977DOPC   GL2 7384   3.984   3.834  11.833
35977DOPC   C1A 7385   4.234   3.564  11.493
35977DOPC   D2A 7386   4.324   3.504  11.053
35977DOPC   C3A 7387   4.794   3.474  10.823
35977DOPC   C4A 7388   5.124   3.254  10.583
35977DOPC   C1B 7389   3.994   4.004  11.413
35977DOPC   D2B 7390   3.784   4.144  10.993
35977DOPC   C3B 7391   4.224   4.244  11.033
35977DOPC   C4B 7392   4.684   4.474  10.893
35978DOPC   NC3 7393   0.204   1.344   7.963
35978DOPC   PO4 7394  24.940   1.134   7.833
35978DOPC   GL1 7395  24.860   1.214   7.393
35978DOPC   GL2 7396   0.104   1.284   7.493
35978DOPC   C1A 7397  24.950   1.154   6.963
35978DOPC   D2A 7398   0.114   1.064   6.563
35978DOPC   C3A 7399   0.574   0.844   6.443
35978DOPC   C4A 7400   0.984   0.774   6.133
35978DOPC   C1B 7401   0.174   1.464   7.143
35978DOPC   D2B 7402   0.224   1.574   6.723
35978DOPC   C3B 7403   0.494   1.364   6.463
35978DOPC   C4B 7404   0.934   1.254   6.263
35979DOPC   NC3 7405   1.484   1.344  10.873
35979DOPC   PO4 7406   1.614   1.654  10.633
35979DOPC   GL1 7407   1.764   1.774  10.193
35979DOPC   GL2 7408   1.994   1.774  10.363
35979DOPC   C1A 7409   2.074   1.714   9.893
35979DOPC   D2A 7410   2.194   1.764   9.393
35979DOPC   C3A 7411   2.624   1.674   9.213
35979DOPC   C4A 7412   3.034   1.614   9.043
35979DOPC   C1B 7413   2.414   1.944  10.243
35979DOPC   D2B 7414   2.834   1.694  10.343
35979DOPC   C3B 7415   3.224   1.604  10.113
35979DOPC   C4B 7416   3.504   1.444   9.743
35980DOPC   NC3 7417   0.214   6.774   9.043
35980DOPC   PO4 7418   0.104   6.384   8.973
35980DOPC   GL1 7419   0.284   6.084   8.733
35980DOPC   GL2 7420   0.074   6.194   8.533
35980DOPC   C1A 7421   0.534   5.884   8.503
35980DOPC   D2A 7422   0.764   5.754   8.163
35980DOPC   C3A 7423   0.824   5.654   7.713
35980DOPC   C4A 7424   1.114   5.374   7.473
35980DOPC   C1B 7425   0.384   6.284   8.243
35980DOPC   D2B 7426   0.804   6.364   7.943
35980DOPC   C3B 7427   0.924   6.134   7.573
35980DOPC   C4B 7428   1.164   6.334   7.203
35981DOPC   NC3 7429  17.384   0.234  13.333
35981DOPC   PO4 7430  17.624   0.494  13.113
35981DOPC   GL1 7431  17.644   0.314  12.743
35981DOPC   GL2 7432  17.684   0.037  12.893
35981DOPC   C1A 7433  17.414   0.324  12.393
35981DOPC   D2A 7434  16.954   0.324  12.223
35981DOPC   C3A 7435  16.754   0.147  11.853
35981DOPC   C4A 7436  16.394   0.027  11.573
35981DOPC   C1B 7437  17.274   7.694  12.893
35981DOPC   D2B 7438  16.904   7.364  12.803
35981DOPC   C3B 7439  16.504   7.414  12.673
35981DOPC   C4B 7440  16.104   7.404  12.443
35982DOPC   NC3 7441   6.904   7.224  14.993
35982DOPC   PO4 7442   7.214   7.054  14.883
35982DOPC   GL1 7443   7.464   7.104  14.593
35982DOPC   GL2 7444   7.244   7.294  14.463
35982DOPC   C1A 7445   7.604   6.764  14.393
35982DOPC   D2A 7446   7.984   6.554  14.153
35982DOPC   C3A 7447   8.194   6.624  13.733
35982DOPC   C4A 7448   8.184   6.354  13.313
35982DOPC   C1B 7449   7.404   7.334  14.053
35982DOPC   D2B 7450   7.544   7.434  13.593
35982DOPC   C3B 7451   7.754   7.404  13.193
35982DOPC   C4B 7452   8.134   7.384  12.813
35983DOPC   NC3 7453  18.914   5.814  11.723
35983DOPC   PO4 7454  19.024   6.104  11.513
35983DOPC   GL1 7455  18.804   6.254  11.243
35983DOPC   GL2 7456  19.014   6.384  11.083
35983DOPC   C1A 7457  18.354   6.244  11.203
35983DOPC   D2A 7458  17.814   6.304  11.173
35983DOPC   C3A 7459  17.884   6.294  10.663
35983DOPC   C4A 7460  17.934   6.084  10.243
35983DOPC   C1B 7461  18.664   6.544  10.903
35983DOPC   D2B 7462  18.304   6.794  10.563
35983DOPC   C3B 7463  18.024   6.604  10.253
35983DOPC   C4B 7464  17.834   6.944   9.903
35984DOPC   NC3 7465  22.064   5.894   8.053
35984DOPC   PO4 7466  21.764   5.874   8.343
35984DOPC   GL1 7467  21.424   5.884   8.203
35984DOPC   GL2 7468  21.254   5.834   8.363
35984DOPC   C1A 7469  21.004   5.964   7.883
35984DOPC   D2A 7470  20.654   5.874   7.623
35984DOPC   C3A 7471  20.624   5.604   7.253
35984DOPC   C4A 7472  20.724   5.304   6.843
35984DOPC   C1B 7473  20.854   5.664   8.193
35984DOPC   D2B 7474  20.414   5.674   8.023
35984DOPC   C3B 7475  19.944   5.574   7.973
35984DOPC   C4B 7476  19.604   5.234   8.193
35985DOPC   NC3 7477   2.174   6.934  10.503
35985DOPC   PO4 7478   1.844   6.824  10.323
35985DOPC   GL1 7479   1.964   6.934   9.973
35985DOPC   GL2 7480   2.184   6.704  10.073
35985DOPC   C1A 7481   2.254   7.164   9.903
35985DOPC   D2A 7482   2.534   7.244   9.483
35985DOPC   C3A 7483   2.794   7.294   9.133
35985DOPC   C4A 7484   3.054   7.154   8.703
35985DOPC   C1B 7485   2.274   6.464   9.653
35985DOPC   D2B 7486   2.314   6.224   9.193
35985DOPC   C3B 7487   2.694   5.964   9.183
35985DOPC   C4B 7488   2.894   5.614   8.953
35986DOPC   NC3 7489   0.354   3.804   8.863
35986DOPC   PO4 7490   0.574   3.784   9.173
35986DOPC   GL1 7491   0.994   3.714   9.043
35986DOPC   GL2 7492   0.834   3.614   8.823
35986DOPC   C1A 7493   1.354   3.614   8.803
35986DOPC   D2A 7494   1.724   3.634   8.393
35986DOPC   C3A 7495   1.794   3.754   7.983
35986DOPC   C4A 7496   1.994   3.964   7.553
35986DOPC   C1B 7497   1.024   3.774   8.423
35986DOPC   D2B 7498   1.324   3.874   8.033
35986DOPC   C3B 7499   1.434   3.674   7.593
35986DOPC   C4B 7500   1.354   3.184   7.473
35987DOPC   NC3 7501  19.204   3.624  10.883
35987DOPC   PO4 7502  19.204   3.244  10.853
35987DOPC   GL1 7503  18.874   3.354  10.613
35987DOPC   GL2 7504  19.014   3.494  10.393
35987DOPC   C1A 7505  18.434   3.294  10.473
35987DOPC   D2A 7506  17.934   3.274  10.383
35987DOPC   C3A 7507  17.764   3.694  10.523
35987DOPC   C4A 7508  17.714   4.174  10.453
35987DOPC   C1B 7509  18.674   3.544  10.093
35987DOPC   D2B 7510  18.364   3.794   9.783
35987DOPC   C3B 7511  18.444   3.564   9.403
35987DOPC   C4B 7512  18.414   3.474   8.903
35988DOPC   NC3 7513  20.064   0.904   9.923
35988DOPC   PO4 7514  19.944   0.544  10.053
35988DOPC   GL1 7515  19.624   0.524   9.813
35988DOPC   GL2 7516  19.624   0.284   9.943
35988DOPC   C1A 7517  19.274   0.664   9.553
35988DOPC   D2A 7518  18.874   0.764   9.273
35988DOPC   C3A 7519  18.524   1.084   9.173
35988DOPC   C4A 7520  18.164   1.284   8.953
35988DOPC   C1B 7521  19.574   7.724   9.903
35988DOPC   D2B 7522  19.344   7.274   9.763
35988DOPC   C3B 7523  19.484   6.874   9.823
35988DOPC   C4B 7524  19.674   6.444  10.023
35989DOPC   NC3 7525   3.814   2.454  12.583
35989DOPC   PO4 7526   4.034   2.154  12.373
35989DOPC   GL1 7527   4.224   2.364  12.053
35989DOPC   GL2 7528   4.464   2.334  12.223
35989DOPC   C1A 7529   4.364   2.444  11.733
35989DOPC   D2A 7530   4.314   2.644  11.293
35989DOPC   C3A 7531   4.074   2.984  11.203
35989DOPC   C4A 7532   3.844   3.404  11.183
35989DOPC   C1B 7533   4.804   2.364  11.993
35989DOPC   D2B 7534   5.254   2.434  11.723
35989DOPC   C3B 7535   5.424   2.464  11.273
35989DOPC   C4B 7536   5.574   2.754  10.983
35990DOPC   NC3 7537   1.404   0.514  10.273
35990DOPC   PO4 7538   1.624   0.354  10.493
35990DOPC   GL1 7539   1.954   0.274  10.223
35990DOPC   GL2 7540   1.834   0.027  10.193
35990DOPC   C1A 7541   2.224   0.524   9.943
35990DOPC   D2A 7542   2.454   0.784   9.593
35990DOPC   C3A 7543   2.914   0.714   9.623
35990DOPC   C4A 7544   3.434   0.794   9.793
35990DOPC   C1B 7545   1.804   7.634   9.833
35990DOPC   D2B 7546   2.084   7.484   9.433
35990DOPC   C3B 7547   2.344   7.634   9.073
35990DOPC   C4B 7548   2.694   7.594   8.723
35991DOPC   NC3 7549   4.424   0.814  12.853
35991DOPC   PO4 7550   4.504   1.104  13.123
35991DOPC   GL1 7551   4.904   1.194  12.883
35991DOPC   GL2 7552   4.924   0.914  12.923
35991DOPC   C1A 7553   4.964   1.134  12.493
35991DOPC   D2A 7554   5.174   1.134  12.113
35991DOPC   C3A 7555   5.224   1.164  11.643
35991DOPC   C4A 7556   4.984   1.164  11.243
35991DOPC   C1B 7557   5.334   0.824  12.683
35991DOPC   D2B 7558   5.824   0.794  12.573
35991DOPC   C3B 7559   5.944   0.564  12.193
35991DOPC   C4B 7560   5.794   0.324  11.733
35992DOPC   NC3 7561  21.024   0.764   8.363
35992DOPC   PO4 7562  21.224   0.434   8.193
35992DOPC   GL1 7563  21.314   0.167   7.983
35992DOPC   GL2 7564  21.524   0.097   7.853
35992DOPC   C1A 7565  20.944   7.804   7.783
35992DOPC   D2A 7566  20.564   7.754   7.513
35992DOPC   C3A 7567  20.404   7.634   7.073
35992DOPC   C4A 7568  20.194   7.634   6.673
35992DOPC   C1B 7569  21.344   0.127   7.503
35992DOPC   D2B 7570  21.164   0.224   7.103
35992DOPC   C3B 7571  21.354   7.794   6.733
35992DOPC   C4B 7572  21.654   7.474   6.523
35993DOPC   NC3 7573   4.594   5.254  12.863
35993DOPC   PO4 7574   4.424   4.884  12.763
35993DOPC   GL1 7575   4.564   4.644  12.453
35993DOPC   GL2 7576   4.714   4.974  12.453
35993DOPC   C1A 7577   4.784   4.324  12.213
35993DOPC   D2A 7578   4.884   4.184  11.763
35993DOPC   C3A 7579   5.324   4.144  11.633
35993DOPC   C4A 7580   5.844   4.194  11.653
35993DOPC   C1B 7581   4.994   5.064  12.163
35993DOPC   D2B 7582   5.254   5.194  11.763
35993DOPC   C3B 7583   5.594   5.294  11.473
35993DOPC   C4B 7584   5.894   5.584  11.183
35994DOPC   NC3 7585   4.234   6.794  12.493
35994DOPC   PO4 7586   3.954   6.524  12.633
35994DOPC   GL1 7587   4.224   6.354  12.283
35994DOPC   GL2 7588   4.314   6.224  12.513
35994DOPC   C1A 7589   4.414   6.504  11.933
35994DOPC   D2A 7590   4.784   6.514  11.563
35994DOPC   C3A 7591   4.964   6.634  11.163
35994DOPC   C4A 7592   4.814   6.894  10.703
35994DOPC   C1B 7593   4.694   6.154  12.453
35994DOPC   D2B 7594   5.044   5.954  12.143
35994DOPC   C3B 7595   5.354   6.144  11.863
35994DOPC   C4B 7596   5.724   6.444  11.653
35995DOPC   NC3 7597  17.464   3.704  13.743
35995DOPC   PO4 7598  17.144   3.844  13.883
35995DOPC   GL1 7599  16.914   4.134  13.683
35995DOPC   GL2 7600  16.704   4.114  13.843
35995DOPC   C1A 7601  16.784   4.104  13.323
35995DOPC   D2A 7602  16.664   4.244  12.893
35995DOPC   C3A 7603  16.374   4.014  12.663
35995DOPC   C4A 7604  16.024   3.824  12.363
35995DOPC   C1B 7605  16.454   4.434  13.723
35995DOPC   D2B 7606  16.274   4.864  13.793
35995DOPC   C3B 7607  15.824   4.894  13.643
35995DOPC   C4B 7608  15.274   4.954  13.713
35996DOPC   NC3 7609   5.324   6.694  14.433
35996DOPC   PO4 7610   5.504   6.334  14.353
35996DOPC   GL1 7611   5.914   6.234  14.223
35996DOPC   GL2 7612   5.814   6.004  14.053
35996DOPC   C1A 7613   6.204   6.354  13.983
35996DOPC   D2A 7614   6.354   6.594  13.573
35996DOPC   C3A 7615   6.764   6.704  13.413
35996DOPC   C4A 7616   7.014   6.704  13.043
35996DOPC   C1B 7617   5.954   5.954  13.663
35996DOPC   D2B 7618   6.274   5.984  13.343
35996DOPC   C3B 7619   6.274   6.084  12.913
35996DOPC   C4B 7620   6.064   6.114  12.463
35997DOPC   NC3 7621  18.604   2.344  11.703
35997DOPC   PO4 7622  18.974   2.274  11.583
35997DOPC   GL1 7623  18.844   2.224  11.123
35997DOPC   GL2 7624  18.694   2.464  11.253
35997DOPC   C1A 7625  18.854   2.394  10.723
35997DOPC   D2A 7626  18.614   2.364  10.223
35997DOPC   C3A 7627  18.354   2.554   9.833
35997DOPC   C4A 7628  18.084   2.864   9.603
35997DOPC   C1B 7629  18.384   2.674  11.033
35997DOPC   D2B 7630  18.104   2.894  10.713
35997DOPC   C3B 7631  17.644   2.984  10.653
35997DOPC   C4B 7632  17.214   2.804  10.433
35998DOPC   NC3 7633   4.504   4.314  12.773
35998DOPC   PO4 7634   4.434   3.924  12.683
35998DOPC   GL1 7635   4.504   3.784  12.283
35998DOPC   GL2 7636   4.704   3.894  12.413
35998DOPC   C1A 7637   4.654   3.534  11.923
35998DOPC   D2A 7638   4.924   3.184  11.683
35998DOPC   C3A 7639   5.144   2.894  11.353
35998DOPC   C4A 7640   5.074   2.854  10.823
35998DOPC   C1B 7641   5.014   3.844  12.123
35998DOPC   D2B 7642   5.044   3.654  11.663
35998DOPC   C3B 7643   5.144   3.634  11.213
35998DOPC   C4B 7644   5.424   3.484  10.873
35999DOPC   NC3 7645   4.624   5.284  13.773
35999DOPC   PO4 7646   4.874   5.424  13.513
35999DOPC   GL1 7647   4.974   5.334  13.083
35999DOPC   GL2 7648   5.214   5.544  13.083
35999DOPC   C1A 7649   5.074   5.084  12.753
35999DOPC   D2A 7650   5.064   4.674  12.463
35999DOPC   C3A 7651   5.294   4.694  12.123
35999DOPC   C4A 7652   5.514   4.744  11.643
35999DOPC   C1B 7653   5.134   5.604  12.623
35999DOPC   D2B 7654   5.304   5.474  12.143
35999DOPC   C3B 7655   5.644   5.624  11.853
35999DOPC   C4B 7656   6.114   5.644  11.613
36000DOPC   NC3 7657   5.734   6.554  13.983
36000DOPC   PO4 7658   5.594   6.944  14.043
36000DOPC   GL1 7659   5.974   7.114  13.843
36000DOPC   GL2 7660   6.174   6.864  14.013
36000DOPC   C1A 7661   6.214   7.374  13.573
36000DOPC   D2A 7662   6.254   7.814  13.313
36000DOPC   C3A 7663   6.644   0.244  13.323
36000DOPC   C4A 7664   6.904   0.584  13.553
36000DOPC   C1B 7665   6.624   6.724  13.953
36000DOPC   D2B 7666   6.954   6.394  13.803
36000DOPC   C3B 7667   7.264   6.384  13.463
36000DOPC   C4B 7668   7.684   6.454  13.153
36001DOPC   NC3 7669  11.174   3.404  16.223
36001DOPC   PO4 7670  10.864   3.614  16.043
36001DOPC   GL1 7671  10.924   3.624  15.663
36001DOPC   GL2 7672  10.744   3.454  15.593
36001DOPC   C1A 7673  11.184   3.714  15.343
36001DOPC   D2A 7674  11.424   3.944  14.943
36001DOPC   C3A 7675  11.454   4.224  14.603
36001DOPC   C4A 7676  11.534   4.684  14.453
36001DOPC   C1B 7677  10.934   3.244  15.233
36001DOPC   D2B 7678  11.084   2.804  15.073
36001DOPC   C3B 7679  10.954   2.674  14.633
36001DOPC   C4B 7680  10.724   2.314  14.323
36002DOPC   NC3 7681  16.484   7.464  14.603
36002DOPC   PO4 7682  16.094   7.474  14.623
36002DOPC   GL1 7683  16.084   7.464  14.213
36002DOPC   GL2 7684  15.924   7.274  14.193
36002DOPC   C1A 7685  16.104   7.754  13.923
36002DOPC   D2A 7686  15.874   0.394  13.713
36002DOPC   C3A 7687  15.464   0.404  13.473
36002DOPC   C4A 7688  15.134   0.207  13.123
36002DOPC   C1B 7689  15.614   7.314  13.873
36002DOPC   D2B 7690  15.374   7.504  13.453
36002DOPC   C3B 7691  15.464   7.664  13.023
36002DOPC   C4B 7692  15.654   7.694  12.573
36003DOPC   NC3 7693   5.984   1.694  13.953
36003DOPC   PO4 7694   6.064   1.454  14.273
36003DOPC   GL1 7695   6.074   1.194  14.003
36003DOPC   GL2 7696   6.224   0.994  13.953
36003DOPC   C1A 7697   5.924   1.264  13.603
36003DOPC   D2A 7698   5.894   1.584  13.243
36003DOPC   C3A 7699   6.284   1.564  13.033
36003DOPC   C4A 7700   6.624   1.534  12.743
36003DOPC   C1B 7701   6.464   0.804  13.643
36003DOPC   D2B 7702   6.644   0.764  13.193
36003DOPC   C3B 7703   6.704   0.764  12.723
36003DOPC   C4B 7704   6.794   0.804  12.243
36004DOPC   NC3 7705  23.354   1.634   7.903
36004DOPC   PO4 7706  23.224   1.764   7.563
36004DOPC   GL1 7707  23.244   1.554   7.203
36004DOPC   GL2 7708  23.374   1.864   7.153
36004DOPC   C1A 7709  22.924   1.564   6.913
36004DOPC   D2A 7710  22.654   1.664   6.513
36004DOPC   C3A 7711  22.404   1.704   6.113
36004DOPC   C4A 7712  22.044   1.814   5.833
36004DOPC   C1B 7713  23.154   2.014   6.803
36004DOPC   D2B 7714  22.894   2.114   6.353
36004DOPC   C3B 7715  22.914   2.024   5.933
36004DOPC   C4B 7716  23.054   1.674   5.563
36005DOPC   NC3 7717   0.174   4.914   9.153
36005DOPC   PO4 7718   0.154   4.494   9.103
36005DOPC   GL1 7719   0.364   4.304   8.773
36005DOPC   GL2 7720   0.534   4.194   8.963
36005DOPC   C1A 7721   0.644   4.524   8.523
36005DOPC   D2A 7722   1.134   4.624   8.523
36005DOPC   C3A 7723   1.294   4.654   8.133
36005DOPC   C4A 7724   1.574   4.804   7.813
36005DOPC   C1B 7725   0.954   4.174   8.773
36005DOPC   D2B 7726   1.404   4.084   8.693
36005DOPC   C3B 7727   1.514   4.234   8.333
36005DOPC   C4B 7728   1.674   4.294   7.873
36006DOPC   NC3 7729   3.214   4.274  12.263
36006DOPC   PO4 7730   3.024   4.234  11.923
36006DOPC   GL1 7731   3.204   4.294  11.633
36006DOPC   GL2 7732   3.074   4.324  11.383
36006DOPC   C1A 7733   3.594   4.494  11.373
36006DOPC   D2A 7734   4.054   4.674  11.243
36006DOPC   C3A 7735   4.264   4.724  10.863
36006DOPC   C4A 7736   4.504   4.734  10.423
36006DOPC   C1B 7737   3.324   4.064  11.233
36006DOPC   D2B 7738   3.374   3.644  11.043
36006DOPC   C3B 7739   3.754   3.674  10.773
36006DOPC   C4B 7740   4.164   3.564  10.523
36007DOPC   NC3 7741  19.864   1.484  10.303
36007DOPC   PO4 7742  19.764   1.874  10.333
36007DOPC   GL1 7743  19.434   2.054  10.213
36007DOPC   GL2 7744  19.454   1.994   9.943
36007DOPC   C1A 7745  19.024   2.014  10.083
36007DOPC   D2A 7746  18.704   2.204   9.793
36007DOPC   C3A 7747  18.394   2.094   9.573
36007DOPC   C4A 7748  17.944   2.024   9.363
36007DOPC   C1B 7749  19.094   1.934   9.583
36007DOPC   D2B 7750  18.744   1.994   9.263
36007DOPC   C3B 7751  18.824   2.174   8.813
36007DOPC   C4B 7752  18.794   2.564   8.533
36008DOPC   NC3 7753  18.364   7.094  13.093
36008DOPC   PO4 7754  18.074   6.964  13.353
36008DOPC   GL1 7755  17.674   7.144  13.233
36008DOPC   GL2 7756  17.664   6.804  13.233
36008DOPC   C1A 7757  17.564   7.304  12.883
36008DOPC   D2A 7758  17.264   7.194  12.483
36008DOPC   C3A 7759  16.844   7.214  12.313
36008DOPC   C4A 7760  16.744   7.434  11.913
36008DOPC   C1B 7761  17.474   6.714  12.883
36008DOPC   D2B 7762  17.094   6.554  12.543
36008DOPC   C3B 7763  16.854   6.764  12.173
36008DOPC   C4B 7764  16.494   6.664  11.813
36009DOPC   NC3 7765  16.244   1.484  15.193
36009DOPC   PO4 7766  15.984   1.304  14.933
36009DOPC   GL1 7767  15.884   1.504  14.553
36009DOPC   GL2 7768  15.684   1.614  14.743
36009DOPC   C1A 7769  15.624   1.274  14.253
36009DOPC   D2A 7770  15.374   0.864  14.353
36009DOPC   C3A 7771  14.994   0.674  14.163
36009DOPC   C4A 7772  14.514   0.604  13.933
36009DOPC   C1B 7773  15.284   1.474  14.603
36009DOPC   D2B 7774  15.124   1.264  14.183
36009DOPC   C3B 7775  14.684   1.044  14.243
36009DOPC   C4B 7776  14.204   0.884  14.263
36010DOPC   NC3 7777  21.404   3.634   9.063
36010DOPC   PO4 7778  21.564   3.404   8.753
36010DOPC   GL1 7779  21.174   3.234   8.523
36010DOPC   GL2 7780  21.294   3.384   8.303
36010DOPC   C1A 7781  20.734   3.114   8.473
36010DOPC   D2A 7782  20.274   3.244   8.313
36010DOPC   C3A 7783  20.124   2.924   8.123
36010DOPC   C4A 7784  20.174   2.464   7.993
36010DOPC   C1B 7785  20.874   3.584   8.223
36010DOPC   D2B 7786  20.604   4.024   8.163
36010DOPC   C3B 7787  20.384   4.174   7.773
36010DOPC   C4B 7788  20.374   3.984   7.363
36011DOPC   NC3 7789   4.874   6.944  13.533
36011DOPC   PO4 7790   5.264   6.934  13.513
36011DOPC   GL1 7791   5.514   7.264  13.243
36011DOPC   GL2 7792   5.524   7.064  13.113
36011DOPC   C1A 7793   5.894   7.394  13.103
36011DOPC   D2A 7794   6.194   7.714  12.823
36011DOPC   C3A 7795   6.514   7.694  12.513
36011DOPC   C4A 7796   6.674   7.714  12.063
36011DOPC   C1B 7797   5.974   6.904  13.093
36011DOPC   D2B 7798   6.404   7.064  13.243
36011DOPC   C3B 7799   6.644   6.904  12.883
36011DOPC   C4B 7800   6.944   6.764  12.513
36012DOPC   NC3 7801   4.384   6.894  13.273
36012DOPC   PO4 7802   4.554   7.254  13.163
36012DOPC   GL1 7803   4.604   7.304  12.723
36012DOPC   GL2 7804   4.734   7.034  12.613
36012DOPC   C1A 7805   4.874   7.644  12.673
36012DOPC   D2A 7806   5.234   0.177  12.553
36012DOPC   C3A 7807   5.644   0.177  12.323
36012DOPC   C4A 7808   5.614   7.654  11.973
36012DOPC   C1B 7809   5.154   7.084  12.513
36012DOPC   D2B 7810   5.534   7.194  12.183
36012DOPC   C3B 7811   5.654   7.034  11.763
36012DOPC   C4B 7812   5.894   6.834  11.363
36013DOPC   NC3 7813   9.274   4.274  15.913
36013DOPC   PO4 7814   9.624   4.344  16.003
36013DOPC   GL1 7815   9.874   4.524  15.713
36013DOPC   GL2 7816   9.944   4.314  15.533
36013DOPC   C1A 7817  10.134   4.784  15.563
36013DOPC   D2A 7818  10.344   4.804  15.113
36013DOPC   C3A 7819  10.654   4.794  14.743
36013DOPC   C4A 7820  10.994   4.714  14.383
36013DOPC   C1B 7821   9.744   4.614  15.303
36013DOPC   D2B 7822   9.464   4.914  15.073
36013DOPC   C3B 7823   9.464   5.424  15.173
36013DOPC   C4B 7824   9.094   5.704  15.333
36014DOPC   NC3 7825  22.704   3.474   7.593
36014DOPC   PO4 7826  22.354   3.654   7.793
36014DOPC   GL1 7827  22.014   3.714   7.513
36014DOPC   GL2 7828  22.044   4.004   7.523
36014DOPC   C1A 7829  21.664   3.464   7.343
36014DOPC   D2A 7830  21.194   3.274   7.253
36014DOPC   C3A 7831  21.104   2.884   6.983
36014DOPC   C4A 7832  21.034   2.494   6.743
36014DOPC   C1B 7833  21.884   4.264   7.173
36014DOPC   D2B 7834  21.984   4.324   6.673
36014DOPC   C3B 7835  21.804   4.314   6.253
36014DOPC   C4B 7836  21.634   4.474   5.803
36015DOPC   NC3 7837   2.484   5.754  11.653
36015DOPC   PO4 7838   2.494   6.004  11.363
36015DOPC   GL1 7839   2.904   6.144  11.203
36015DOPC   GL2 7840   2.834   5.904  11.043
36015DOPC   C1A 7841   3.094   6.354  10.863
36015DOPC   D2A 7842   3.354   6.724  10.633
36015DOPC   C3A 7843   3.794   6.644  10.583
36015DOPC   C4A 7844   4.134   6.664  10.183
36015DOPC   C1B 7845   3.274   5.834  10.893
36015DOPC   D2B 7846   3.684   5.574  10.893
36015DOPC   C3B 7847   3.924   5.414  10.573
36015DOPC   C4B 7848   4.164   5.264  10.153
36016DOPC   NC3 7849  14.864   5.444  14.943
36016DOPC   PO4 7850  14.554   5.504  15.203
36016DOPC   GL1 7851  14.384   5.404  14.823
36016DOPC   GL2 7852  14.214   5.584  14.903
36016DOPC   C1A 7853  14.244   5.044  14.723
36016DOPC   D2A 7854  14.044   4.654  14.463
36016DOPC   C3A 7855  13.684   4.464  14.213
36016DOPC   C4A 7856  13.194   4.474  14.093
36016DOPC   C1B 7857  14.154   6.024  14.753
36016DOPC   D2B 7858  13.994   6.174  14.293
36016DOPC   C3B 7859  13.634   6.094  14.083
36016DOPC   C4B 7860  13.164   5.874  14.103
36017DOPC   NC3 7861   8.814   4.994  16.083
36017DOPC   PO4 7862   8.914   5.204  15.793
36017DOPC   GL1 7863   9.274   5.114  15.613
36017DOPC   GL2 7864   9.144   4.934  15.413
36017DOPC   C1A 7865   9.734   5.114  15.463
36017DOPC   D2A 7866   9.894   5.124  14.993
36017DOPC   C3A 7867   9.994   5.594  14.933
36017DOPC   C4A 7868  10.164   5.954  14.603
36017DOPC   C1B 7869   9.024   5.244  15.083
36017DOPC   D2B 7870   8.784   5.394  14.583
36017DOPC   C3B 7871   9.004   5.634  14.253
36017DOPC   C4B 7872   9.384   5.834  14.153
36018DOPC   NC3 7873  24.820   6.964   8.343
36018DOPC   PO4 7874  24.950   6.724   8.623
36018DOPC   GL1 7875   0.274   6.664   8.423
36018DOPC   GL2 7876   0.414   6.474   8.643
36018DOPC   C1A 7877   0.664   6.854   8.293
36018DOPC   D2A 7878   1.024   7.124   8.193
36018DOPC   C3A 7879   1.354   7.034   7.863
36018DOPC   C4A 7880   1.544   6.824   7.383
36018DOPC   C1B 7881   0.804   6.414   8.583
36018DOPC   D2B 7882   1.304   6.444   8.623
36018DOPC   C3B 7883   1.694   6.354   8.373
36018DOPC   C4B 7884   2.134   6.344   8.153
36019DOPC   NC3 7885   2.824   4.604  11.673
36019DOPC   PO4 7886   2.614   4.664  11.413
36019DOPC   GL1 7887   2.784   4.504  11.123
36019DOPC   GL2 7888   2.524   4.344  11.033
36019DOPC   C1A 7889   3.154   4.594  11.003
36019DOPC   D2A 7890   3.604   4.584  10.793
36019DOPC   C3A 7891   3.974   4.374  10.643
36019DOPC   C4A 7892   4.404   4.224  10.533
36019DOPC   C1B 7893   2.674   4.434  10.613
36019DOPC   D2B 7894   2.974   4.154  10.313
36019DOPC   C3B 7895   3.324   4.254  10.023
36019DOPC   C4B 7896   3.784   4.274   9.773
36020DOPC   NC3 7897  10.604   0.644  16.513
36020DOPC   PO4 7898  10.854   0.334  16.433
36020DOPC   GL1 7899  10.864   0.344  16.013
36020DOPC   GL2 7900  10.754   0.147  15.853
36020DOPC   C1A 7901  10.904   0.614  15.573
36020DOPC   D2A 7902  10.574   0.404  15.323
36020DOPC   C3A 7903  10.324   0.434  14.923
36020DOPC   C4A 7904  10.324   0.534  14.413
36020DOPC   C1B 7905  10.944   0.067  15.373
36020DOPC   D2B 7906  10.864   0.294  14.883
36020DOPC   C3B 7907  10.644   0.187  14.453
36020DOPC   C4B 7908  10.274   0.067  14.193
36021DOPC   NC3 7909  19.594   1.204  11.193
36021DOPC   PO4 7910  19.274   1.344  11.283
36021DOPC   GL1 7911  18.824   1.274  11.213
36021DOPC   GL2 7912  18.674   1.514  11.403
36021DOPC   C1A 7913  18.514   1.204  11.023
36021DOPC   D2A 7914  18.064   1.074  10.763
36021DOPC   C3A 7915  17.774   0.904  10.513
36021DOPC   C4A 7916  17.354   0.674  10.313
36021DOPC   C1B 7917  18.374   1.174  11.533
36021DOPC   D2B 7918  17.994   0.994  11.713
36021DOPC   C3B 7919  17.644   1.094  12.013
36021DOPC   C4B 7920  17.384   1.234  12.363
36022DOPC   NC3 7921  18.524   6.724  12.023
36022DOPC   PO4 7922  18.704   6.994  12.203
36022DOPC   GL1 7923  18.544   7.324  12.013
36022DOPC   GL2 7924  18.294   7.224  12.113
36022DOPC   C1A 7925  18.454   7.554  11.693
36022DOPC   D2A 7926  18.224   7.414  11.293
36022DOPC   C3A 7927  17.884   7.664  11.083
36022DOPC   C4A 7928  17.544   7.694  10.783
36022DOPC   C1B 7929  17.974   7.514  11.983
36022DOPC   D2B 7930  17.714   0.067  11.983
36022DOPC   C3B 7931  17.334   0.294  11.873
36022DOPC   C4B 7932  16.974   0.584  11.663
36023DOPC   NC3 7933   0.154   1.844   8.363
36023DOPC   PO4 7934   0.214   2.084   8.653
36023DOPC   GL1 7935   0.584   2.024   8.483
36023DOPC   GL2 7936   0.404   2.174   8.223
36023DOPC   C1A 7937   0.864   2.034   8.143
36023DOPC   D2A 7938   0.814   2.204   7.673
36023DOPC   C3A 7939   0.644   2.254   7.253
36023DOPC   C4A 7940   0.674   2.644   6.883
36023DOPC   C1B 7941   0.524   2.504   8.013
36023DOPC   D2B 7942   0.874   2.884   7.763
36023DOPC   C3B 7943   1.364   2.834   7.793
36023DOPC   C4B 7944   1.814   2.974   7.633
36024DOPC   NC3 7945  17.764   2.224  12.943
36024DOPC   PO4 7946  17.674   1.934  13.193
36024DOPC   GL1 7947  17.204   1.904  13.183
36024DOPC   GL2 7948  17.284   2.064  13.003
36024DOPC   C1A 7949  16.804   1.844  12.973
36024DOPC   D2A 7950  16.444   1.844  12.633
36024DOPC   C3A 7951  16.084   2.204  12.523
36024DOPC   C4A 7952  15.894   2.634  12.353
36024DOPC   C1B 7953  17.074   2.264  12.683
36024DOPC   D2B 7954  16.964   2.474  12.283
36024DOPC   C3B 7955  16.694   2.724  12.043
36024DOPC   C4B 7956  16.214   2.914  11.953
36025DOPC   NC3 7957  15.574   6.704  15.123
36025DOPC   PO4 7958  15.234   6.644  14.993
36025DOPC   GL1 7959  15.164   6.414  14.623
36025DOPC   GL2 7960  15.264   6.594  14.443
36025DOPC   C1A 7961  14.854   6.344  14.353
36025DOPC   D2A 7962  14.824   6.144  13.853
36025DOPC   C3A 7963  14.494   6.344  13.593
36025DOPC   C4A 7964  14.154   6.714  13.423
36025DOPC   C1B 7965  15.144   6.544  14.003
36025DOPC   D2B 7966  15.094   6.524  13.493
36025DOPC   C3B 7967  14.864   6.184  13.243
36025DOPC   C4B 7968  14.644   5.794  12.963
36026DOPC   NC3 7969  16.904   4.564  13.903
36026DOPC   PO4 7970  17.114   4.654  13.573
36026DOPC   GL1 7971  17.144   4.954  13.283
36026DOPC   GL2 7972  16.874   4.944  13.143
36026DOPC   C1A 7973  17.054   5.374  13.373
36026DOPC   D2A 7974  16.884   5.614  13.813
36026DOPC   C3A 7975  16.624   6.044  13.713
36026DOPC   C4A 7976  16.464   6.484  13.453
36026DOPC   C1B 7977  16.614   5.304  13.073
36026DOPC   D2B 7978  16.154   5.564  13.023
36026DOPC   C3B 7979  16.044   5.584  12.583
36026DOPC   C4B 7980  15.964   5.674  12.113
36027DOPC   NC3 7981  22.564   5.304   7.693
36027DOPC   PO4 7982  22.944   5.234   7.543
36027DOPC   GL1 7983  23.214   5.324   7.203
36027DOPC   GL2 7984  23.174   5.024   7.113
36027DOPC   C1A 7985  23.024   5.654   6.983
36027DOPC   D2A 7986  22.904   5.864   6.503
36027DOPC   C3A 7987  23.014   5.674   6.143
36027DOPC   C4A 7988  22.944   5.514   5.743
36027DOPC   C1B 7989  23.474   4.774   6.863
36027DOPC   D2B 7990  23.630   4.544   6.383
36027DOPC   C3B 7991  23.760   4.154   6.523
36027DOPC   C4B 7992  23.710   3.804   6.853
36028DOPC   NC3 7993   6.344   1.094  14.483
36028DOPC   PO4 7994   6.604   1.314  14.273
36028DOPC   GL1 7995   6.644   1.294  13.883
36028DOPC   GL2 7996   6.694   1.564  13.793
36028DOPC   C1A 7997   6.894   1.114  13.603
36028DOPC   D2A 7998   7.114   0.924  13.233
36028DOPC   C3A 7999   7.044   0.464  13.033
36028DOPC   C4A 8000   6.944   0.334  12.583
36028DOPC   C1B 8001   6.734   1.764  13.393
36028DOPC   D2B 8002   6.804   2.034  12.933
36028DOPC   C3B 8003   6.884   1.994  12.443
36028DOPC   C4B 8004   6.944   2.114  11.933
36029DOPC   NC3 8005  16.304   4.094  14.103
36029DOPC   PO4 8006  16.244   3.874  14.403
36029DOPC   GL1 8007  16.194   3.604  14.023
36029DOPC   GL2 8008  15.924   3.524  14.173
36029DOPC   C1A 8009  16.164   3.464  13.603
36029DOPC   D2A 8010  16.064   2.954  13.463
36029DOPC   C3A 8011  15.804   2.604  13.253
36029DOPC   C4A 8012  15.354   2.384  13.163
36029DOPC   C1B 8013  15.604   3.554  13.913
36029DOPC   D2B 8014  15.194   3.674  13.623
36029DOPC   C3B 8015  14.874   4.014  13.593
36029DOPC   C4B 8016  14.524   4.294  13.723
36030DOPC   NC3 8017   8.464   3.544  15.763
36030DOPC   PO4 8018   8.794   3.344  15.803
36030DOPC   GL1 8019   8.984   3.154  15.603
36030DOPC   GL2 8020   8.854   2.954  15.463
36030DOPC   C1A 8021   9.244   3.114  15.143
36030DOPC   D2A 8022   9.364   2.954  14.743
36030DOPC   C3A 8023   9.074   3.194  14.563
36030DOPC   C4A 8024   8.694   3.364  14.333
36030DOPC   C1B 8025   8.854   2.894  14.953
36030DOPC   D2B 8026   8.714   2.894  14.443
36030DOPC   C3B 8027   9.054   2.924  14.093
36030DOPC   C4B 8028   9.404   3.024  13.793
36031DOPC   NC3 8029   0.364   2.344   9.413
36031DOPC   PO4 8030   0.754   2.334   9.513
36031DOPC   GL1 8031   1.164   2.334   9.593
36031DOPC   GL2 8032   1.304   2.144   9.393
36031DOPC   C1A 8033   1.584   2.444   9.533
36031DOPC   D2A 8034   1.794   2.814   9.353
36031DOPC   C3A 8035   2.234   2.994   9.273
36031DOPC   C4A 8036   2.744   2.974   9.193
36031DOPC   C1B 8037   1.664   2.314   9.103
36031DOPC   D2B 8038   1.984   2.144   8.813
36031DOPC   C3B 8039   2.384   2.224   8.563
36031DOPC   C4B 8040   2.814   2.194   8.383
36032DOPC   NC3 8041  12.864   5.064  16.163
36032DOPC   PO4 8042  13.124   5.334  16.033
36032DOPC   GL1 8043  13.054   5.554  15.733
36032DOPC   GL2 8044  12.904   5.734  15.753
36032DOPC   C1A 8045  13.194   5.634  15.303
36032DOPC   D2A 8046  13.294   5.684  14.763
36032DOPC   C3A 8047  13.664   5.794  14.493
36032DOPC   C4A 8048  13.974   5.624  14.183
36032DOPC   C1B 8049  12.734   5.804  15.403
36032DOPC   D2B 8050  12.844   5.884  14.913
36032DOPC   C3B 8051  13.064   6.074  14.563
36032DOPC   C4B 8052  13.054   6.374  14.073
36033DOPC   NC3 8053  19.544   6.574  11.223
36033DOPC   PO4 8054  19.784   6.484  10.883
36033DOPC   GL1 8055  19.544   6.504  10.533
36033DOPC   GL2 8056  19.374   6.394  10.743
36033DOPC   C1A 8057  19.174   6.564  10.203
36033DOPC   D2A 8058  18.894   6.524   9.833
36033DOPC   C3A 8059  18.524   6.404   9.483
36033DOPC   C4A 8060  18.094   6.554   9.313
36033DOPC   C1B 8061  18.974   6.324  10.633
36033DOPC   D2B 8062  18.764   6.074  10.263
36033DOPC   C3B 8063  19.004   5.714  10.133
36033DOPC   C4B 8064  19.184   5.194  10.123
36034DOPC   NC3 8065  18.694   6.484  12.523
36034DOPC   PO4 8066  18.424   6.244  12.433
36034DOPC   GL1 8067  18.064   6.304  12.223
36034DOPC   GL2 8068  18.094   6.484  12.013
36034DOPC   C1A 8069  17.714   6.084  12.243
36034DOPC   D2A 8070  17.204   6.084  12.233
36034DOPC   C3A 8071  16.994   5.994  11.773
36034DOPC   C4A 8072  16.894   5.934  11.263
36034DOPC   C1B 8073  18.014   6.944  11.873
36034DOPC   D2B 8074  17.814   7.324  11.573
36034DOPC   C3B 8075  17.534   7.214  11.133
36034DOPC   C4B 8076  17.374   7.154  10.673
36035DOPC   NC3 8077  15.594   4.574  14.503
36035DOPC   PO4 8078  15.304   4.524  14.863
36035DOPC   GL1 8079  15.044   4.144  14.813
36035DOPC   GL2 8080  14.904   4.284  14.553
36035DOPC   C1A 8081  14.614   4.184  14.963
36035DOPC   D2A 8082  14.134   4.214  14.823
36035DOPC   C3A 8083  13.744   4.104  14.643
36035DOPC   C4A 8084  13.414   3.914  14.263
36035DOPC   C1B 8085  14.474   4.214  14.393
36035DOPC   D2B 8086  14.134   4.304  14.073
36035DOPC   C3B 8087  13.794   4.184  13.843
36035DOPC   C4B 8088  13.594   4.284  13.403
36036DOPC   NC3 8089  15.844   2.974  14.933
36036DOPC   PO4 8090  15.754   2.674  14.823
36036DOPC   GL1 8091  15.664   2.654  14.433
36036DOPC   GL2 8092  15.624   2.834  14.253
36036DOPC   C1A 8093  15.254   2.404  14.413
36036DOPC   D2A 8094  14.894   2.254  14.103
36036DOPC   C3A 8095  14.764   2.044  13.763
36036DOPC   C4A 8096  14.734   1.854  13.283
36036DOPC   C1B 8097  15.324   2.664  14.033
36036DOPC   D2B 8098  14.904   2.644  13.793
36036DOPC   C3B 8099  14.464   2.504  13.893
36036DOPC   C4B 8100  14.094   2.294  13.763
36037DOPS   CNO 8101  20.584   3.774  10.283
36037DOPS   PO4 8102  20.294   3.954  10.173
36037DOPS   GL1 8103  19.994   3.894   9.893
36037DOPS   GL2 8104  19.964   4.154   9.923
36037DOPS   C1A 8105  19.714   3.674   9.633
36037DOPS   D2A 8106  19.284   3.564   9.443
36037DOPS   C3A 8107  19.024   3.784   9.183
36037DOPS   C4A 8108  18.594   3.924   8.943
36037DOPS   C1B 8109  19.594   4.324   9.743
36037DOPS   D2B 8110  19.214   4.534   9.533
36037DOPS   C3B 8111  18.994   4.874   9.253
36037DOPS   C4B 8112  19.084   5.004   8.773
36038DOPS   CNO 8113   3.654   2.924  12.203
36038DOPS   PO4 8114   4.024   2.864  12.183
36038DOPS   GL1 8115   4.104   2.814  11.803
36038DOPS   GL2 8116   3.954   2.614  11.713
36038DOPS   C1A 8117   4.364   3.104  11.553
36038DOPS   D2A 8118   4.634   3.074  11.133
36038DOPS   C3A 8119   4.554   2.814  10.813
36038DOPS   C4A 8120   4.254   2.334  10.733
36038DOPS   C1B 8121   4.004   2.254  11.393
36038DOPS   D2B 8122   4.034   1.964  11.013
36038DOPS   C3B 8123   4.454   1.654  10.933
36038DOPS   C4B 8124   4.924   1.624  10.883
36039DOPS   CNO 8125   4.914   3.294  13.743
36039DOPS   PO4 8126   5.164   3.584  13.683
36039DOPS   GL1 8127   5.564   3.564  13.493
36039DOPS   GL2 8128   5.494   3.274  13.653
36039DOPS   C1A 8129   5.924   3.594  13.313
36039DOPS   D2A 8130   6.424   3.574  13.183
36039DOPS   C3A 8131   6.884   3.654  13.223
36039DOPS   C4A 8132   7.184   3.634  12.903
36039DOPS   C1B 8133   5.824   2.994  13.483
36039DOPS   D2B 8134   5.974   2.624  13.203
36039DOPS   C3B 8135   6.124   2.994  12.943
36039DOPS   C4B 8136   6.174   3.434  12.723
36040DOPS   CNO 8137  22.134   7.354   8.573
36040DOPS   PO4 8138  21.814   7.194   8.453
36040DOPS   GL1 8139  21.664   7.144   8.063
36040DOPS   GL2 8140  21.384   7.164   8.153
36040DOPS   C1A 8141  21.684   6.914   7.673
36040DOPS   D2A 8142  21.394   6.644   7.313
36040DOPS   C3A 8143  21.264   6.804   6.893
36040DOPS   C4A 8144  21.314   7.034   6.403
36040DOPS   C1B 8145  21.024   7.194   7.923
36040DOPS   D2B 8146  20.784   7.314   7.513
36040DOPS   C3B 8147  20.894   7.594   7.163
36040DOPS   C4B 8148  20.844   7.824   6.773
36041DOPS   CNO 8149   3.154   6.014  12.323
36041DOPS   PO4 8150   3.364   6.334  12.273
36041DOPS   GL1 8151   3.514   6.404  11.883
36041DOPS   GL2 8152   3.294   6.414  11.753
36041DOPS   C1A 8153   3.824   6.114  11.733
36041DOPS   D2A 8154   4.124   5.794  11.663
36041DOPS   C3A 8155   4.514   5.594  11.463
36041DOPS   C4A 8156   4.974   5.404  11.353
36041DOPS   C1B 8157   3.304   6.324  11.343
36041DOPS   D2B 8158   3.604   6.324  10.953
36041DOPS   C3B 8159   3.794   6.024  10.663
36041DOPS   C4B 8160   4.224   5.784  10.473
36042DOPS   CNO 8161   6.704   7.684  15.033
36042DOPS   PO4 8162   7.044   7.704  14.893
36042DOPS   GL1 8163   7.214   7.814  14.543
36042DOPS   GL2 8164   7.014   0.127  14.303
36042DOPS   C1A 8165   7.584   7.714  14.433
36042DOPS   D2A 8166   7.824   7.714  14.033
36042DOPS   C3A 8167   8.044   7.504  13.663
36042DOPS   C4A 8168   8.244   7.264  13.303
36042DOPS   C1B 8169   7.314   0.077  14.033
36042DOPS   D2B 8170   7.704   0.187  13.683
36042DOPS   C3B 8171   7.984   0.214  13.343
36042DOPS   C4B 8172   7.914   0.027  12.813
36043DOPS   CNO 8173   3.084   7.404  11.933
36043DOPS   PO4 8174   3.264   7.694  11.813
36043DOPS   GL1 8175   3.554   0.057  11.473
36043DOPS   GL2 8176   3.474   7.674  11.283
36043DOPS   C1A 8177   3.704   0.354  11.243
36043DOPS   D2A 8178   3.854   0.384  10.773
36043DOPS   C3A 8179   4.204   0.384  10.383
36043DOPS   C4A 8180   4.564   0.574  10.093
36043DOPS   C1B 8181   3.614   7.714  10.873
36043DOPS   D2B 8182   3.594   0.147  10.443
36043DOPS   C3B 8183   3.824   0.067  10.053
36043DOPS   C4B 8184   4.174   0.324   9.813
36044DOPS   CNO 8185  23.840   3.404   7.993
36044DOPS   PO4 8186  24.030   3.674   7.783
36044DOPS   GL1 8187  24.290   3.624   7.503
36044DOPS   GL2 8188  24.450   3.454   7.653
36044DOPS   C1A 8189  24.220   3.684   7.023
36044DOPS   D2A 8190  24.110   3.694   6.533
36044DOPS   C3A 8191  24.010   3.954   6.113
36044DOPS   C4A 8192  24.290   4.064   5.703
36044DOPS   C1B 8193  24.640   3.564   7.243
36044DOPS   D2B 8194  24.700   3.644   6.773
36044DOPS   C3B 8195  24.990   3.484   6.393
36044DOPS   C4B 8196   0.224   3.444   6.003
36045DOPS   CNO 8197   2.294   2.994  11.243
36045DOPS   PO4 8198   2.124   3.214  11.003
36045DOPS   GL1 8199   2.204   3.204  10.583
36045DOPS   GL2 8200   2.084   3.444  10.553
36045DOPS   C1A 8201   2.584   3.244  10.413
36045DOPS   D2A 8202   3.014   3.264  10.383
36045DOPS   C3A 8203   3.264   3.434  10.043
36045DOPS   C4A 8204   3.544   3.814  10.013
36045DOPS   C1B 8205   2.234   3.604  10.203
36045DOPS   D2B 8206   2.014   3.704   9.733
36045DOPS   C3B 8207   1.994   3.604   9.233
36045DOPS   C4B 8208   2.024   3.454   8.803
36046DOPS   CNO 8209  14.534   7.074  15.813
36046DOPS   PO4 8210  14.244   7.034  15.573
36046DOPS   GL1 8211  14.374   7.134  15.133
36046DOPS   GL2 8212  14.414   6.864  15.073
36046DOPS   C1A 8213  14.184   7.414  14.833
36046DOPS   D2A 8214  13.954   7.824  14.583
36046DOPS   C3A 8215  13.754   0.047  14.133
36046DOPS   C4A 8216  13.644   0.334  13.693
36046DOPS   C1B 8217  14.204   6.934  14.723
36046DOPS   D2B 8218  13.994   6.744  14.313
36046DOPS   C3B 8219  14.224   6.904  13.953
36046DOPS   C4B 8220  14.694   6.764  13.793
36047DOPS   CNO 8221   6.904   0.674  15.023
36047DOPS   PO4 8222   7.044   0.364  14.853
36047DOPS   GL1 8223   7.344   0.414  14.533
36047DOPS   GL2 8224   7.154   0.544  14.363
36047DOPS   C1A 8225   7.714   0.374  14.313
36047DOPS   D2A 8226   7.914   0.634  13.893
36047DOPS   C3A 8227   8.114   0.694  13.443
36047DOPS   C4A 8228   8.354   0.884  13.073
36047DOPS   C1B 8229   7.244   0.594  13.953
36047DOPS   D2B 8230   7.534   0.694  13.563
36047DOPS   C3B 8231   7.764   1.074  13.373
36047DOPS   C4B 8232   8.054   1.414  13.263
36048DOPS   CNO 8233  24.460   2.204   8.313
36048DOPS   PO4 8234  24.210   2.094   8.093
36048DOPS   GL1 8235  24.250   2.134   7.653
36048DOPS   GL2 8236  24.190   2.444   7.603
36048DOPS   C1A 8237  24.310   1.874   7.303
36048DOPS   D2A 8238  24.370   1.914   6.783
36048DOPS   C3A 8239  24.830   1.914   6.663
36048DOPS   C4A 8240   0.204   2.014   6.373
36048DOPS   C1B 8241  24.530   2.654   7.273
36048DOPS   D2B 8242  24.830   2.604   6.833
36048DOPS   C3B 8243  24.540   2.394   6.593
36048DOPS   C4B 8244  24.120   2.234   6.433
36049DOPS   CNO 8245  21.374   2.644   9.433
36049DOPS   PO4 8246  21.084   2.654   9.163
36049DOPS   GL1 8247  20.984   2.814   8.733
36049DOPS   GL2 8248  20.704   2.854   8.863
36049DOPS   C1A 8249  20.904   2.614   8.383
36049DOPS   D2A 8250  20.584   2.774   8.103
36049DOPS   C3A 8251  20.564   3.144   7.823
36049DOPS   C4A 8252  20.474   3.624   7.823
36049DOPS   C1B 8253  20.394   2.724   8.543
36049DOPS   D2B 8254  19.944   2.554   8.473
36049DOPS   C3B 8255  19.604   2.744   8.273
36049DOPS   C4B 8256  19.144   2.904   8.123
36050DOPS   CNO 8257  13.824   0.057  15.823
36050DOPS   PO4 8258  14.014   0.057  15.543
36050DOPS   GL1 8259  13.704   0.167  15.223
36050DOPS   GL2 8260  13.484   0.254  15.443
36050DOPS   C1A 8261  13.734   7.664  14.993
36050DOPS   D2A 8262  13.694   7.344  14.643
36050DOPS   C3A 8263  13.474   7.444  14.253
36050DOPS   C4A 8264  13.204   7.214  13.943
36050DOPS   C1B 8265  13.154   7.824  15.343
36050DOPS   D2B 8266  12.654   7.684  15.403
36050DOPS   C3B 8267  12.294   7.544  15.123
36050DOPS   C4B 8268  12.004   7.654  14.803
36051DOPS   CNO 8269  12.244   0.087  16.533
36051DOPS   PO4 8270  12.364   0.147  16.163
36051DOPS   GL1 8271  12.024   0.214  15.913
36051DOPS   GL2 8272  11.834   7.744  15.963
36051DOPS   C1A 8273  11.884   0.354  15.603
36051DOPS   D2A 8274  11.854   0.654  15.213
36051DOPS   C3A 8275  11.974   1.044  15.053
36051DOPS   C4A 8276  12.134   1.394  14.783
36051DOPS   C1B 8277  11.664   7.424  15.723
36051DOPS   D2B 8278  11.254   7.494  15.393
36051DOPS   C3B 8279  11.244   7.764  15.013
36051DOPS   C4B 8280  11.324   0.007  14.593
36052DOPS   CNO 8281  19.124   4.784  11.463
36052DOPS   PO4 8282  19.114   4.624  11.793
36052DOPS   GL1 8283  18.754   4.634  11.643
36052DOPS   GL2 8284  18.654   4.954  11.623
36052DOPS   C1A 8285  18.534   4.444  11.303
36052DOPS   D2A 8286  18.594   4.234  10.823
36052DOPS   C3A 8287  18.584   4.624  10.743
36052DOPS   C4A 8288  18.334   4.924  11.053
36052DOPS   C1B 8289  18.244   5.044  11.533
36052DOPS   D2B 8290  17.884   5.294  11.283
36052DOPS   C3B 8291  17.634   5.584  11.013
36052DOPS   C4B 8292  17.654   5.814  10.603
36053DOPS   CNO 8293  18.714   2.724  11.993
36053DOPS   PO4 8294  18.324   2.634  12.043
36053DOPS   GL1 8295  17.964   2.464  11.953
36053DOPS   GL2 8296  17.974   2.804  12.153
36053DOPS   C1A 8297  17.614   2.504  11.643
36053DOPS   D2A 8298  17.154   2.474  11.493
36053DOPS   C3A 8299  17.024   2.734  11.153
36053DOPS   C4A 8300  17.094   3.084  10.813
36053DOPS   C1B 8301  17.754   3.154  11.933
36053DOPS   D2B 8302  17.624   3.414  11.553
36053DOPS   C3B 8303  17.964   3.674  11.303
36053DOPS   C4B 8304  18.054   3.894  10.873
36054DOPS   CNO 8305   8.754   1.444  15.873
36054DOPS   PO4 8306   8.974   1.684  16.033
36054DOPS   GL1 8307   9.154   1.944  15.803
36054DOPS   GL2 8308   9.434   1.944  15.863
36054DOPS   C1A 8309   9.164   2.024  15.343
36054DOPS   D2A 8310   8.884   2.124  14.943
36054DOPS   C3A 8311   9.014   2.044  14.523
36054DOPS   C4A 8312   9.424   2.004  14.193
36054DOPS   C1B 8313   9.624   1.884  15.553
36054DOPS   D2B 8314   9.884   1.684  15.173
36054DOPS   C3B 8315   9.844   1.604  14.723
36054DOPS   C4B 8316   9.844   1.704  14.253
36055DOPS   CNO 8317  22.884   5.714   8.313
36055DOPS   PO4 8318  22.894   5.524   7.973
36055DOPS   GL1 8319  22.824   5.694   7.583
36055DOPS   GL2 8320  22.594   5.764   7.533
36055DOPS   C1A 8321  23.084   5.964   7.413
36055DOPS   D2A 8322  23.394   6.264   7.123
36055DOPS   C3A 8323  23.314   6.434   6.703
36055DOPS   C4A 8324  22.994   6.444   6.403
36055DOPS   C1B 8325  22.414   5.444   7.283
36055DOPS   D2B 8326  22.144   5.494   6.903
36055DOPS   C3B 8327  21.994   5.764   6.543
36055DOPS   C4B 8328  21.874   5.964   6.073
36056DOPS   CNO 8329  16.174   0.127  14.493
36056DOPS   PO4 8330  16.454   0.424  14.483
36056DOPS   GL1 8331  16.064   0.594  14.243
36056DOPS   GL2 8332  16.254   0.794  14.083
36056DOPS   C1A 8333  15.704   0.724  14.063
36056DOPS   D2A 8334  15.284   0.804  13.783
36056DOPS   C3A 8335  14.894   1.044  13.763
36056DOPS   C4A 8336  14.564   1.334  13.633
36056DOPS   C1B 8337  16.014   0.854  13.653
36056DOPS   D2B 8338  15.804   0.964  13.293
36056DOPS   C3B 8339  15.444   0.804  13.053
36056DOPS   C4B 8340  15.244   0.614  12.753
36057DOPS   CNO 8341  13.344   2.604  16.433
36057DOPS   PO4 8342  13.184   2.404  16.163
36057DOPS   GL1 8343  13.324   2.454  15.713
36057DOPS   GL2 8344  13.144   2.654  15.723
36057DOPS   C1A 8345  13.294   2.164  15.373
36057DOPS   D2A 8346  13.484   2.044  15.003
36057DOPS   C3A 8347  13.304   1.974  14.593
36057DOPS   C4A 8348  13.234   1.584  14.273
36057DOPS   C1B 8349  12.954   2.514  15.373
36057DOPS   D2B 8350  12.944   2.214  15.023
36057DOPS   C3B 8351  12.844   2.314  14.623
36057DOPS   C4B 8352  13.124   2.394  14.243
36058DOPS   CNO 8353   4.834   6.024  13.923
36058DOPS   PO4 8354   4.984   5.694  13.913
36058DOPS   GL1 8355   5.194   5.744  13.583
36058DOPS   GL2 8356   5.464   5.754  13.723
36058DOPS   C1A 8357   5.264   5.974  13.243
36058DOPS   D2A 8358   5.464   5.884  12.833
36058DOPS   C3A 8359   5.634   5.644  12.493
36058DOPS   C4A 8360   6.014   5.534  12.213
36058DOPS   C1B 8361   5.644   5.554  13.353
36058DOPS   D2B 8362   5.604   5.294  12.923
36058DOPS   C3B 8363   5.834   4.884  12.883
36058DOPS   C4B 8364   6.114   4.494  13.083
36059DOPS   CNO 8365   1.894   0.264  11.063
36059DOPS   PO4 8366   2.234   0.127  10.983
36059DOPS   GL1 8367   2.434   7.624  10.753
36059DOPS   GL2 8368   2.474   0.027  10.513
36059DOPS   C1A 8369   2.804   7.374  10.793
36059DOPS   D2A 8370   3.274   7.274  10.943
36059DOPS   C3A 8371   3.694   7.244  10.693
36059DOPS   C4A 8372   4.014   7.254  10.263
36059DOPS   C1B 8373   2.804   7.734  10.233
36059DOPS   D2B 8374   3.244   0.017   9.953
36059DOPS   C3B 8375   3.204   0.294   9.573
36059DOPS   C4B 8376   3.344   0.614   9.203
36060DOPS   CNO 8377  23.174   3.364   7.903
36060DOPS   PO4 8378  23.024   3.064   7.703
36060DOPS   GL1 8379  22.724   3.014   7.413
36060DOPS   GL2 8380  22.644   2.764   7.443
36060DOPS   C1A 8381  22.504   3.324   7.173
36060DOPS   D2A 8382  22.104   3.564   7.073
36060DOPS   C3A 8383  21.784   3.474   6.723
36060DOPS   C4A 8384  21.534   3.454   6.243
36060DOPS   C1B 8385  22.504   2.834   7.043
36060DOPS   D2B 8386  22.374   2.674   6.603
36060DOPS   C3B 8387  22.654   2.604   6.243
36060DOPS   C4B 8388  22.994   2.504   5.833
36061DOPS   CNO 8389   1.254   1.224  10.203
36061DOPS   PO4 8390   1.464   0.964  10.043
36061DOPS   GL1 8391   1.574   0.964   9.663
36061DOPS   GL2 8392   1.754   0.744   9.653
36061DOPS   C1A 8393   1.394   0.874   9.333
36061DOPS   D2A 8394   1.134   1.004   8.913
36061DOPS   C3A 8395   1.354   1.394   8.923
36061DOPS   C4A 8396   1.374   1.924   8.983
36061DOPS   C1B 8397   1.934   0.824   9.323
36061DOPS   D2B 8398   2.164   0.854   8.913
36061DOPS   C3B 8399   2.254   0.934   8.473
36061DOPS   C4B 8400   2.484   0.914   8.023
36062DOPC   NC3 8401   4.674   5.264   7.703
36062DOPC   PO4 8402   4.564   4.884   7.713
36062DOPC   GL1 8403   4.514   4.694   7.993
36062DOPC   GL2 8404   4.474   4.404   7.903
36062DOPC   C1A 8405   4.284   4.814   8.413
36062DOPC   D2A 8406   3.904   4.884   8.623
36062DOPC   C3A 8407   3.654   4.794   9.013
36062DOPC   C4A 8408   3.524   4.494   9.373
36062DOPC   C1B 8409   4.064   4.264   7.943
36062DOPC   D2B 8410   3.644   4.134   7.763
36062DOPC   C3B 8411   3.384   4.324   8.143
36062DOPC   C4B 8412   2.984   4.244   8.503
36063DOPC   NC3 8413  11.314   3.454  12.243
36063DOPC   PO4 8414  11.254   3.834  12.283
36063DOPC   GL1 8415  11.224   3.854  12.653
36063DOPC   GL2 8416  11.404   4.074  12.693
36063DOPC   C1A 8417  11.024   3.704  13.043
36063DOPC   D2A 8418  10.744   3.474  13.403
36063DOPC   C3A 8419  10.494   3.334  13.733
36063DOPC   C4A 8420  10.234   3.094  14.093
36063DOPC   C1B 8421  11.424   4.144  13.093
36063DOPC   D2B 8422  11.434   4.294  13.543
36063DOPC   C3B 8423  11.574   4.514  13.903
36063DOPC   C4B 8424  11.544   5.014  13.953
36064DOPC   NC3 8425  22.994   5.784   3.983
36064DOPC   PO4 8426  23.024   5.414   3.823
36064DOPC   GL1 8427  23.034   5.214   4.093
36064DOPC   GL2 8428  23.244   5.344   4.203
36064DOPC   C1A 8429  22.934   4.874   4.223
36064DOPC   D2A 8430  22.894   4.464   4.463
36064DOPC   C3A 8431  22.914   4.274   4.833
36064DOPC   C4A 8432  23.114   3.884   5.113
36064DOPC   C1B 8433  23.194   5.664   4.503
36064DOPC   D2B 8434  23.194   5.974   4.893
36064DOPC   C3B 8435  23.334   6.364   5.143
36064DOPC   C4B 8436  23.600   6.514   5.543
36065DOPC   NC3 8437  13.404   0.624  10.923
36065DOPC   PO4 8438  13.554   0.474  11.263
36065DOPC   GL1 8439  13.574   0.544  11.563
36065DOPC   GL2 8440  13.434   0.734  11.703
36065DOPC   C1A 8441  13.914   0.454  11.883
36065DOPC   D2A 8442  14.164   0.244  12.233
36065DOPC   C3A 8443  14.264   0.294  12.613
36065DOPC   C4A 8444  14.384   0.614  12.933
36065DOPC   C1B 8445  13.454   0.504  12.073
36065DOPC   D2B 8446  13.714   0.324  12.463
36065DOPC   C3B 8447  13.904   0.494  12.873
36065DOPC   C4B 8448  14.024   0.614  13.323
36066DOPC   NC3 8449   7.194   0.764   9.493
36066DOPC   PO4 8450   6.904   0.984   9.693
36066DOPC   GL1 8451   6.654   0.944  10.013
36066DOPC   GL2 8452   6.814   0.954  10.223
36066DOPC   C1A 8453   6.204   0.934  10.113
36066DOPC   D2A 8454   5.734   0.884  10.243
36066DOPC   C3A 8455   5.554   0.734  10.603
36066DOPC   C4A 8456   5.334   0.794  11.023
36066DOPC   C1B 8457   6.584   1.174  10.513
36066DOPC   D2B 8458   6.284   1.424  10.873
36066DOPC   C3B 8459   6.184   1.214  11.313
36066DOPC   C4B 8460   6.134   1.364  11.803
36067DOPC   NC3 8461  21.134   7.664   4.213
36067DOPC   PO4 8462  21.214   7.304   3.983
36067DOPC   GL1 8463  21.384   7.124   4.433
36067DOPC   GL2 8464  21.444   7.404   4.483
36067DOPC   C1A 8465  21.224   6.894   4.733
36067DOPC   D2A 8466  21.084   6.704   5.123
36067DOPC   C3A 8467  21.274   6.504   5.513
36067DOPC   C4A 8468  21.504   6.294   5.883
36067DOPC   C1B 8469  21.534   7.294   4.863
36067DOPC   D2B 8470  21.554   7.034   5.253
36067DOPC   C3B 8471  21.604   6.994   5.703
36067DOPC   C4B 8472  21.804   7.034   6.133
36068DOPC   NC3 8473   8.374   2.154  10.803
36068DOPC   PO4 8474   8.774   2.234  10.883
36068DOPC   GL1 8475   8.684   2.184  11.263
36068DOPC   GL2 8476   8.584   2.494  11.223
36068DOPC   C1A 8477   8.814   2.354  11.613
36068DOPC   D2A 8478   8.704   2.554  12.003
36068DOPC   C3A 8479   8.604   2.334  12.373
36068DOPC   C4A 8480   8.814   2.234  12.763
36068DOPC   C1B 8481   8.284   2.674  11.503
36068DOPC   D2B 8482   8.004   2.944  11.873
36068DOPC   C3B 8483   7.664   3.234  12.063
36068DOPC   C4B 8484   7.224   3.034  12.213
36069DOPC   NC3 8485   7.054   4.964  10.073
36069DOPC   PO4 8486   6.914   5.234   9.813
36069DOPC   GL1 8487   6.834   5.524  10.043
36069DOPC   GL2 8488   7.074   5.794   9.993
36069DOPC   C1A 8489   6.604   5.454  10.403
36069DOPC   D2A 8490   6.184   5.674  10.573
36069DOPC   C3A 8491   5.754   5.524  10.643
36069DOPC   C4A 8492   5.374   5.434  10.983
36069DOPC   C1B 8493   6.984   5.774  10.413
36069DOPC   D2B 8494   6.674   5.714  10.843
36069DOPC   C3B 8495   6.464   5.564  11.223
36069DOPC   C4B 8496   6.184   5.214  11.273
36070DOPC   NC3 8497  11.104   4.294  12.193
36070DOPC   PO4 8498  11.364   4.524  12.413
36070DOPC   GL1 8499  11.224   4.594  12.813
36070DOPC   GL2 8500  11.264   4.954  12.733
36070DOPC   C1A 8501  11.524   4.634  13.113
36070DOPC   D2A 8502  11.724   4.884  13.483
36070DOPC   C3A 8503  11.694   5.304  13.553
36070DOPC   C4A 8504  11.364   5.494  13.843
36070DOPC   C1B 8505  10.954   5.094  13.033
36070DOPC   D2B 8506  10.624   5.234  13.393
36070DOPC   C3B 8507  10.354   5.444  13.743
36070DOPC   C4B 8508  10.324   5.734  14.113
36071DOPC   NC3 8509   2.634   2.864   5.523
36071DOPC   PO4 8510   2.624   3.264   5.693
36071DOPC   GL1 8511   2.484   3.384   6.043
36071DOPC   GL2 8512   2.594   3.514   6.223
36071DOPC   C1A 8513   2.074   3.204   6.133
36071DOPC   D2A 8514   1.674   2.924   6.253
36071DOPC   C3A 8515   1.324   2.974   6.543
36071DOPC   C4A 8516   1.014   3.014   6.943
36071DOPC   C1B 8517   2.354   3.474   6.603
36071DOPC   D2B 8518   1.854   3.484   6.833
36071DOPC   C3B 8519   1.534   3.164   6.943
36071DOPC   C4B 8520   1.454   2.774   7.203
36072DOPC   NC3 8521  14.094   1.544  10.763
36072DOPC   PO4 8522  14.464   1.534  10.983
36072DOPC   GL1 8523  14.814   1.704  11.243
36072DOPC   GL2 8524  14.604   1.764  11.423
36072DOPC   C1A 8525  15.274   1.664  11.223
36072DOPC   D2A 8526  15.504   1.394  10.863
36072DOPC   C3A 8527  15.814   1.084  11.063
36072DOPC   C4A 8528  16.184   0.914  11.323
36072DOPC   C1B 8529  14.234   1.554  11.673
36072DOPC   D2B 8530  14.034   1.454  12.113
36072DOPC   C3B 8531  14.244   1.564  12.513
36072DOPC   C4B 8532  14.564   1.724  12.873
36073DOPC   NC3 8533  21.684   5.514   4.063
36073DOPC   PO4 8534  21.814   5.864   4.113
36073DOPC   GL1 8535  22.174   5.844   4.433
36073DOPC   GL2 8536  22.084   6.174   4.463
36073DOPC   C1A 8537  22.364   5.534   4.713
36073DOPC   D2A 8538  22.464   5.334   5.123
36073DOPC   C3A 8539  22.364   5.444   5.533
36073DOPC   C4A 8540  22.294   5.694   5.943
36073DOPC   C1B 8541  22.224   6.464   4.733
36073DOPC   D2B 8542  22.434   6.614   5.183
36073DOPC   C3B 8543  22.584   6.564   5.613
36073DOPC   C4B 8544  22.554   6.604   6.143
36074DOPC   NC3 8545   2.234   2.994   4.843
36074DOPC   PO4 8546   2.494   2.744   5.043
36074DOPC   GL1 8547   2.204   2.684   5.323
36074DOPC   GL2 8548   1.934   2.734   5.203
36074DOPC   C1A 8549   2.104   2.824   5.733
36074DOPC   D2A 8550   2.064   2.714   6.213
36074DOPC   C3A 8551   2.184   2.514   6.603
36074DOPC   C4A 8552   2.444   2.244   6.883
36074DOPC   C1B 8553   1.684   2.574   5.503
36074DOPC   D2B 8554   1.614   2.474   5.963
36074DOPC   C3B 8555   1.464   2.404   6.403
36074DOPC   C4B 8556   1.274   2.524   6.823
36075DOPC   NC3 8557   2.354   3.634   5.323
36075DOPC   PO4 8558   2.114   3.514   5.033
36075DOPC   GL1 8559   1.794   3.444   5.263
36075DOPC   GL2 8560   1.674   3.764   5.273
36075DOPC   C1A 8561   1.764   3.094   5.503
36075DOPC   D2A 8562   1.374   2.864   5.753
36075DOPC   C3A 8563   1.114   2.694   6.113
36075DOPC   C4A 8564   0.954   2.504   6.483
36075DOPC   C1B 8565   1.324   3.944   5.593
36075DOPC   D2B 8566   0.974   4.044   5.893
36075DOPC   C3B 8567   0.614   4.154   6.093
36075DOPC   C4B 8568   0.354   4.364   6.473
36076DOPC   NC3 8569   7.264   3.544   9.703
36076DOPC   PO4 8570   6.924   3.724   9.613
36076DOPC   GL1 8571   6.534   3.624   9.753
36076DOPC   GL2 8572   6.664   3.514   9.963
36076DOPC   C1A 8573   6.164   3.474  10.023
36076DOPC   D2A 8574   5.784   3.274  10.153
36076DOPC   C3A 8575   5.434   3.504  10.263
36076DOPC   C4A 8576   5.104   3.744  10.573
36076DOPC   C1B 8577   6.504   3.264  10.283
36076DOPC   D2B 8578   6.344   3.004  10.683
36076DOPC   C3B 8579   6.154   3.054  11.173
36076DOPC   C4B 8580   5.964   3.134  11.643
36077DOPC   NC3 8581  10.564   3.264  11.933
36077DOPC   PO4 8582  10.834   3.194  12.213
36077DOPC   GL1 8583  10.564   3.114  12.553
36077DOPC   GL2 8584  10.744   3.284  12.743
36077DOPC   C1A 8585  10.114   3.184  12.683
36077DOPC   D2A 8586   9.854   3.034  13.133
36077DOPC   C3A 8587   9.404   2.994  13.283
36077DOPC   C4A 8588   8.964   3.014  13.263
36077DOPC   C1B 8589  10.494   3.144  13.083
36077DOPC   D2B 8590  10.364   2.914  13.543
36077DOPC   C3B 8591  10.534   2.784  13.883
36077DOPC   C4B 8592  10.944   2.744  14.113
36078DOPC   NC3 8593  24.220   5.854   3.743
36078DOPC   PO4 8594  24.530   6.074   3.883
36078DOPC   GL1 8595  24.640   6.284   4.273
36078DOPC   GL2 8596  24.420   6.394   4.243
36078DOPC   C1A 8597  24.720   6.154   4.673
36078DOPC   D2A 8598  24.940   6.314   5.073
36078DOPC   C3A 8599  25.000   6.354   5.523
36078DOPC   C4A 8600  24.890   6.524   5.953
36078DOPC   C1B 8601  24.450   6.844   4.363
36078DOPC   D2B 8602  24.480   7.314   4.273
36078DOPC   C3B 8603  24.400   7.364   4.753
36078DOPC   C4B 8604  24.130   7.594   5.113
36079DOPC   NC3 8605  11.654   4.924  12.453
36079DOPC   PO4 8606  11.764   4.674  12.153
36079DOPC   GL1 8607  11.994   4.514  12.433
36079DOPC   GL2 8608  11.744   4.334  12.513
36079DOPC   C1A 8609  12.214   4.634  12.763
36079DOPC   D2A 8610  12.424   4.924  13.113
36079DOPC   C3A 8611  12.184   5.084  13.483
36079DOPC   C4A 8612  12.024   5.244  13.923
36079DOPC   C1B 8613  11.864   4.314  12.923
36079DOPC   D2B 8614  12.134   4.554  13.343
36079DOPC   C3B 8615  12.434   4.204  13.623
36079DOPC   C4B 8616  12.324   3.954  14.113
36080DOPC   NC3 8617  14.804   0.474  10.513
36080DOPC   PO4 8618  14.834   0.117  10.463
36080DOPC   GL1 8619  14.764   0.037  10.873
36080DOPC   GL2 8620  14.974   0.244  10.963
36080DOPC   C1A 8621  14.914   7.464  11.033
36080DOPC   D2A 8622  14.924   6.964  11.333
36080DOPC   C3A 8623  15.194   6.844  11.633
36080DOPC   C4A 8624  15.414   6.814  12.003
36080DOPC   C1B 8625  15.244   7.784  11.153
36080DOPC   D2B 8626  15.444   7.384  11.273
36080DOPC   C3B 8627  15.604   7.164  11.653
36080DOPC   C4B 8628  15.914   7.064  12.053
36081DOPC   NC3 8629  17.464   4.634   7.173
36081DOPC   PO4 8630  17.344   4.954   7.413
36081DOPC   GL1 8631  17.594   5.194   7.683
36081DOPC   GL2 8632  17.514   5.064   7.873
36081DOPC   C1A 8633  18.064   5.234   7.633
36081DOPC   D2A 8634  18.544   5.234   7.643
36081DOPC   C3A 8635  19.034   5.294   7.693
36081DOPC   C4A 8636  19.544   5.314   7.723
36081DOPC   C1B 8637  17.874   5.114   8.083
36081DOPC   D2B 8638  18.254   5.154   8.413
36081DOPC   C3B 8639  18.644   5.084   8.263
36081DOPC   C4B 8640  19.104   5.194   8.323
36082DOPC   NC3 8641   8.674   7.624  11.173
36082DOPC   PO4 8642   8.304   7.754  11.093
36082DOPC   GL1 8643   7.974   7.654  11.183
36082DOPC   GL2 8644   8.024   7.384  11.303
36082DOPC   C1A 8645   7.764   0.137  11.453
36082DOPC   D2A 8646   7.394   0.244  11.773
36082DOPC   C3A 8647   7.204   0.147  12.143
36082DOPC   C4A 8648   7.104   7.614  12.533
36082DOPC   C1B 8649   7.794   7.444  11.663
36082DOPC   D2B 8650   7.464   7.554  12.063
36082DOPC   C3B 8651   7.704   7.814  12.333
36082DOPC   C4B 8652   7.534   0.464  12.543
36083DOPC   NC3 8653   4.854   3.694   7.603
36083DOPC   PO4 8654   4.674   3.374   7.773
36083DOPC   GL1 8655   4.544   2.914   7.783
36083DOPC   GL2 8656   4.294   3.104   7.753
36083DOPC   C1A 8657   4.244   2.764   8.153
36083DOPC   D2A 8658   4.104   2.854   8.673
36083DOPC   C3A 8659   3.914   2.614   9.003
36083DOPC   C4A 8660   3.514   2.474   9.153
36083DOPC   C1B 8661   3.984   3.204   8.093
36083DOPC   D2B 8662   3.754   3.554   8.393
36083DOPC   C3B 8663   4.004   3.844   8.703
36083DOPC   C4B 8664   3.814   4.164   9.023
36084DOPC   NC3 8665   5.654   7.544   7.643
36084DOPC   PO4 8666   5.524   0.117   7.763
36084DOPC   GL1 8667   5.204   0.107   7.873
36084DOPC   GL2 8668   5.144   0.017   8.063
36084DOPC   C1A 8669   4.874   0.434   7.983
36084DOPC   D2A 8670   4.564   0.824   8.083
36084DOPC   C3A 8671   4.434   0.964   8.423
36084DOPC   C4A 8672   4.524   1.204   8.863
36084DOPC   C1B 8673   4.754   0.087   8.273
36084DOPC   D2B 8674   4.334   0.244   8.173
36084DOPC   C3B 8675   4.184   0.604   7.903
36084DOPC   C4B 8676   3.954   0.914   7.593
36085DOPC   NC3 8677   4.694   7.734   7.113
36085DOPC   PO4 8678   4.404   7.524   6.993
36085DOPC   GL1 8679   4.034   7.544   7.273
36085DOPC   GL2 8680   4.214   7.804   7.343
36085DOPC   C1A 8681   3.984   7.454   7.723
36085DOPC   D2A 8682   3.874   7.684   8.143
36085DOPC   C3A 8683   3.574   0.177   8.323
36085DOPC   C4A 8684   3.344   0.214   8.733
36085DOPC   C1B 8685   4.064   0.097   7.693
36085DOPC   D2B 8686   3.744   0.404   7.893
36085DOPC   C3B 8687   3.464   0.654   8.233
36085DOPC   C4B 8688   3.264   0.694   8.663
36086DOPC   NC3 8689  15.574   4.254   9.343
36086DOPC   PO4 8690  15.794   4.534   9.203
36086DOPC   GL1 8691  16.174   4.314   9.233
36086DOPC   GL2 8692  16.254   4.644   9.173
36086DOPC   C1A 8693  16.244   4.204   9.623
36086DOPC   D2A 8694  16.354   3.954  10.033
36086DOPC   C3A 8695  16.474   3.934  10.513
36086DOPC   C4A 8696  16.574   3.724  10.983
36086DOPC   C1B 8697  16.674   4.574   9.253
36086DOPC   D2B 8698  17.144   4.524   9.323
36086DOPC   C3B 8699  17.564   4.434   9.483
36086DOPC   C4B 8700  18.024   4.404   9.653
36087DOPC   NC3 8701   4.734   6.254   7.213
36087DOPC   PO4 8702   5.024   6.134   7.493
36087DOPC   GL1 8703   4.864   6.224   7.823
36087DOPC   GL2 8704   4.604   6.134   7.773
36087DOPC   C1A 8705   4.894   6.494   8.163
36087DOPC   D2A 8706   4.664   6.684   8.523
36087DOPC   C3A 8707   4.734   6.814   8.993
36087DOPC   C4A 8708   4.714   6.774   9.463
36087DOPC   C1B 8709   4.414   6.144   8.193
36087DOPC   D2B 8710   4.104   6.184   8.603
36087DOPC   C3B 8711   3.994   5.974   8.993
36087DOPC   C4B 8712   3.964   5.954   9.473
36088DOPC   NC3 8713  22.164   3.644   3.643
36088DOPC   PO4 8714  22.094   3.784   4.013
36088DOPC   GL1 8715  22.204   3.754   4.383
36088DOPC   GL2 8716  22.484   3.614   4.283
36088DOPC   C1A 8717  22.114   3.714   4.813
36088DOPC   D2A 8718  21.864   3.514   5.193
36088DOPC   C3A 8719  21.974   3.554   5.673
36088DOPC   C4A 8720  22.054   3.444   6.143
36088DOPC   C1B 8721  22.494   3.364   4.623
36088DOPC   D2B 8722  22.484   3.474   5.133
36088DOPC   C3B 8723  22.544   3.284   5.533
36088DOPC   C4B 8724  22.554   3.034   5.963
36089DOPC   NC3 8725  15.784   0.454   9.483
36089DOPC   PO4 8726  16.104   0.694   9.513
36089DOPC   GL1 8727  16.174   0.604   9.983
36089DOPC   GL2 8728  16.234   0.344   9.913
36089DOPC   C1A 8729  16.084   0.804  10.403
36089DOPC   D2A 8730  16.184   0.744  10.893
36089DOPC   C3A 8731  16.634   0.894  11.043
36089DOPC   C4A 8732  16.764   1.284  11.263
36089DOPC   C1B 8733  16.224   7.794  10.143
36089DOPC   D2B 8734  16.254   7.504  10.593
36089DOPC   C3B 8735  16.434   7.084  10.453
36089DOPC   C4B 8736  16.654   6.674  10.273
36090DOPC   NC3 8737  17.704   4.334   6.123
36090DOPC   PO4 8738  17.814   4.474   6.483
36090DOPC   GL1 8739  18.124   4.394   6.763
36090DOPC   GL2 8740  17.954   4.554   6.933
36090DOPC   C1A 8741  18.484   4.094   6.793
36090DOPC   D2A 8742  18.704   3.664   6.683
36090DOPC   C3A 8743  19.054   3.514   7.063
36090DOPC   C4A 8744  19.144   3.334   7.523
36090DOPC   C1B 8745  18.204   4.564   7.323
36090DOPC   D2B 8746  18.314   4.434   7.753
36090DOPC   C3B 8747  18.674   4.464   8.023
36090DOPC   C4B 8748  18.954   4.724   8.353
36091DOPC   NC3 8749  19.044   7.684   4.693
36091DOPC   PO4 8750  19.144   0.254   4.633
36091DOPC   GL1 8751  19.564   0.274   4.843
36091DOPC   GL2 8752  19.554   0.494   4.683
36091DOPC   C1A 8753  19.644   0.244   5.293
36091DOPC   D2A 8754  19.984   0.244   5.693
36091DOPC   C3A 8755  20.214   0.454   6.103
36091DOPC   C4A 8756  20.314   0.744   6.483
36091DOPC   C1B 8757  19.874   0.644   4.953
36091DOPC   D2B 8758  20.334   0.634   5.263
36091DOPC   C3B 8759  20.564   0.864   5.603
36091DOPC   C4B 8760  20.784   0.774   6.043
36092DOPC   NC3 8761   5.704   5.534   8.073
36092DOPC   PO4 8762   5.434   5.534   7.763
36092DOPC   GL1 8763   5.014   5.644   7.863
36092DOPC   GL2 8764   5.214   5.634   8.173
36092DOPC   C1A 8765   4.704   5.804   8.043
36092DOPC   D2A 8766   4.404   5.754   8.463
36092DOPC   C3A 8767   4.104   5.574   8.713
36092DOPC   C4A 8768   3.754   5.254   8.893
36092DOPC   C1B 8769   4.944   5.574   8.453
36092DOPC   D2B 8770   4.584   5.274   8.713
36092DOPC   C3B 8771   4.344   5.314   9.143
36092DOPC   C4B 8772   4.224   5.344   9.603
36093DOPC   NC3 8773   3.244   2.454   6.643
36093DOPC   PO4 8774   3.444   2.194   6.443
36093DOPC   GL1 8775   3.374   1.824   6.563
36093DOPC   GL2 8776   3.564   1.824   6.753
36093DOPC   C1A 8777   3.004   1.564   6.703
36093DOPC   D2A 8778   2.734   1.364   6.973
36093DOPC   C3A 8779   2.394   1.404   7.223
36093DOPC   C4A 8780   2.264   1.554   7.673
36093DOPC   C1B 8781   3.404   1.844   7.083
36093DOPC   D2B 8782   3.174   2.074   7.503
36093DOPC   C3B 8783   2.974   1.954   7.923
36093DOPC   C4B 8784   2.594   1.824   8.203
36094DOPC   NC3 8785  15.414   7.384   9.843
36094DOPC   PO4 8786  15.624   7.134   9.583
36094DOPC   GL1 8787  15.974   7.004   9.843
36094DOPC   GL2 8788  15.854   6.924  10.083
36094DOPC   C1A 8789  16.434   7.024   9.943
36094DOPC   D2A 8790  16.854   7.014   9.843
36094DOPC   C3A 8791  16.984   7.014   9.363
36094DOPC   C4A 8792  16.994   6.874   8.943
36094DOPC   C1B 8793  16.134   6.654  10.303
36094DOPC   D2B 8794  16.414   6.534  10.753
36094DOPC   C3B 8795  16.754   6.784  10.783
36094DOPC   C4B 8796  17.094   7.044  11.053
36095DOPC   NC3 8797   1.784   0.564   4.573
36095DOPC   PO4 8798   1.784   0.804   4.873
36095DOPC   GL1 8799   1.434   0.774   5.183
36095DOPC   GL2 8800   1.634   0.774   5.343
36095DOPC   C1A 8801   0.944   0.824   5.243
36095DOPC   D2A 8802   0.644   1.244   5.183
36095DOPC   C3A 8803   0.394   1.314   5.563
36095DOPC   C4A 8804   0.334   1.184   6.013
36095DOPC   C1B 8805   1.744   0.404   5.623
36095DOPC   D2B 8806   1.714   0.127   6.003
36095DOPC   C3B 8807   1.494   7.554   6.043
36095DOPC   C4B 8808   1.084   7.364   6.203
36096DOPC   NC3 8809   1.544   3.564   4.803
36096DOPC   PO4 8810   1.504   3.954   4.863
36096DOPC   GL1 8811   1.214   3.954   5.053
36096DOPC   GL2 8812   1.154   3.714   5.193
36096DOPC   C1A 8813   0.924   4.114   5.363
36096DOPC   D2A 8814   0.704   4.484   5.663
36096DOPC   C3A 8815   0.584   4.674   6.073
36096DOPC   C4A 8816   0.594   4.774   6.563
36096DOPC   C1B 8817   0.854   3.604   5.423
36096DOPC   D2B 8818   0.594   3.744   5.853
36096DOPC   C3B 8819   0.414   3.724   6.343
36096DOPC   C4B 8820   0.184   3.884   6.763
36097DOPC   NC3 8821  23.680   1.394   3.353
36097DOPC   PO4 8822  23.424   1.154   3.423
36097DOPC   GL1 8823  23.414   1.214   3.843
36097DOPC   GL2 8824  23.274   1.454   3.813
36097DOPC   C1A 8825  23.730   1.244   4.243
36097DOPC   D2A 8826  23.900   1.324   4.663
36097DOPC   C3A 8827  23.690   1.334   5.093
36097DOPC   C4A 8828  23.484   1.154   5.503
36097DOPC   C1B 8829  23.054   1.314   4.183
36097DOPC   D2B 8830  22.704   1.284   4.533
36097DOPC   C3B 8831  23.004   0.954   4.713
36097DOPC   C4B 8832  23.184   0.454   4.783
36098DOPC   NC3 8833   0.794   1.794   4.403
36098DOPC   PO4 8834   0.944   1.444   4.253
36098DOPC   GL1 8835   0.784   1.084   4.183
36098DOPC   GL2 8836   0.534   1.204   4.283
36098DOPC   C1A 8837   0.724   0.684   4.383
36098DOPC   D2A 8838   0.864   0.224   4.453
36098DOPC   C3A 8839   0.704   7.704   4.693
36098DOPC   C4A 8840   0.654   7.284   5.053
36098DOPC   C1B 8841   0.184   1.254   4.633
36098DOPC   D2B 8842   0.154   1.324   5.093
36098DOPC   C3B 8843  25.020   1.674   5.453
36098DOPC   C4B 8844  24.840   1.864   5.883
36099DOPC   NC3 8845   3.124   2.334   5.243
36099DOPC   PO4 8846   2.754   2.404   5.323
36099DOPC   GL1 8847   2.484   2.074   5.413
36099DOPC   GL2 8848   2.314   2.294   5.373
36099DOPC   C1A 8849   2.564   1.894   5.853
36099DOPC   D2A 8850   2.614   1.714   6.343
36099DOPC   C3A 8851   2.524   1.744   6.813
36099DOPC   C4A 8852   2.274   1.944   7.233
36099DOPC   C1B 8853   2.084   2.194   5.743
36099DOPC   D2B 8854   1.964   2.224   6.213
36099DOPC   C3B 8855   1.594   1.974   6.223
36099DOPC   C4B 8856   1.364   1.614   6.303
36100DOPC   NC3 8857  10.374   4.484  11.993
36100DOPC   PO4 8858  10.614   4.184  12.013
36100DOPC   GL1 8859  10.754   4.084  12.443
36100DOPC   GL2 8860  10.534   4.244  12.543
36100DOPC   C1A 8861  10.974   4.174  12.803
36100DOPC   D2A 8862  10.984   4.464  13.213
36100DOPC   C3A 8863  11.144   4.754  13.553
36100DOPC   C4A 8864  11.054   5.044  13.943
36100DOPC   C1B 8865  10.524   4.194  13.003
36100DOPC   D2B 8866  10.714   4.044  13.453
36100DOPC   C3B 8867  10.964   4.244  13.743
36100DOPC   C4B 8868  11.204   4.314  14.173
36101DOPC   NC3 8869   8.724   5.794  10.803
36101DOPC   PO4 8870   8.454   5.454  10.873
36101DOPC   GL1 8871   8.304   5.414  11.253
36101DOPC   GL2 8872   8.014   5.324  11.193
36101DOPC   C1A 8873   8.194   5.434  11.683
36101DOPC   D2A 8874   8.314   5.454  12.123
36101DOPC   C3A 8875   8.044   5.334  12.493
36101DOPC   C4A 8876   7.574   5.164  12.523
36101DOPC   C1B 8877   7.574   5.374  11.203
36101DOPC   D2B 8878   7.064   5.284  11.243
36101DOPC   C3B 8879   6.834   5.354  11.603
36101DOPC   C4B 8880   6.434   5.344  11.863
36102DOPC   NC3 8881   6.534   3.894   9.363
36102DOPC   PO4 8882   6.604   4.264   9.333
36102DOPC   GL1 8883   6.454   4.364   9.673
36102DOPC   GL2 8884   6.394   4.054   9.713
36102DOPC   C1A 8885   6.344   4.704   9.833
36102DOPC   D2A 8886   6.284   5.134  10.153
36102DOPC   C3A 8887   5.814   5.244  10.243
36102DOPC   C4A 8888   5.434   5.154  10.493
36102DOPC   C1B 8889   6.054   3.934   9.953
36102DOPC   D2B 8890   5.934   3.784  10.403
36102DOPC   C3B 8891   5.694   3.924  10.793
36102DOPC   C4B 8892   5.504   3.934  11.203
36103DOPC   NC3 8893   5.904   3.574   8.293
36103DOPC   PO4 8894   5.944   3.324   8.623
36103DOPC   GL1 8895   5.624   3.314   8.823
36103DOPC   GL2 8896   5.344   3.364   8.713
36103DOPC   C1A 8897   5.444   3.334   9.173
36103DOPC   D2A 8898   5.204   3.214   9.593
36103DOPC   C3A 8899   5.034   3.004  10.003
36103DOPC   C4A 8900   4.864   2.754  10.403
36103DOPC   C1B 8901   4.964   3.434   8.973
36103DOPC   D2B 8902   4.654   3.514   9.413
36103DOPC   C3B 8903   4.244   3.384   9.573
36103DOPC   C4B 8904   3.864   3.494   9.783
36104DOPC   NC3 8905  16.354   7.324   8.943
36104DOPC   PO4 8906  16.194   6.964   8.923
36104DOPC   GL1 8907  16.544   6.794   9.083
36104DOPC   GL2 8908  16.574   6.864   9.353
36104DOPC   C1A 8909  16.804   6.454   8.983
36104DOPC   D2A 8910  17.044   6.094   9.223
36104DOPC   C3A 8911  17.254   6.004   9.543
36104DOPC   C4A 8912  17.494   6.084   9.933
36104DOPC   C1B 8913  16.624   7.304   9.443
36104DOPC   D2B 8914  16.894   7.604   9.783
36104DOPC   C3B 8915  17.244   7.544  10.073
36104DOPC   C4B 8916  17.104   7.604  10.573
36105DOPC   NC3 8917  13.084   2.584  11.503
36105DOPC   PO4 8918  13.394   2.654  11.343
36105DOPC   GL1 8919  13.724   2.604  11.663
36105DOPC   GL2 8920  13.544   2.654  11.883
36105DOPC   C1A 8921  14.064   2.504  11.813
36105DOPC   D2A 8922  14.474   2.384  12.043
36105DOPC   C3A 8923  14.504   2.624  12.453
36105DOPC   C4A 8924  14.564   2.834  12.863
36105DOPC   C1B 8925  13.824   2.774  12.133
36105DOPC   D2B 8926  14.094   2.824  12.573
36105DOPC   C3B 8927  14.094   2.984  13.023
36105DOPC   C4B 8928  14.094   2.934  13.513
36106DOPC   NC3 8929   5.464   0.884   8.313
36106DOPC   PO4 8930   5.784   1.004   8.463
36106DOPC   GL1 8931   5.654   1.164   8.833
36106DOPC   GL2 8932   5.634   0.824   8.893
36106DOPC   C1A 8933   5.244   1.334   9.013
36106DOPC   D2A 8934   4.904   1.564   9.203
36106DOPC   C3A 8935   4.394   1.574   9.213
36106DOPC   C4A 8936   3.954   1.604   9.383
36106DOPC   C1B 8937   5.334   0.934   9.273
36106DOPC   D2B 8938   4.924   0.834   9.643
36106DOPC   C3B 8939   4.794   0.404   9.623
36106DOPC   C4B 8940   4.564   0.067   9.973
36107DOPC   NC3 8941  19.914   6.444   4.773
36107DOPC   PO4 8942  19.514   6.474   4.863
36107DOPC   GL1 8943  19.534   6.384   5.243
36107DOPC   GL2 8944  19.774   6.284   5.263
36107DOPC   C1A 8945  19.654   6.674   5.563
36107DOPC   D2A 8946  19.944   6.694   5.953
36107DOPC   C3A 8947  20.104   6.514   6.313
36107DOPC   C4A 8948  20.284   6.174   6.633
36107DOPC   C1B 8949  19.874   6.224   5.733
36107DOPC   D2B 8950  20.104   6.064   6.173
36107DOPC   C3B 8951  20.024   5.764   6.443
36107DOPC   C4B 8952  20.254   5.514   6.823
36108DOPC   NC3 8953  23.990   0.424   3.673
36108DOPC   PO4 8954  24.250   0.187   3.783
36108DOPC   GL1 8955  24.210   0.057   4.143
36108DOPC   GL2 8956  24.070   0.314   4.153
36108DOPC   C1A 8957  24.040   7.574   4.393
36108DOPC   D2A 8958  23.880   7.314   4.783
36108DOPC   C3A 8959  23.590   7.364   5.183
36108DOPC   C4A 8960  23.474   7.434   5.663
36108DOPC   C1B 8961  23.950   0.314   4.553
36108DOPC   D2B 8962  23.640   0.414   4.943
36108DOPC   C3B 8963  23.554   0.464   5.413
36108DOPC   C4B 8964  23.354   0.744   5.783
36109DOPC   NC3 8965  24.990   7.734   3.153
36109DOPC   PO4 8966   0.154   7.764   3.513
36109DOPC   GL1 8967   0.174   0.047   3.963
36109DOPC   GL2 8968  24.860   0.037   3.983
36109DOPC   C1A 8969   0.364   0.147   4.343
36109DOPC   D2A 8970   0.444   0.334   4.743
36109DOPC   C3A 8971   0.114   0.444   5.033
36109DOPC   C4A 8972  24.840   0.534   5.393
36109DOPC   C1B 8973  24.590   0.077   4.333
36109DOPC   D2B 8974  24.320   0.017   4.703
36109DOPC   C3B 8975  24.190   0.304   4.993
36109DOPC   C4B 8976  24.060   0.404   5.473
36110DOPC   NC3 8977   8.154   4.934  10.153
36110DOPC   PO4 8978   7.944   4.764  10.403
36110DOPC   GL1 8979   7.854   4.874  10.793
36110DOPC   GL2 8980   7.704   4.624  10.853
36110DOPC   C1A 8981   7.764   4.894  11.263
36110DOPC   D2A 8982   7.794   5.094  11.673
36110DOPC   C3A 8983   7.684   5.404  12.023
36110DOPC   C4A 8984   7.704   5.674  12.563
36110DOPC   C1B 8985   7.504   4.454  11.223
36110DOPC   D2B 8986   7.224   4.374  11.623
36110DOPC   C3B 8987   7.114   4.624  11.943
36110DOPC   C4B 8988   7.104   4.944  12.333
36111DOPC   NC3 8989  15.824   2.154   9.853
36111DOPC   PO4 8990  15.544   2.434  10.023
36111DOPC   GL1 8991  15.864   2.714  10.253
36111DOPC   GL2 8992  16.044   2.554  10.063
36111DOPC   C1A 8993  15.854   2.834  10.663
36111DOPC   D2A 8994  16.054   2.904  11.153
36111DOPC   C3A 8995  16.194   2.604  11.523
36111DOPC   C4A 8996  16.244   2.394  12.003
36111DOPC   C1B 8997  16.524   2.574  10.113
36111DOPC   D2B 8998  16.984   2.524  10.133
36111DOPC   C3B 8999  17.294   2.324  10.463
36111DOPC   C4B 9000  17.604   2.104  10.833
36112DOPC   NC3 9001  10.864   5.694  11.773
36112DOPC   PO4 9002  10.914   5.754  12.143
36112DOPC   GL1 9003  10.604   5.684  12.303
36112DOPC   GL2 9004  10.414   5.494  12.253
36112DOPC   C1A 9005  10.314   5.904  12.543
36112DOPC   D2A 9006   9.894   5.734  12.863
36112DOPC   C3A 9007   9.724   5.924  13.263
36112DOPC   C4A 9008   9.404   5.864  13.673
36112DOPC   C1B 9009  10.224   5.434  12.583
36112DOPC   D2B 9010  10.234   5.324  13.063
36112DOPC   C3B 9011  10.074   5.594  13.343
36112DOPC   C4B 9012   9.854   5.674  13.823
36113DOPC   NC3 9013   3.274   5.104   5.843
36113DOPC   PO4 9014   3.424   4.824   6.003
36113DOPC   GL1 9015   3.134   4.864   6.343
36113DOPC   GL2 9016   3.304   4.804   6.543
36113DOPC   C1A 9017   2.824   4.694   6.633
36113DOPC   D2A 9018   2.684   4.614   7.093
36113DOPC   C3A 9019   2.744   4.374   7.523
36113DOPC   C4A 9020   2.844   4.254   7.983
36113DOPC   C1B 9021   3.134   4.744   7.013
36113DOPC   D2B 9022   2.894   4.924   7.403
36113DOPC   C3B 9023   2.444   4.804   7.483
36113DOPC   C4B 9024   2.314   4.434   7.793
36114DOPC   NC3 9025  12.404   1.714  12.373
36114DOPC   PO4 9026  12.774   1.834  12.223
36114DOPC   GL1 9027  13.124   1.714  12.453
36114DOPC   GL2 9028  12.924   1.724  12.653
36114DOPC   C1A 9029  13.254   1.334  12.423
36114DOPC   D2A 9030  13.474   0.944  12.433
36114DOPC   C3A 9031  13.404   0.664  12.823
36114DOPC   C4A 9032  13.524   0.394  13.223
36114DOPC   C1B 9033  13.084   1.844  12.993
36114DOPC   D2B 9034  13.264   2.024  13.363
36114DOPC   C3B 9035  13.674   1.994  13.623
36114DOPC   C4B 9036  13.864   1.714  13.933
36115DOPC   NC3 9037   4.614   1.434   7.483
36115DOPC   PO4 9038   4.834   1.244   7.733
36115DOPC   GL1 9039   4.684   1.284   8.093
36115DOPC   GL2 9040   4.414   1.364   8.073
36115DOPC   C1A 9041   4.894   1.034   8.403
36115DOPC   D2A 9042   5.114   0.904   8.783
36115DOPC   C3A 9043   4.794   0.924   9.123
36115DOPC   C4A 9044   4.404   1.064   9.393
36115DOPC   C1B 9045   4.254   1.424   8.493
36115DOPC   D2B 9046   3.994   1.554   8.843
36115DOPC   C3B 9047   4.064   1.164   9.073
36115DOPC   C4B 9048   3.894   0.784   9.203
36116DOPC   NC3 9049   7.744   1.544  10.213
36116DOPC   PO4 9050   7.764   1.174  10.033
36116DOPC   GL1 9051   7.574   0.984  10.403
36116DOPC   GL2 9052   7.394   1.174  10.353
36116DOPC   C1A 9053   7.594   1.044  10.843
36116DOPC   D2A 9054   7.664   1.044  11.363
36116DOPC   C3A 9055   7.504   0.854  11.753
36116DOPC   C4A 9056   7.284   0.624  12.163
36116DOPC   C1B 9057   7.054   1.124  10.563
36116DOPC   D2B 9058   6.744   0.964  10.933
36116DOPC   C3B 9059   6.314   0.914  10.963
36116DOPC   C4B 9060   5.834   0.954  10.993
36117DOPC   NC3 9061  14.154   5.164  10.533
36117DOPC   PO4 9062  14.394   4.864  10.663
36117DOPC   GL1 9063  14.684   4.924  10.873
36117DOPC   GL2 9064  14.894   4.864  10.653
36117DOPC   C1A 9065  15.064   4.734  11.103
36117DOPC   D2A 9066  15.524   4.654  11.153
36117DOPC   C3A 9067  15.934   4.834  11.203
36117DOPC   C4A 9068  16.414   5.044  11.143
36117DOPC   C1B 9069  15.354   4.814  10.733
36117DOPC   D2B 9070  15.824   4.704  10.703
36117DOPC   C3B 9071  16.294   4.844  10.733
36117DOPC   C4B 9072  16.764   4.734  10.813
36118DOPC   NC3 9073   8.094   4.304  10.243
36118DOPC   PO4 9074   8.374   4.514  10.423
36118DOPC   GL1 9075   8.114   4.524  10.823
36118DOPC   GL2 9076   8.044   4.224  10.733
36118DOPC   C1A 9077   8.144   4.584  11.293
36118DOPC   D2A 9078   7.854   4.594  11.703
36118DOPC   C3A 9079   7.584   4.774  12.043
36118DOPC   C4A 9080   7.514   4.694  12.493
36118DOPC   C1B 9081   7.904   4.204  11.143
36118DOPC   D2B 9082   7.744   4.124  11.573
36118DOPC   C3B 9083   7.514   4.244  12.043
36118DOPC   C4B 9084   7.174   4.294  12.383
36119DOPC   NC3 9085  15.624   6.274   9.383
36119DOPC   PO4 9086  15.874   6.514   9.153
36119DOPC   GL1 9087  16.224   6.214   9.203
36119DOPC   GL2 9088  16.064   6.154   9.483
36119DOPC   C1A 9089  16.604   6.374   9.403
36119DOPC   D2A 9090  17.024   6.524   9.513
36119DOPC   C3A 9091  17.454   6.714   9.633
36119DOPC   C4A 9092  17.784   6.964   9.423
36119DOPC   C1B 9093  16.274   5.894   9.773
36119DOPC   D2B 9094  16.394   5.734  10.203
36119DOPC   C3B 9095  16.694   5.714  10.513
36119DOPC   C4B 9096  17.034   5.744  10.833
36120DOPC   NC3 9097  13.144   1.404  11.123
36120DOPC   PO4 9098  13.484   1.244  11.213
36120DOPC   GL1 9099  13.664   1.004  11.493
36120DOPC   GL2 9100  13.834   0.814  11.353
36120DOPC   C1A 9101  13.974   1.064  11.643
36120DOPC   D2A 9102  14.374   1.044  11.863
36120DOPC   C3A 9103  14.754   0.824  12.033
36120DOPC   C4A 9104  15.114   1.054  12.303
36120DOPC   C1B 9105  14.204   0.644  11.603
36120DOPC   D2B 9106  14.534   0.364  11.823
36120DOPC   C3B 9107  14.674   0.304  12.253
36120DOPC   C4B 9108  14.734   0.254  12.763
36121DOPC   NC3 9109  21.134   3.424   4.193
36121DOPC   PO4 9110  21.474   3.224   4.343
36121DOPC   GL1 9111  21.684   3.404   4.563
36121DOPC   GL2 9112  21.554   3.584   4.723
36121DOPC   C1A 9113  21.994   3.184   4.823
36121DOPC   D2A 9114  22.014   3.044   5.283
36121DOPC   C3A 9115  22.114   3.044   5.733
36121DOPC   C4A 9116  22.154   2.844   6.213
36121DOPC   C1B 9117  21.414   3.394   5.093
36121DOPC   D2B 9118  21.414   3.074   5.463
36121DOPC   C3B 9119  21.634   3.134   5.863
36121DOPC   C4B 9120  21.754   3.054   6.373
36122DOPC   NC3 9121   8.084   3.334  10.223
36122DOPC   PO4 9122   7.794   3.064  10.303
36122DOPC   GL1 9123   7.364   3.034  10.393
36122DOPC   GL2 9124   7.604   3.164  10.653
36122DOPC   C1A 9125   7.044   3.344  10.593
36122DOPC   D2A 9126   6.624   3.554  10.683
36122DOPC   C3A 9127   6.174   3.464  10.723
36122DOPC   C4A 9128   5.764   3.134  10.693
36122DOPC   C1B 9129   7.614   3.384  11.043
36122DOPC   D2B 9130   7.784   3.634  11.473
36122DOPC   C3B 9131   7.674   3.744  11.943
36122DOPC   C4B 9132   7.434   3.844  12.383
36123DOPC   NC3 9133  22.684   5.014   3.623
36123DOPC   PO4 9134  22.524   4.704   3.813
36123DOPC   GL1 9135  22.544   4.684   4.293
36123DOPC   GL2 9136  22.474   4.984   4.233
36123DOPC   C1A 9137  22.464   4.534   4.703
36123DOPC   D2A 9138  22.524   4.374   5.183
36123DOPC   C3A 9139  22.504   4.124   5.583
36123DOPC   C4A 9140  22.414   3.704   5.793
36123DOPC   C1B 9141  22.744   5.274   4.493
36123DOPC   D2B 9142  22.974   5.434   4.963
36123DOPC   C3B 9143  22.764   5.724   5.233
36123DOPC   C4B 9144  22.474   6.004   5.533
36124DOPC   NC3 9145  12.704   6.584  11.623
36124DOPC   PO4 9146  12.664   6.234  11.833
36124DOPC   GL1 9147  12.334   6.184  12.123
36124DOPC   GL2 9148  12.294   6.474  12.183
36124DOPC   C1A 9149  12.504   6.004  12.543
36124DOPC   D2A 9150  12.444   5.874  13.073
36124DOPC   C3A 9151  12.474   6.024  13.483
36124DOPC   C4A 9152  12.704   6.064  13.883
36124DOPC   C1B 9153  12.564   6.494  12.493
36124DOPC   D2B 9154  12.904   6.674  12.853
36124DOPC   C3B 9155  12.824   6.794  13.313
36124DOPC   C4B 9156  12.724   6.984  13.713
36125DOPC   NC3 9157  11.194   0.177  11.663
36125DOPC   PO4 9158  10.974   0.234  11.983
36125DOPC   GL1 9159  10.994   7.804  12.363
36125DOPC   GL2 9160  11.174   0.177  12.403
36125DOPC   C1A 9161  10.794   7.734  12.693
36125DOPC   D2A 9162  10.704   7.594  13.153
36125DOPC   C3A 9163  10.444   7.824  13.543
36125DOPC   C4A 9164   9.974   0.147  13.723
36125DOPC   C1B 9165  10.944   0.394  12.723
36125DOPC   D2B 9166  10.664   0.314  13.153
36125DOPC   C3B 9167  10.914   0.314  13.523
36125DOPC   C4B 9168  10.764   0.147  13.933
36126DOPC   NC3 9169   9.994   0.924  12.353
36126DOPC   PO4 9170  10.314   0.634  12.343
36126DOPC   GL1 9171  10.574   0.644  12.603
36126DOPC   GL2 9172  10.234   0.664  12.733
36126DOPC   C1A 9173  10.654   0.814  12.943
36126DOPC   D2A 9174  10.664   0.984  13.443
36126DOPC   C3A 9175  10.824   1.144  13.803
36126DOPC   C4A 9176  10.954   1.354  14.243
36126DOPC   C1B 9177  10.254   0.754  13.133
36126DOPC   D2B 9178   9.974   0.984  13.543
36126DOPC   C3B 9179  10.334   1.054  13.793
36126DOPC   C4B 9180  10.474   1.034  14.253
36127DOPC   NC3 9181   1.054   3.694   4.083
36127DOPC   PO4 9182   0.724   3.664   4.323
36127DOPC   GL1 9183   0.774   3.744   4.753
36127DOPC   GL2 9184   1.024   3.504   4.773
36127DOPC   C1A 9185   0.404   3.834   4.993
36127DOPC   D2A 9186   0.044   3.744   5.293
36127DOPC   C3A 9187   0.074   3.864   5.713
36127DOPC   C4A 9188   0.144   4.074   6.133
36127DOPC   C1B 9189   0.924   3.134   5.013
36127DOPC   D2B 9190   1.024   2.764   5.323
36127DOPC   C3B 9191   0.814   2.644   5.713
36127DOPC   C4B 9192   0.524   2.504   6.123
36128DOPC   NC3 9193   8.134   1.184  11.013
36128DOPC   PO4 9194   8.474   1.294  11.163
36128DOPC   GL1 9195   8.434   1.304  11.593
36128DOPC   GL2 9196   8.324   1.584  11.593
36128DOPC   C1A 9197   8.474   1.104  12.083
36128DOPC   D2A 9198   8.394   0.944  12.533
36128DOPC   C3A 9199   7.944   1.094  12.743
36128DOPC   C4A 9200   7.534   1.314  12.873
36128DOPC   C1B 9201   8.244   1.534  11.973
36128DOPC   D2B 9202   8.144   1.394  12.443
36128DOPC   C3B 9203   8.294   1.594  12.813
36128DOPC   C4B 9204   8.394   2.054  12.903
36129DOPC   NC3 9205  19.664   7.254   5.203
36129DOPC   PO4 9206  19.744   7.434   4.793
36129DOPC   GL1 9207  20.044   7.554   5.053
36129DOPC   GL2 9208  19.884   7.714   5.203
36129DOPC   C1A 9209  20.204   7.264   5.273
36129DOPC   D2A 9210  20.594   6.964   5.213
36129DOPC   C3A 9211  20.674   6.624   5.503
36129DOPC   C4A 9212  20.864   6.334   5.853
36129DOPC   C1B 9213  20.054   7.584   5.603
36129DOPC   D2B 9214  20.334   7.714   5.983
36129DOPC   C3B 9215  20.544   7.394   6.243
36129DOPC   C4B 9216  20.854   7.084   6.113
36130DOPC   NC3 9217  15.514   1.534   9.603
36130DOPC   PO4 9218  15.774   1.784   9.463
36130DOPC   GL1 9219  16.174   1.754   9.673
36130DOPC   GL2 9220  16.144   1.544   9.843
36130DOPC   C1A 9221  16.344   2.024   9.983
36130DOPC   D2A 9222  16.604   2.164  10.393
36130DOPC   C3A 9223  16.944   1.914  10.423
36130DOPC   C4A 9224  17.304   1.674  10.663
36130DOPC   C1B 9225  16.234   1.554  10.263
36130DOPC   D2B 9226  16.374   1.764  10.683
36130DOPC   C3B 9227  16.804   1.684  10.853
36130DOPC   C4B 9228  16.874   1.874  11.333
36131DOPC   NC3 9229   5.894   2.464   9.233
36131DOPC   PO4 9230   6.174   2.644   9.343
36131DOPC   GL1 9231   6.094   2.604   9.723
36131DOPC   GL2 9232   6.384   2.624   9.873
36131DOPC   C1A 9233   5.934   2.204   9.773
36131DOPC   D2A 9234   5.664   1.784   9.773
36131DOPC   C3A 9235   5.184   1.804   9.943
36131DOPC   C4A 9236   4.784   1.584  10.163
36131DOPC   C1B 9237   6.344   2.504  10.323
36131DOPC   D2B 9238   6.664   2.414  10.693
36131DOPC   C3B 9239   6.844   2.584  11.043
36131DOPC   C4B 9240   7.094   2.884  11.393
36132DOPC   NC3 9241  10.834   7.494  12.073
36132DOPC   PO4 9242  11.194   7.604  11.943
36132DOPC   GL1 9243  11.414   7.664  12.323
36132DOPC   GL2 9244  11.604   7.544  12.263
36132DOPC   C1A 9245  11.264   7.654  12.723
36132DOPC   D2A 9246  11.134   0.027  13.153
36132DOPC   C3A 9247  11.034   7.664  13.543
36132DOPC   C4A 9248  10.734   7.444  13.843
36132DOPC   C1B 9249  11.684   7.424  12.673
36132DOPC   D2B 9250  11.914   7.164  13.043
36132DOPC   C3B 9251  11.734   7.144  13.503
36132DOPC   C4B 9252  11.734   7.114  13.983
36133DOPC   NC3 9253  15.184   0.764   9.833
36133DOPC   PO4 9254  15.134   0.514  10.083
36133DOPC   GL1 9255  15.364   0.167  10.393
36133DOPC   GL2 9256  15.504   0.344  10.223
36133DOPC   C1A 9257  15.494   0.177  10.813
36133DOPC   D2A 9258  15.714   0.137  11.263
36133DOPC   C3A 9259  15.874   7.654  11.573
36133DOPC   C4A 9260  15.754   7.504  12.043
36133DOPC   C1B 9261  15.914   0.364  10.273
36133DOPC   D2B 9262  16.464   0.454  10.353
36133DOPC   C3B 9263  16.574   0.504  10.753
36133DOPC   C4B 9264  16.854   0.454  11.183
36134DOPC   NC3 9265  18.084   7.304   5.283
36134DOPC   PO4 9266  18.134   7.074   5.593
36134DOPC   GL1 9267  18.344   7.354   5.853
36134DOPC   GL2 9268  18.594   7.394   5.633
36134DOPC   C1A 9269  18.334   7.564   6.293
36134DOPC   D2A 9270  18.204   7.694   6.773
36134DOPC   C3A 9271  18.484   0.047   7.103
36134DOPC   C4A 9272  18.774   0.177   7.513
36134DOPC   C1B 9273  18.844   7.754   5.593
36134DOPC   D2B 9274  19.174   0.284   5.383
36134DOPC   C3B 9275  19.454   0.574   5.613
36134DOPC   C4B 9276  19.734   0.784   5.973
36135DOPC   NC3 9277   3.464   6.614   6.973
36135DOPC   PO4 9278   3.864   6.674   6.953
36135DOPC   GL1 9279   3.874   6.454   7.313
36135DOPC   GL2 9280   3.704   6.674   7.423
36135DOPC   C1A 9281   3.784   6.084   7.403
36135DOPC   D2A 9282   3.504   5.854   7.733
36135DOPC   C3A 9283   3.154   5.694   7.943
36135DOPC   C4A 9284   2.844   5.684   8.273
36135DOPC   C1B 9285   3.284   6.814   7.443
36135DOPC   D2B 9286   3.154   7.244   7.493
36135DOPC   C3B 9287   2.904   7.604   7.653
36135DOPC   C4B 9288   2.694   0.047   8.013
36136DOPC   NC3 9289  14.134   5.854  10.423
36136DOPC   PO4 9290  14.444   5.614  10.343
36136DOPC   GL1 9291  14.704   5.574  10.593
36136DOPC   GL2 9292  14.644   5.314  10.713
36136DOPC   C1A 9293  14.954   5.744  10.923
36136DOPC   D2A 9294  15.144   6.044  11.223
36136DOPC   C3A 9295  15.324   6.284  11.553
36136DOPC   C4A 9296  15.664   6.394  11.883
36136DOPC   C1B 9297  15.034   5.214  10.883
36136DOPC   D2B 9298  15.504   5.154  11.073
36136DOPC   C3B 9299  15.844   5.284  11.363
36136DOPC   C4B 9300  16.154   5.154  11.703
36137DOPS   CNO 9301  10.504   5.984  11.983
36137DOPS   PO4 9302  10.734   6.284  12.043
36137DOPS   GL1 9303  11.014   6.134  12.423
36137DOPS   GL2 9304  10.734   6.094  12.433
36137DOPS   C1A 9305  11.144   6.394  12.823
36137DOPS   D2A 9306  11.224   6.724  13.123
36137DOPS   C3A 9307  11.604   6.604  13.363
36137DOPS   C4A 9308  11.964   6.734  13.683
36137DOPS   C1B 9309  10.444   6.304  12.773
36137DOPS   D2B 9310  10.304   6.374  13.253
36137DOPS   C3B 9311  10.554   6.494  13.623
36137DOPS   C4B 9312  10.724   6.684  14.103
36138DOPS   CNO 9313   3.324   5.734   5.553
36138DOPS   PO4 9314   3.144   5.414   5.473
36138DOPS   GL1 9315   2.954   5.504   5.883
36138DOPS   GL2 9316   2.754   5.524   5.773
36138DOPS   C1A 9317   2.874   5.214   6.153
36138DOPS   D2A 9318   2.874   5.164   6.693
36138DOPS   C3A 9319   2.584   5.104   7.003
36138DOPS   C4A 9320   2.224   4.804   7.033
36138DOPS   C1B 9321   2.384   5.444   6.023
36138DOPS   D2B 9322   2.034   5.574   6.403
36138DOPS   C3B 9323   1.654   5.364   6.613
36138DOPS   C4B 9324   1.204   5.464   6.543
36139DOPS   CNO 9325   8.614   1.754  10.563
36139DOPS   PO4 9326   8.374   1.474  10.613
36139DOPS   GL1 9327   8.054   1.774  10.793
36139DOPS   GL2 9328   7.834   1.594  10.713
36139DOPS   C1A 9329   7.974   1.694  11.263
36139DOPS   D2A 9330   7.784   1.484  11.643
36139DOPS   C3A 9331   7.624   1.304  12.033
36139DOPS   C4A 9332   7.444   1.064  12.403
36139DOPS   C1B 9333   7.534   1.524  11.073
36139DOPS   D2B 9334   7.234   1.404  11.483
36139DOPS   C3B 9335   6.914   1.744  11.483
36139DOPS   C4B 9336   6.514   1.894  11.673
36140DOPS   CNO 9337  16.294   3.954   8.843
36140DOPS   PO4 9338  16.274   3.654   8.633
36140DOPS   GL1 9339  16.374   3.424   8.893
36140DOPS   GL2 9340  16.164   3.474   9.143
36140DOPS   C1A 9341  16.814   3.284   8.913
36140DOPS   D2A 9342  17.284   3.294   9.203
36140DOPS   C3A 9343  17.594   3.624   9.363
36140DOPS   C4A 9344  17.964   3.934   9.493
36140DOPS   C1B 9345  16.554   3.494   9.293
36140DOPS   D2B 9346  16.914   3.264   9.543
36140DOPS   C3B 9347  17.274   3.484   9.713
36140DOPS   C4B 9348  17.654   3.594   9.983
36141DOPS   CNO 9349  15.284   4.064   9.853
36141DOPS   PO4 9350  15.384   4.404   9.953
36141DOPS   GL1 9351  15.564   4.364  10.353
36141DOPS   GL2 9352  15.364   4.104  10.413
36141DOPS   C1A 9353  16.004   4.404  10.313
36141DOPS   D2A 9354  16.464   4.394  10.323
36141DOPS   C3A 9355  16.844   4.324  10.533
36141DOPS   C4A 9356  17.244   4.074  10.623
36141DOPS   C1B 9357  15.544   3.744  10.623
36141DOPS   D2B 9358  15.804   3.404  10.863
36141DOPS   C3B 9359  16.084   3.444  11.173
36141DOPS   C4B 9360  16.274   3.214  11.553
36142DOPS   CNO 9361   3.754   2.594   6.563
36142DOPS   PO4 9362   3.494   2.874   6.573
36142DOPS   GL1 9363   3.234   2.894   6.883
36142DOPS   GL2 9364   3.284   3.164   7.013
36142DOPS   C1A 9365   2.854   2.714   6.943
36142DOPS   D2A 9366   2.444   2.634   7.223
36142DOPS   C3A 9367   2.054   2.454   7.123
36142DOPS   C4A 9368   1.604   2.224   7.203
36142DOPS   C1B 9369   3.144   3.394   7.323
36142DOPS   D2B 9370   3.014   3.354   7.813
36142DOPS   C3B 9371   2.544   3.434   7.933
36142DOPS   C4B 9372   2.314   3.524   8.373
36143DOPS   CNO 9373   8.224   6.004  10.083
36143DOPS   PO4 9374   8.374   5.824  10.383
36143DOPS   GL1 9375   8.114   5.784  10.713
36143DOPS   GL2 9376   8.244   5.824  10.943
36143DOPS   C1A 9377   7.664   5.694  10.833
36143DOPS   D2A 9378   7.174   5.614  10.903
36143DOPS   C3A 9379   6.934   5.734  11.273
36143DOPS   C4A 9380   6.644   5.934  11.643
36143DOPS   C1B 9381   8.074   5.824  11.353
36143DOPS   D2B 9382   7.754   5.954  11.733
36143DOPS   C3B 9383   7.574   5.834  12.103
36143DOPS   C4B 9384   7.294   5.544  12.353
36144DOPS   CNO 9385  22.004   6.754   3.773
36144DOPS   PO4 9386  22.114   6.634   4.103
36144DOPS   GL1 9387  21.954   6.864   4.523
36144DOPS   GL2 9388  22.214   6.864   4.463
36144DOPS   C1A 9389  21.924   6.904   4.943
36144DOPS   D2A 9390  22.104   7.134   5.373
36144DOPS   C3A 9391  21.874   7.534   5.193
36144DOPS   C4A 9392  21.744   0.197   5.053
36144DOPS   C1B 9393  22.564   6.844   4.693
36144DOPS   D2B 9394  22.894   6.754   5.053
36144DOPS   C3B 9395  23.034   6.634   5.443
36144DOPS   C4B 9396  23.054   6.494   5.893
36145DOPS   CNO 9397  20.544   1.724   4.103
36145DOPS   PO4 9398  20.814   1.454   4.113
36145DOPS   GL1 9399  21.024   1.424   4.463
36145DOPS   GL2 9400  21.034   1.104   4.393
36145DOPS   C1A 9401  21.174   1.344   4.913
36145DOPS   D2A 9402  21.374   1.454   5.383
36145DOPS   C3A 9403  21.334   1.234   5.783
36145DOPS   C4A 9404  21.124   1.154   6.273
36145DOPS   C1B 9405  21.164   0.744   4.623
36145DOPS   D2B 9406  21.324   0.344   4.823
36145DOPS   C3B 9407  21.394   0.394   5.303
36145DOPS   C4B 9408  21.514   0.474   5.823
36146DOPS   CNO 9409  16.734   3.354   7.023
36146DOPS   PO4 9410  16.894   2.994   7.033
36146DOPS   GL1 9411  17.184   2.944   7.393
36146DOPS   GL2 9412  17.364   3.154   7.233
36146DOPS   C1A 9413  17.464   2.834   7.733
36146DOPS   D2A 9414  17.564   2.684   8.173
36146DOPS   C3A 9415  17.944   2.464   8.273
36146DOPS   C4A 9416  18.334   2.304   8.503
36146DOPS   C1B 9417  17.754   3.314   7.383
36146DOPS   D2B 9418  18.234   3.434   7.463
36146DOPS   C3B 9419  18.604   3.494   7.743
36146DOPS   C4B 9420  19.024   3.504   7.973
36147DOPS   CNO 9421  10.004   7.324  11.593
36147DOPS   PO4 9422   9.954   7.654  11.763
36147DOPS   GL1 9423   9.824   7.514  12.083
36147DOPS   GL2 9424  10.104   7.334  12.133
36147DOPS   C1A 9425   9.494   7.624  12.293
36147DOPS   D2A 9426   9.024   7.644  12.463
36147DOPS   C3A 9427   8.764   7.244  12.593
36147DOPS   C4A 9428   8.254   7.044  12.463
36147DOPS   C1B 9429  10.054   7.224  12.513
36147DOPS   D2B 9430   9.864   7.084  12.903
36147DOPS   C3B 9431   9.444   6.854  12.923
36147DOPS   C4B 9432   8.964   6.754  13.053
36148DOPS   CNO 9433  15.184   1.264  10.023
36148DOPS   PO4 9434  15.584   1.194   9.943
36148DOPS   GL1 9435  15.884   1.244  10.173
36148DOPS   GL2 9436  16.064   1.124   9.883
36148DOPS   C1A 9437  15.894   1.254  10.593
36148DOPS   D2A 9438  16.214   1.344  11.013
36148DOPS   C3A 9439  16.384   1.744  11.233
36148DOPS   C4A 9440  16.524   2.204  11.413
36148DOPS   C1B 9441  16.464   1.004  10.033
36148DOPS   D2B 9442  16.864   0.804  10.243
36148DOPS   C3B 9443  17.024   0.854  10.693
36148DOPS   C4B 9444  17.114   0.854  11.203
36149DOPS   CNO 9445   7.944   2.394  10.393
36149DOPS   PO4 9446   7.784   2.054  10.543
36149DOPS   GL1 9447   7.514   2.024  10.813
36149DOPS   GL2 9448   7.794   2.074  10.973
36149DOPS   C1A 9449   7.254   1.904  11.143
36149DOPS   D2A 9450   7.364   1.884  11.653
36149DOPS   C3A 9451   7.234   1.604  12.023
36149DOPS   C4A 9452   7.064   1.434  12.423
36149DOPS   C1B 9453   7.664   2.184  11.333
36149DOPS   D2B 9454   7.694   2.264  11.893
36149DOPS   C3B 9455   7.404   2.054  12.243
36149DOPS   C4B 9456   7.294   2.074  12.783
36150DOPS   CNO 9457   9.204   4.904  10.743
36150DOPS   PO4 9458   9.014   4.624  10.903
36150DOPS   GL1 9459   9.004   4.494  11.283
36150DOPS   GL2 9460   8.854   4.284  11.193
36150DOPS   C1A 9461   8.674   4.724  11.463
36150DOPS   D2A 9462   8.264   4.974  11.673
36150DOPS   C3A 9463   8.024   4.964  12.103
36150DOPS   C4A 9464   7.994   4.804  12.583
36150DOPS   C1B 9465   8.454   4.184  11.273
36150DOPS   D2B 9466   8.194   4.244  11.713
36150DOPS   C3B 9467   8.054   4.364  12.103
36150DOPS   C4B 9468   7.814   4.294  12.543
36151DOPS   CNO 9469  23.314   2.354   3.643
36151DOPS   PO4 9470  23.434   2.714   3.733
36151DOPS   GL1 9471  23.454   2.604   4.153
36151DOPS   GL2 9472  23.504   2.334   4.093
36151DOPS   C1A 9473  23.600   2.804   4.523
36151DOPS   D2A 9474  23.590   3.024   4.943
36151DOPS   C3A 9475  23.424   2.934   5.383
36151DOPS   C4A 9476  23.464   2.754   5.843
36151DOPS   C1B 9477  23.344   2.054   4.463
36151DOPS   D2B 9478  23.054   1.764   4.773
36151DOPS   C3B 9479  23.174   1.994   5.113
36151DOPS   C4B 9480  23.324   2.164   5.583
36152DOPS   CNO 9481  19.454   4.614   5.213
36152DOPS   PO4 9482  19.424   4.544   5.583
36152DOPS   GL1 9483  19.574   4.464   5.983
36152DOPS   GL2 9484  19.344   4.584   6.103
36152DOPS   C1A 9485  19.844   4.494   6.323
36152DOPS   D2A 9486  20.114   4.304   6.743
36152DOPS   C3A 9487  20.564   4.394   6.823
36152DOPS   C4A 9488  20.674   4.854   6.953
36152DOPS   C1B 9489  19.334   4.594   6.523
36152DOPS   D2B 9490  19.144   4.784   6.953
36152DOPS   C3B 9491  19.164   4.864   7.443
36152DOPS   C4B 9492  19.464   4.864   7.843
36153DOPS   CNO 9493  15.304   3.334  10.323
36153DOPS   PO4 9494  15.024   3.264  10.553
36153DOPS   GL1 9495  15.244   3.414  10.883
36153DOPS   GL2 9496  15.434   3.114  10.783
36153DOPS   C1A 9497  15.514   3.774  11.073
36153DOPS   D2A 9498  15.484   4.214  11.303
36153DOPS   C3A 9499  15.394   4.014  11.743
36153DOPS   C4A 9500  15.354   4.104  12.263
36153DOPS   C1B 9501  15.574   2.954  11.113
36153DOPS   D2B 9502  15.784   2.934  11.593
36153DOPS   C3B 9503  15.834   3.264  11.873
36153DOPS   C4B 9504  15.624   3.674  12.033
36154DOPS   CNO 9505   2.564   6.504   4.993
36154DOPS   PO4 9506   2.764   6.754   5.233
36154DOPS   GL1 9507   2.444   6.754   5.493
36154DOPS   GL2 9508   2.444   6.474   5.463
36154DOPS   C1A 9509   2.374   6.814   5.933
36154DOPS   D2A 9510   2.244   6.644   6.373
36154DOPS   C3A 9511   2.174   6.734   6.853
36154DOPS   C4A 9512   2.134   6.924   7.323
36154DOPS   C1B 9513   2.464   6.324   5.923
36154DOPS   D2B 9514   2.534   6.204   6.383
36154DOPS   C3B 9515   2.194   6.204   6.743
36154DOPS   C4B 9516   1.824   6.064   7.103
36155DOPS   CNO 9517  12.554   3.304  11.603
36155DOPS   PO4 9518  12.634   3.564  11.903
36155DOPS   GL1 9519  12.764   3.544  12.293
36155DOPS   GL2 9520  12.704   3.734  12.443
36155DOPS   C1A 9521  13.074   3.264  12.423
36155DOPS   D2A 9522  13.144   3.074  12.853
36155DOPS   C3A 9523  13.214   3.014  13.353
36155DOPS   C4A 9524  13.414   3.004  13.803
36155DOPS   C1B 9525  12.594   3.734  12.873
36155DOPS   D2B 9526  12.504   3.754  13.353
36155DOPS   C3B 9527  12.174   3.674  13.633
36155DOPS   C4B 9528  11.854   3.664  14.023
36156DOPS   CNO 9529   2.564   4.474   5.543
36156DOPS   PO4 9530   2.464   4.144   5.383
36156DOPS   GL1 9531   2.134   4.074   5.613
36156DOPS   GL2 9532   2.254   4.264   5.853
36156DOPS   C1A 9533   1.784   3.774   5.713
36156DOPS   D2A 9534   1.634   3.324   5.963
36156DOPS   C3A 9535   1.194   3.194   6.153
36156DOPS   C4A 9536   0.744   3.104   6.313
36156DOPS   C1B 9537   2.044   4.654   5.963
36156DOPS   D2B 9538   2.024   5.114   6.223
36156DOPS   C3B 9539   1.934   5.384   5.873
36156DOPS   C4B 9540   1.774   5.664   5.523
36157DOPS   CNO 9541   6.184   7.074   7.833
36157DOPS   PO4 9542   5.834   7.114   7.873
36157DOPS   GL1 9543   5.654   7.134   8.273
36157DOPS   GL2 9544   5.394   6.974   8.193
36157DOPS   C1A 9545   5.494   7.284   8.593
36157DOPS   D2A 9546   5.484   7.544   8.983
36157DOPS   C3A 9547   5.824   7.514   9.293
36157DOPS   C4A 9548   5.874   7.244   9.723
36157DOPS   C1B 9549   5.124   6.884   8.473
36157DOPS   D2B 9550   5.124   6.494   8.853
36157DOPS   C3B 9551   4.814   6.244   9.143
36157DOPS   C4B 9552   4.854   6.184   9.603
36158DOPS   CNO 9553  10.954   1.224  12.043
36158DOPS   PO4 9554  11.324   1.224  12.013
36158DOPS   GL1 9555  11.314   1.294  12.413
36158DOPS   GL2 9556  11.144   1.164  12.503
36158DOPS   C1A 9557  11.514   1.304  12.793
36158DOPS   D2A 9558  11.734   1.364  13.203
36158DOPS   C3A 9559  12.204   1.544  13.243
36158DOPS   C4A 9560  12.644   1.514  13.373
36158DOPS   C1B 9561  11.154   0.914  12.823
36158DOPS   D2B 9562  11.014   0.634  13.203
36158DOPS   C3B 9563  11.174   0.734  13.643
36158DOPS   C4B 9564  11.524   0.864  13.993
36159DOPS   CNO 9565  16.644   1.304   7.613
36159DOPS   PO4 9566  16.624   1.664   7.653
36159DOPS   GL1 9567  16.904   1.624   7.983
36159DOPS   GL2 9568  16.754   1.374   8.083
36159DOPS   C1A 9569  17.324   1.544   8.103
36159DOPS   D2A 9570  17.784   1.384   8.313
36159DOPS   C3A 9571  17.994   1.024   8.523
36159DOPS   C4A 9572  18.214   0.594   8.293
36159DOPS   C1B 9573  16.864   1.504   8.503
36159DOPS   D2B 9574  17.134   1.564   8.953
36159DOPS   C3B 9575  17.394   1.544   9.323
36159DOPS   C4B 9576  17.644   1.674   9.753
36160DOPS   CNO 9577   2.454   7.154   5.283
36160DOPS   PO4 9578   2.314   7.294   4.953
36160DOPS   GL1 9579   1.924   7.314   5.173
36160DOPS   GL2 9580   1.904   7.014   5.213
36160DOPS   C1A 9581   2.024   7.554   5.483
36160DOPS   D2A 9582   2.254   0.017   5.813
36160DOPS   C3A 9583   2.084   0.424   5.973
36160DOPS   C4A 9584   2.034   0.934   6.033
36160DOPS   C1B 9585   1.924   6.914   5.613
36160DOPS   D2B 9586   1.824   6.874   6.123
36160DOPS   C3B 9587   1.794   6.614   6.543
36160DOPS   C4B 9588   1.744   6.544   7.013
36161DOPS   CNO 9589  21.964   2.734   3.813
36161DOPS   PO4 9590  21.834   2.864   4.153
36161DOPS   GL1 9591  22.034   2.794   4.443
36161DOPS   GL2 9592  22.314   2.944   4.453
36161DOPS   C1A 9593  21.944   2.464   4.693
36161DOPS   D2A 9594  21.724   2.244   4.973
36161DOPS   C3A 9595  21.574   1.804   5.023
36161DOPS   C4A 9596  21.744   1.344   5.023
36161DOPS   C1B 9597  22.264   2.784   4.883
36161DOPS   D2B 9598  22.124   2.424   5.183
36161DOPS   C3B 9599  22.284   2.064   5.413
36161DOPS   C4B 9600  22.554   1.694   5.653
  25.04597   7.82687  32.70926
