INSANE! Membrane UpperLeaflet>M3.DOPC:M3.DOPS=75.0:25.0 LowerLeaflet>M3.DOPC:M3.DOPS=75.0:25.0
56748
    1DOPC   NC3    1  21.964   6.210  13.965  0.0568  0.1627 -0.1530
    1DOPC   PO4    2  21.674   5.929  14.050 -0.1534  0.2381  0.0822
    1DOPC   GL1    3  21.588   5.641  13.665 -0.0330 -0.2475 -0.1331
    1DOPC   GL2    4  21.880   5.766  13.703 -0.1424  0.2171  0.2293
    1DOPC   C1A    5  21.536   5.483  13.285 -0.3849 -0.0148  0.1124
    1DOPC   D2A    6  21.805   5.282  12.965  0.1424 -0.2008 -0.1983
    1DOPC   C3A    7  21.688   5.196  12.513 -0.1249 -0.1440 -0.3787
    1DOPC   C4A    8  21.687   4.928  12.050  0.2178 -0.1046 -0.0050
    1DOPC   C1B    9  22.038   5.585  13.338  0.3713  0.2604 -0.2091
    1DOPC   D2B   10  22.448   5.665  13.065 -0.0827 -0.1803 -0.2410
    1DOPC   C3B   11  22.664   5.344  12.758 -0.2011  0.1519  0.2958
    1DOPC   C4B   12  22.763   4.993  12.411 -0.0243 -0.2681  0.2028
    2DOPC   NC3   13   4.504   0.099  21.591 -0.4201 -0.1507  0.1161
    2DOPC   PO4   14   4.687  -0.066  21.889  0.2574  0.2918  0.1893
    2DOPC   GL1   15   4.897  -0.390  21.712 -0.1118 -0.0944 -0.3904
    2DOPC   GL2   16   4.659  -0.451  21.558 -0.3157 -0.0677  0.1461
    2DOPC   C1A   17   5.197  -0.336  21.404  0.0603  0.0478  0.1862
    2DOPC   D2A   18   5.014  -0.301  20.911  0.0186  0.2609  0.0538
    2DOPC   C3A   19   5.221  -0.074  20.542  0.1577  0.2778  0.2716
    2DOPC   C4A   20   5.565   0.089  20.188  0.0088  0.1917 -0.0891
    2DOPC   C1B   21   4.670  -0.704  21.175 -0.5329 -0.0059  0.0319
    2DOPC   D2B   22   4.292  -0.768  20.891 -0.1812 -0.0959 -0.2034
    2DOPC   C3B   23   4.480  -0.373  20.846  0.1987  0.1062 -0.0523
    2DOPC   C4B   24   4.440   0.037  21.075 -0.3076  0.1631  0.1464
    3DOPC   NC3   25  24.091   6.270  15.095 -0.0968 -0.1330  0.1646
    3DOPC   PO4   26  23.948   6.078  14.741  0.0290  0.0908 -0.0904
    3DOPC   GL1   27  24.188   6.288  14.399 -0.4071 -0.3559  0.0741
    3DOPC   GL2   28  24.204   6.433  14.613 -0.0468 -0.1084  0.0244
    3DOPC   C1A   29  24.260   6.477  14.016  0.0533  0.1430  0.0915
    3DOPC   D2A   30  24.366   6.665  13.623 -0.1353 -0.1884 -0.2561
    3DOPC   C3A   31  24.166   6.660  13.232 -0.1341 -0.0254  0.2259
    3DOPC   C4A   32  24.147   6.323  12.854 -0.0104  0.2805  0.1668
    3DOPC   C1B   33  24.439   6.754  14.420  0.0522 -0.1098 -0.1885
    3DOPC   D2B   34  24.577   6.963  13.966 -0.0608 -0.3469 -0.1388
    3DOPC   C3B   35  24.725   6.949  13.539  0.0848 -0.0207 -0.3638
    3DOPC   C4B   36  24.712   7.095  13.114  0.2692  0.2043  0.0720
    4DOPC   NC3   37  10.056   0.624  22.833 -0.0551 -0.4341 -0.0398
    4DOPC   PO4   38  10.206   0.353  22.608  0.2253 -0.2753 -0.0349
    4DOPC   GL1   39   9.996   0.366  22.270  0.0377  0.0135 -0.0390
    4DOPC   GL2   40  10.205   0.473  21.985 -0.3146  0.0530 -0.0221
    4DOPC   C1A   41   9.962  -0.034  22.028  0.3068 -0.0961  0.3431
    4DOPC   D2A   42  10.056  -0.292  21.584  0.0084 -0.0958 -0.1278
    4DOPC   C3A   43  10.178  -0.341  21.154  0.1720  0.0237 -0.0090
    4DOPC   C4A   44  10.059  -0.260  20.669  0.1229 -0.0283 -0.0563
    4DOPC   C1B   45   9.920   0.369  21.638 -0.1613  0.1267  0.0516
    4DOPC   D2B   46   9.692   0.047  21.373  0.2909 -0.1988  0.0437
    4DOPC   C3B   47   9.328  -0.124  21.202 -0.0781 -0.2208  0.1334
    4DOPC   C4B   48   8.870  -0.183  21.359  0.2278 -0.0160  0.2287
    5DOPC   NC3   49   7.604   7.556  22.800 -0.1964 -0.2098  0.0852
    5DOPC   PO4   50   7.432   7.844  22.613  0.3384 -0.0079 -0.2178
    5DOPC   GL1   51   7.453   7.801  22.224 -0.0594 -0.3133 -0.0643
    5DOPC   GL2   52   7.633   7.926  22.098 -0.0940 -0.0514 -0.2969
    5DOPC   C1A   53   7.256   7.577  21.927 -0.1583 -0.1173  0.1115
    5DOPC   D2A   54   7.193   7.396  21.445  0.2288 -0.4097 -0.0992
    5DOPC   C3A   55   7.236   7.648  21.049 -0.1865  0.0009  0.2261
    5DOPC   C4A   56   7.476   7.901  20.691  0.0093  0.0652  0.2819
    5DOPC   C1B   57   7.654   8.178  21.839  0.2063  0.1782 -0.0702
    5DOPC   D2B   58   7.657   8.460  21.475  0.2480 -0.1250 -0.1064
    5DOPC   C3B   59   7.513   8.781  21.145  0.1299  0.2000 -0.2246
    5DOPC   C4B   60   7.636   8.900  20.749  0.1596 -0.3728 -0.0516
    6DOPC   NC3   61  16.800   1.905  18.122 -0.2575  0.2759 -0.0175
    6DOPC   PO4   62  16.752   1.816  17.758 -0.1118  0.1299 -0.0285
    6DOPC   GL1   63  16.440   2.092  17.586  0.0855 -0.1341  0.1980
    6DOPC   GL2   64  16.533   1.971  17.330 -0.1902  0.4616 -0.1069
    6DOPC   C1A   65  16.016   2.135  17.422 -0.1974  0.0413  0.0436
    6DOPC   D2A   66  15.867   2.394  17.065 -0.2362  0.1367  0.0458
    6DOPC   C3A   67  15.407   2.483  17.025 -0.2118  0.1547  0.0472
    6DOPC   C4A   68  14.964   2.468  16.775  0.1144 -0.0919  0.1407
    6DOPC   C1B   69  16.286   1.771  17.048  0.0751 -0.0314 -0.2006
    6DOPC   D2B   70  15.865   1.656  16.899  0.2663  0.0376  0.1468
    6DOPC   C3B   71  15.551   1.613  16.567 -0.1722  0.1235  0.2000
    6DOPC   C4B   72  15.230   1.337  16.300  0.0381  0.0027  0.1529
    7DOPC   NC3   73  21.946   0.423  14.803 -0.2573 -0.0736  0.3805
    7DOPC   PO4   74  21.923   0.543  14.429  0.1027 -0.2400  0.2164
    7DOPC   GL1   75  22.083   0.419  14.074 -0.3624  0.0638  0.0024
    7DOPC   GL2   76  22.369   0.533  14.214 -0.3840 -0.2517  0.0688
    7DOPC   C1A   77  21.909   0.330  13.641  0.2077 -0.0395  0.0273
    7DOPC   D2A   78  21.929   0.120  13.158  0.2584  0.0278  0.1225
    7DOPC   C3A   79  22.315   0.235  12.959  0.1202  0.2734  0.0181
    7DOPC   C4A   80  22.623   0.486  12.667  0.0409  0.1531 -0.0943
    7DOPC   C1B   81  22.662   0.383  13.874  0.1108 -0.2194  0.0453
    7DOPC   D2B   82  22.825   0.111  13.582  0.1989 -0.1118  0.2199
    7DOPC   C3B   83  22.766   0.260  13.155  0.0990 -0.1161  0.1721
    7DOPC   C4B   84  22.668  -0.062  12.748 -0.0211  0.2693 -0.0426
    8DOPC   NC3   85  15.853   6.193  19.405 -0.1781 -0.0823  0.1727
    8DOPC   PO4   86  15.665   6.186  19.056 -0.1080  0.0474 -0.1567
    8DOPC   GL1   87  15.262   6.256  19.133  0.0196  0.1542 -0.3202
    8DOPC   GL2   88  15.198   6.219  18.857  0.6557  0.2932 -0.3094
    8DOPC   C1A   89  14.884   6.526  19.170 -0.2972  0.2669  0.0466
    8DOPC   D2A   90  14.396   6.519  19.394  0.1434  0.4017 -0.3464
    8DOPC   C3A   91  14.165   6.747  19.759  0.1340  0.4432 -0.1517
    8DOPC   C4A   92  13.664   6.668  19.875 -0.2299 -0.4192  0.1033
    8DOPC   C1B   93  15.104   6.560  18.638 -0.2965  0.2129 -0.0940
    8DOPC   D2B   94  14.937   6.868  18.298 -0.0072 -0.0698  0.1050
    8DOPC   C3B   95  14.978   6.773  17.856  0.0126  0.0046  0.2495
    8DOPC   C4B   96  14.828   7.006  17.387  0.2419 -0.0937  0.0373
    9DOPC   NC3   97  22.371   1.180  15.059  0.1378 -0.1292  0.1509
    9DOPC   PO4   98  22.245   1.377  14.736 -0.0169 -0.0553  0.0396
    9DOPC   GL1   99  22.452   1.575  14.463 -0.4579 -0.0478  0.3684
    9DOPC   GL2  100  22.513   1.367  14.279 -0.2535  0.1647  0.0875
    9DOPC   C1A  101  22.819   1.816  14.478  0.0169 -0.0167 -0.1177
    9DOPC   D2A  102  23.290   1.958  14.273 -0.0939  0.0533  0.1478
    9DOPC   C3A  103  23.538   1.797  13.937 -0.2470 -0.0287  0.0255
    9DOPC   C4A  104  23.913   1.662  13.678 -0.0574  0.2126 -0.1862
    9DOPC   C1B  105  22.722   1.465  13.879 -0.2004 -0.0875  0.2420
    9DOPC   D2B  106  23.014   1.501  13.501  0.1136 -0.2462  0.1116
    9DOPC   C3B  107  23.022   1.517  13.019  0.0155  0.2134  0.0217
    9DOPC   C4B  108  23.153   1.749  12.607  0.1170 -0.0482  0.1792
   10DOPC   NC3  109  23.526   0.502  14.952 -0.0349 -0.1705 -0.0204
   10DOPC   PO4  110  23.904   0.553  15.091  0.1118  0.2490 -0.1873
   10DOPC   GL1  111  24.297   0.628  14.977 -0.0866 -0.2496  0.2656
   10DOPC   GL2  112  24.437   0.478  15.099  0.2217 -0.0517 -0.1532
   10DOPC   C1A  113  24.527   0.550  14.592  0.2497  0.0779  0.0775
   10DOPC   D2A  114  24.825   0.445  14.191 -0.0097  0.0524  0.2344
   10DOPC   C3A  115  24.775   0.155  13.859 -0.3056 -0.1266 -0.2246
   10DOPC   C4A  116  24.652  -0.394  13.800 -0.2787 -0.0012  0.0711
   10DOPC   C1B  117  24.780   0.236  14.891  0.0409  0.1541  0.2041
   10DOPC   D2B  118  25.087   0.124  14.511  0.0965 -0.1340 -0.2761
   10DOPC   C3B  119  25.091  -0.189  14.146 -0.0266  0.0508  0.1289
   10DOPC   C4B  120  25.156  -0.228  13.663 -0.0772 -0.0893 -0.1053
   11DOPC   NC3  121  19.397   3.220  14.378 -0.0574  0.0652  0.0068
   11DOPC   PO4  122  19.608   2.912  14.304  0.0504  0.0618 -0.1275
   11DOPC   GL1  123  19.364   2.951  13.963  0.2312 -0.1106  0.1187
   11DOPC   GL2  124  19.550   2.881  13.812 -0.2344 -0.3047  0.1117
   11DOPC   C1A  125  19.202   3.231  13.647 -0.2646  0.1311 -0.1569
   11DOPC   D2A  126  19.051   3.576  13.274 -0.0714 -0.1343  0.0168
   11DOPC   C3A  127  19.171   3.544  12.813 -0.0636 -0.0221  0.0662
   11DOPC   C4A  128  19.296   3.418  12.367 -0.1058 -0.1831 -0.1897
   11DOPC   C1B  129  19.692   2.976  13.436  0.0649  0.2282  0.4929
   11DOPC   D2B  130  19.338   3.211  13.154 -0.0017  0.0328  0.2196
   11DOPC   C3B  131  18.910   3.118  13.271  0.2219  0.1219  0.1548
   11DOPC   C4B  132  18.474   2.963  13.340  0.0853  0.0698 -0.0519
   12DOPC   NC3  133   0.866   0.131  17.834 -0.3920  0.0282 -0.0223
   12DOPC   PO4  134   0.617   0.368  17.702 -0.0188  0.0883 -0.4160
   12DOPC   GL1  135   0.919   0.632  17.434 -0.2217 -0.2019 -0.1732
   12DOPC   GL2  136   1.117   0.648  17.702  0.1126  0.2021 -0.1282
   12DOPC   C1A  137   1.285   0.492  17.265  0.1637  0.0211 -0.1209
   12DOPC   D2A  138   1.680   0.233  17.296 -0.0643  0.2310  0.0932
   12DOPC   C3A  139   2.159   0.175  17.363 -0.1117 -0.2202  0.0509
   12DOPC   C4A  140   2.646   0.122  17.251 -0.0399 -0.0224  0.1012
   12DOPC   C1B  141   1.327   0.324  17.825 -0.0417  0.1112 -0.2600
   12DOPC   D2B  142   1.564  -0.055  17.850  0.2789 -0.1729 -0.2183
   12DOPC   C3B  143   1.321  -0.065  17.440 -0.2122  0.0733 -0.1706
   12DOPC   C4B  144   1.355   0.130  16.948  0.3404  0.4486 -0.0229
   13DOPC   NC3  145  16.222   1.366  18.550  0.3135 -0.0504 -0.2733
   13DOPC   PO4  146  16.050   1.639  18.293  0.3367  0.3205  0.0769
   13DOPC   GL1  147  15.871   1.722  17.965  0.3336 -0.3498 -0.2690
   13DOPC   GL2  148  15.903   1.430  17.858 -0.0756  0.3119  0.2516
   13DOPC   C1A  149  15.505   2.050  17.963 -0.0558  0.0451 -0.1092
   13DOPC   D2A  150  15.041   2.244  17.814 -0.2208  0.2978  0.2723
   13DOPC   C3A  151  14.655   2.043  17.599 -0.1606 -0.0073 -0.0785
   13DOPC   C4A  152  14.306   1.947  17.316  0.0201  0.0743  0.1806
   13DOPC   C1B  153  15.664   1.687  17.484 -0.1899 -0.2621  0.0791
   13DOPC   D2B  154  15.432   1.918  17.073  0.1752  0.1119  0.1612
   13DOPC   C3B  155  15.081   2.011  16.829 -0.0437 -0.0111  0.0338
   13DOPC   C4B  156  14.560   2.016  16.858 -0.1782  0.0836 -0.4540
   14DOPC   NC3  157  10.484   5.759  22.526 -0.1500  0.1804  0.2054
   14DOPC   PO4  158  10.456   6.110  22.340  0.0559  0.0379 -0.1890
   14DOPC   GL1  159  10.336   6.132  22.029 -0.1354 -0.2508 -0.2249
   14DOPC   GL2  160  10.291   5.851  21.931 -0.4347 -0.0137  0.0657
   14DOPC   C1A  161  10.130   6.380  21.705 -0.4237  0.0610  0.1029
   14DOPC   D2A  162   9.805   6.402  21.353 -0.0828 -0.0863 -0.1553
   14DOPC   C3A  163   9.456   6.294  21.138 -0.0771  0.0977 -0.1511
   14DOPC   C4A  164   9.285   5.831  21.050 -0.0081  0.3250  0.1309
   14DOPC   C1B  165   9.977   5.781  21.612  0.0926  0.0852  0.1894
   14DOPC   D2B  166   9.786   5.905  21.147 -0.1271 -0.0158 -0.1020
   14DOPC   C3B  167   9.697   5.575  20.839 -0.1262  0.0099  0.3444
   14DOPC   C4B  168   9.665   5.507  20.397  0.1125  0.0208  0.0311
   15DOPC   NC3  169  24.485   6.736  15.816  0.1705 -0.1404 -0.1643
   15DOPC   PO4  170  24.483   7.132  15.911 -0.0515  0.0911  0.1807
   15DOPC   GL1  171  24.552   7.211  15.554  0.0116 -0.1619 -0.2843
   15DOPC   GL2  172  24.532   6.973  15.440  0.1597  0.0705 -0.0934
   15DOPC   C1A  173  24.766   7.305  15.195 -0.2145  0.1788  0.0754
   15DOPC   D2A  174  24.766   7.498  14.717 -0.0938  0.0848 -0.0948
   15DOPC   C3A  175  24.580   7.686  14.304  0.1607  0.2285 -0.3102
   15DOPC   C4A  176  24.348   8.088  14.203  0.0517 -0.4085  0.2149
   15DOPC   C1B  177  24.924   6.755  15.210  0.1308  0.0596  0.0142
   15DOPC   D2B  178  25.253   6.602  14.871 -0.0751 -0.0814 -0.2926
   15DOPC   C3B  179  25.628   6.262  15.027  0.0351 -0.0472 -0.0754
   15DOPC   C4B  180  25.876   5.884  15.107  0.1989  0.2224  0.0580
   16DOPC   NC3  181  24.478   4.969  14.978  0.0965 -0.2244  0.0153
   16DOPC   PO4  182  24.575   5.313  15.211  0.4883  0.1478  0.1161
   16DOPC   GL1  183  24.718   5.477  14.841  0.1231 -0.0818  0.1207
   16DOPC   GL2  184  24.740   5.763  14.954 -0.0634 -0.0089 -0.1189
   16DOPC   C1A  185  24.994   5.490  14.456 -0.1065  0.1153  0.0328
   16DOPC   D2A  186  25.307   5.530  14.023 -0.0114 -0.1820 -0.2494
   16DOPC   C3A  187  25.553   5.698  13.672  0.2056  0.0898  0.0043
   16DOPC   C4A  188  26.022   5.869  13.629  0.0189  0.2511 -0.4156
   16DOPC   C1B  189  25.137   5.797  15.141  0.1029  0.2804 -0.3725
   16DOPC   D2B  190  25.503   6.035  15.439 -0.0812  0.3249  0.0921
   16DOPC   C3B  191  25.840   6.410  15.404 -0.1964 -0.0848 -0.4536
   16DOPC   C4B  192  26.191   6.663  15.161  0.3105  0.0468 -0.1368
   17DOPC   NC3  193   2.143   4.570  18.506 -0.0087  0.1732  0.2081
   17DOPC   PO4  194   1.887   4.309  18.337  0.4003 -0.2568  0.3131
   17DOPC   GL1  195   2.129   4.037  18.097 -0.0594 -0.3227 -0.0880
   17DOPC   GL2  196   2.247   4.324  17.920 -0.0035  0.1779  0.0561
   17DOPC   C1A  197   2.490   3.830  17.949  0.0239  0.1546  0.0240
   17DOPC   D2A  198   2.906   3.647  17.772  0.3588 -0.0959  0.0367
   17DOPC   C3A  199   2.906   3.326  17.407 -0.1346  0.0026 -0.0753
   17DOPC   C4A  200   2.756   2.870  17.268  0.1276  0.0471  0.2908
   17DOPC   C1B  201   2.586   4.303  17.700 -0.1525 -0.0958  0.2996
   17DOPC   D2B  202   3.061   4.145  17.681  0.2718  0.1602 -0.3046
   17DOPC   C3B  203   3.184   3.985  17.301 -0.1346 -0.0622 -0.2645
   17DOPC   C4B  204   3.457   4.004  16.944 -0.0183  0.0686  0.0903
   18DOPC   NC3  205   9.352   2.348  22.717  0.1574 -0.0964 -0.0876
   18DOPC   PO4  206   9.385   2.742  22.705 -0.0684  0.0319 -0.1459
   18DOPC   GL1  207   9.279   2.676  22.325  0.0431 -0.1544  0.0302
   18DOPC   GL2  208   9.414   2.476  22.201  0.1072 -0.0926 -0.1434
   18DOPC   C1A  209   9.482   2.968  22.025 -0.2731 -0.0331  0.0941
   18DOPC   D2A  210   9.555   3.094  21.584 -0.0969  0.0793  0.1056
   18DOPC   C3A  211   9.513   3.587  21.531  0.0681  0.1310  0.2025
   18DOPC   C4A  212   9.639   4.076  21.369 -0.0635 -0.0025 -0.1736
   18DOPC   C1B  213   9.496   2.544  21.717  0.0538 -0.0877  0.1228
   18DOPC   D2B  214   9.551   2.454  21.213  0.0995  0.0359 -0.2609
   18DOPC   C3B  215   9.437   2.430  20.802  0.1194 -0.1272 -0.0943
   18DOPC   C4B  216   9.071   2.571  20.506 -0.0423 -0.4263 -0.0737
   19DOPC   NC3  217  17.321   0.674  16.723 -0.0065  0.0860 -0.3073
   19DOPC   PO4  218  17.256   0.376  16.485 -0.0781  0.2340 -0.3682
   19DOPC   GL1  219  16.987   0.377  16.224  0.3097  0.1963  0.0450
   19DOPC   GL2  220  17.222   0.353  15.977  0.0598 -0.0902  0.1046
   19DOPC   C1A  221  16.483   0.381  16.209  0.1151  0.2888 -0.1439
   19DOPC   D2A  222  16.052   0.173  16.273 -0.1690  0.0233 -0.2608
   19DOPC   C3A  223  15.618  -0.068  16.189 -0.0404 -0.0105  0.2483
   19DOPC   C4A  224  15.184  -0.120  15.943 -0.1405  0.1818 -0.0551
   19DOPC   C1B  225  16.948   0.551  15.707  0.2381  0.0920 -0.0849
   19DOPC   D2B  226  16.576   0.744  15.368  0.0197 -0.0958  0.0357
   19DOPC   C3B  227  16.539   1.027  15.076 -0.0399  0.0725  0.0686
   19DOPC   C4B  228  16.500   1.418  14.772 -0.0507 -0.2487  0.0347
   20DOPC   NC3  229  15.866   2.059  18.354 -0.1934 -0.2601 -0.0481
   20DOPC   PO4  230  16.025   2.409  18.261 -0.1483 -0.0895  0.3012
   20DOPC   GL1  231  15.833   2.613  17.835  0.1943 -0.0598 -0.0216
   20DOPC   GL2  232  15.804   2.330  17.821 -0.2172 -0.1423  0.0811
   20DOPC   C1A  233  15.638   2.743  17.478  0.0156  0.1763  0.1903
   20DOPC   D2A  234  15.343   3.090  17.136 -0.2530  0.0166  0.3096
   20DOPC   C3A  235  15.154   3.039  16.670 -0.1015  0.0944 -0.1693
   20DOPC   C4A  236  14.946   2.724  16.270  0.1861 -0.0555 -0.1099
   20DOPC   C1B  237  15.511   2.233  17.482 -0.0813 -0.0882 -0.0831
   20DOPC   D2B  238  15.067   2.249  17.345 -0.1193  0.1233  0.1474
   20DOPC   C3B  239  14.642   2.369  17.169  0.2497 -0.0621 -0.0666
   20DOPC   C4B  240  14.288   2.468  16.807  0.1643  0.0333  0.2528
   21DOPC   NC3  241  15.631   5.550  19.038 -0.1548  0.1007 -0.1277
   21DOPC   PO4  242  15.310   5.383  19.289 -0.0444 -0.1070  0.2217
   21DOPC   GL1  243  14.949   5.222  19.208 -0.0467 -0.2810  0.0367
   21DOPC   GL2  244  15.062   4.977  19.201  0.1905  0.1621  0.1704
   21DOPC   C1A  245  14.779   5.293  18.809  0.2562  0.1686 -0.1231
   21DOPC   D2A  246  14.408   5.503  18.514 -0.0385 -0.0256 -0.0777
   21DOPC   C3A  247  14.047   5.699  18.364 -0.0836 -0.3843  0.3979
   21DOPC   C4A  248  13.635   5.987  18.285 -0.0680 -0.3003 -0.1650
   21DOPC   C1B  249  14.688   4.831  19.093 -0.2372  0.2378 -0.2651
   21DOPC   D2B  250  14.204   4.772  18.851 -0.4727 -0.1827  0.0447
   21DOPC   C3B  251  13.717   4.874  18.794 -0.1422  0.2130 -0.0315
   21DOPC   C4B  252  13.281   5.089  18.807  0.2041  0.1567 -0.2545
   22DOPC   NC3  253  18.691   3.422  15.171 -0.1653  0.1128  0.1752
   22DOPC   PO4  254  18.542   3.084  15.011 -0.2216 -0.4621  0.1116
   22DOPC   GL1  255  18.249   3.027  14.760  0.1495  0.3803  0.1287
   22DOPC   GL2  256  18.445   3.226  14.622 -0.0479  0.2948 -0.0747
   22DOPC   C1A  257  17.960   3.113  14.456  0.1328  0.2405  0.1711
   22DOPC   D2A  258  17.646   3.114  14.083 -0.1194  0.5221 -0.0773
   22DOPC   C3A  259  17.597   2.934  13.607  0.4323  0.0260 -0.2684
   22DOPC   C4A  260  17.395   3.164  13.197  0.0695 -0.1055  0.0413
   22DOPC   C1B  261  18.251   3.397  14.203 -0.0443 -0.1427  0.1736
   22DOPC   D2B  262  17.837   3.583  14.167  0.0659 -0.2708  0.0691
   22DOPC   C3B  263  17.468   3.599  14.025  0.2735  0.2773 -0.2784
   22DOPC   C4B  264  17.386   3.445  13.585 -0.1941 -0.0949 -0.1695
   23DOPC   NC3  265   8.410   6.216  22.989 -0.3713 -0.0847 -0.0242
   23DOPC   PO4  266   8.784   6.255  22.869 -0.4240  0.0038 -0.0327
   23DOPC   GL1  267   8.826   6.505  22.587  0.1581  0.0119  0.1530
   23DOPC   GL2  268   9.142   6.339  22.569 -0.1365 -0.3452  0.1788
   23DOPC   C1A  269   8.670   6.833  22.343  0.1521 -0.1848 -0.3396
   23DOPC   D2A  270   8.346   7.242  22.300 -0.1218 -0.1360  0.0423
   23DOPC   C3A  271   8.542   7.309  21.846 -0.2199  0.1706 -0.0678
   23DOPC   C4A  272   8.685   7.161  21.371  0.0195 -0.1424  0.1730
   23DOPC   C1B  273   9.113   6.158  22.256 -0.2349  0.1612 -0.3155
   23DOPC   D2B  274   9.097   5.925  21.785 -0.1209 -0.0791  0.0607
   23DOPC   C3B  275   9.101   6.109  21.398  0.1715 -0.1788 -0.1286
   23DOPC   C4B  276   8.987   6.319  20.954 -0.0531  0.1844 -0.0349
   24DOPC   NC3  277   2.044   2.840  18.133  0.0630 -0.0917 -0.2358
   24DOPC   PO4  278   1.874   3.036  17.798  0.2402 -0.2070 -0.2284
   24DOPC   GL1  279   2.065   3.013  17.424  0.1091 -0.0107 -0.2506
   24DOPC   GL2  280   2.366   3.067  17.512  0.0372  0.0902 -0.1365
   24DOPC   C1A  281   2.290   2.826  17.126 -0.1899  0.0043  0.1182
   24DOPC   D2A  282   2.326   3.055  16.659 -0.0106 -0.2629 -0.1187
   24DOPC   C3A  283   2.250   2.715  16.286  0.0751 -0.1963 -0.1165
   24DOPC   C4A  284   2.184   2.402  15.912  0.2245  0.1953 -0.0342
   24DOPC   C1B  285   2.534   3.271  17.132  0.2366 -0.0575 -0.0706
   24DOPC   D2B  286   2.807   3.319  16.785 -0.0304  0.2592 -0.0284
   24DOPC   C3B  287   3.196   3.115  16.974 -0.0055 -0.4053  0.3341
   24DOPC   C4B  288   3.715   3.037  17.186 -0.0772  0.3812 -0.1227
   25DOPC   NC3  289  16.011   3.103  18.972  0.0192 -0.2612  0.2040
   25DOPC   PO4  290  15.929   3.168  18.617  0.0861 -0.2244 -0.0415
   25DOPC   GL1  291  15.622   3.170  18.326  0.2263 -0.5079  0.4358
   25DOPC   GL2  292  15.481   3.420  18.365  0.0414  0.2638 -0.0940
   25DOPC   C1A  293  15.296   2.965  18.201 -0.1522  0.1085 -0.0262
   25DOPC   D2A  294  14.909   2.679  18.055  0.3628 -0.1352  0.0867
   25DOPC   C3A  295  14.644   2.656  17.630  0.1064 -0.1960 -0.2070
   25DOPC   C4A  296  14.298   2.752  17.234 -0.0894 -0.0469 -0.0635
   25DOPC   C1B  297  15.223   3.533  18.031  0.1977 -0.1588 -0.1180
   25DOPC   D2B  298  14.854   3.598  17.905  0.0949 -0.1943  0.3247
   25DOPC   C3B  299  14.470   3.730  17.663  0.1573 -0.1116  0.1165
   25DOPC   C4B  300  14.091   3.671  17.334 -0.1580 -0.2647  0.0520
   26DOPC   NC3  301   2.441   4.641  20.058 -0.0952  0.0384 -0.3238
   26DOPC   PO4  302   2.757   4.762  20.246 -0.0746  0.4007  0.2879
   26DOPC   GL1  303   3.012   4.687  20.060  0.1206 -0.4475 -0.0392
   26DOPC   GL2  304   3.259   4.774  20.285  0.0703 -0.0956  0.1676
   26DOPC   C1A  305   3.145   4.652  19.579  0.1335  0.0394 -0.2637
   26DOPC   D2A  306   3.517   4.464  19.277  0.1750  0.1300  0.2424
   26DOPC   C3A  307   3.931   4.502  19.239  0.3261 -0.2984 -0.1750
   26DOPC   C4A  308   4.329   4.493  19.010 -0.1806 -0.0429  0.2167
   26DOPC   C1B  309   3.686   4.659  20.107  0.2836  0.0631 -0.0737
   26DOPC   D2B  310   3.991   4.202  20.108  0.1960 -0.0691  0.0712
   26DOPC   C3B  311   4.413   4.079  19.947 -0.0011 -0.2279 -0.2812
   26DOPC   C4B  312   4.857   4.138  19.869 -0.1752  0.1177  0.0623
   27DOPC   NC3  313   0.668   2.883  16.933 -0.0736  0.0319  0.0737
   27DOPC   PO4  314   0.644   3.148  16.604  0.4656  0.0297 -0.2645
   27DOPC   GL1  315   0.769   2.997  16.196  0.1243  0.1053 -0.1201
   27DOPC   GL2  316   0.789   3.203  16.111 -0.2600 -0.1422  0.2122
   27DOPC   C1A  317   1.004   2.794  15.936  0.0840 -0.2759  0.2144
   27DOPC   D2A  318   1.526   2.662  15.821 -0.4330 -0.1715 -0.2187
   27DOPC   C3A  319   1.837   2.908  16.031  0.3574  0.0023 -0.1457
   27DOPC   C4A  320   2.152   3.245  16.158 -0.1073  0.1624  0.0144
   27DOPC   C1B  321   1.135   3.300  15.851 -0.0554  0.1638  0.0504
   27DOPC   D2B  322   1.647   3.194  15.664 -0.0121  0.0602  0.0585
   27DOPC   C3B  323   2.084   3.301  15.614 -0.3289  0.0717 -0.1083
   27DOPC   C4B  324   2.553   3.304  15.565 -0.0668  0.1688 -0.3572
   28DOPC   NC3  325  15.756   4.512  18.576 -0.0668  0.0478  0.0478
   28DOPC   PO4  326  16.006   4.731  18.361 -0.2048 -0.0767 -0.0712
   28DOPC   GL1  327  15.848   4.630  17.955 -0.3677 -0.1202  0.1827
   28DOPC   GL2  328  15.637   4.809  18.177  0.1456 -0.3684 -0.3360
   28DOPC   C1A  329  15.432   4.662  17.724  0.0966 -0.3319 -0.0479
   28DOPC   D2A  330  15.017   4.867  17.571  0.2323  0.1986  0.0210
   28DOPC   C3A  331  14.616   4.751  17.283 -0.1187  0.1269  0.1322
   28DOPC   C4A  332  14.210   4.872  17.023 -0.2067  0.2711 -0.0355
   28DOPC   C1B  333  15.326   5.084  18.023 -0.2376 -0.0890 -0.2834
   28DOPC   D2B  334  14.919   5.294  17.986  0.0273  0.0133 -0.1556
   28DOPC   C3B  335  14.587   5.081  17.740 -0.3475  0.2329  0.0695
   28DOPC   C4B  336  14.296   5.215  17.364 -0.0309 -0.0668 -0.1230
   29DOPC   NC3  337  15.217   2.269  19.574 -0.3427 -0.2733  0.1775
   29DOPC   PO4  338  14.968   2.141  19.875 -0.1530 -0.1503  0.3528
   29DOPC   GL1  339  14.632   2.005  19.689 -0.1290 -0.0003  0.2057
   29DOPC   GL2  340  14.668   2.147  19.416  0.4786 -0.2269 -0.0670
   29DOPC   C1A  341  14.249   2.239  19.738 -0.0444 -0.0139  0.0333
   29DOPC   D2A  342  13.813   2.411  19.639  0.1212  0.0596  0.1561
   29DOPC   C3A  343  13.447   2.466  19.410  0.2051 -0.0672 -0.0709
   29DOPC   C4A  344  13.022   2.333  19.233 -0.0449  0.1275 -0.1451
   29DOPC   C1B  345  14.391   2.284  19.115 -0.0269 -0.1252 -0.1737
   29DOPC   D2B  346  14.163   2.335  18.752  0.0379  0.0723  0.1361
   29DOPC   C3B  347  13.762   2.260  18.546 -0.0115  0.1280  0.0186
   29DOPC   C4B  348  13.338   2.070  18.517 -0.1185 -0.0934 -0.0510
   30DOPC   NC3  349  24.081   1.841  14.807  0.1939  0.2164  0.1221
   30DOPC   PO4  350  24.123   1.556  15.093 -0.0443  0.0524  0.0827
   30DOPC   GL1  351  24.499   1.451  15.001  0.0812  0.2578  0.0357
   30DOPC   GL2  352  24.402   1.215  14.828  0.0522 -0.1430 -0.0623
   30DOPC   C1A  353  24.793   1.533  14.727 -0.2134  0.0598 -0.0696
   30DOPC   D2A  354  25.256   1.648  14.603  0.0343  0.0008 -0.0520
   30DOPC   C3A  355  25.620   1.859  14.821 -0.2955  0.0902  0.0115
   30DOPC   C4A  356  26.076   2.023  14.766  0.1132 -0.1219  0.2000
   30DOPC   C1B  357  24.321   1.394  14.450  0.1841  0.0230 -0.1660
   30DOPC   D2B  358  24.382   1.309  13.934 -0.0638  0.0677  0.1573
   30DOPC   C3B  359  24.447   1.082  13.517 -0.0860  0.2163 -0.0131
   30DOPC   C4B  360  24.308   0.695  13.287 -0.3482  0.2859  0.2603
   31DOPC   NC3  361  12.433   0.187  21.786  0.2273 -0.2075  0.0574
   31DOPC   PO4  362  12.251   0.454  22.018 -0.0252 -0.0606  0.2533
   31DOPC   GL1  363  11.880   0.540  21.761 -0.2108 -0.2099 -0.0442
   31DOPC   GL2  364  11.719   0.445  21.915  0.0032  0.3542  0.0994
   31DOPC   C1A  365  11.785   0.358  21.412 -0.1002  0.0775  0.1610
   31DOPC   D2A  366  11.950   0.367  20.910 -0.1525 -0.0803 -0.0588
   31DOPC   C3A  367  11.734   0.697  20.621  0.0165  0.3957 -0.1472
   31DOPC   C4A  368  11.519   1.147  20.626 -0.2850 -0.2501  0.2144
   31DOPC   C1B  369  11.255   0.341  21.889  0.1140  0.1997 -0.1130
   31DOPC   D2B  370  10.733   0.467  21.926 -0.2092 -0.1393 -0.2797
   31DOPC   C3B  371  10.397   0.637  21.564 -0.0968  0.1306  0.2689
   31DOPC   C4B  372  10.232   0.864  21.176  0.0397  0.0004 -0.0757
   32DOPC   NC3  373   8.506   4.547  22.959 -0.1383 -0.1140 -0.1611
   32DOPC   PO4  374   8.680   4.873  22.797  0.2310 -0.2130  0.0692
   32DOPC   GL1  375   8.903   4.897  22.527  0.1932 -0.2342  0.0452
   32DOPC   GL2  376   8.917   4.664  22.309  0.1763  0.0324  0.1441
   32DOPC   C1A  377   8.957   5.190  22.238 -0.0738 -0.2838  0.0894
   32DOPC   D2A  378   8.835   5.450  21.810 -0.1264  0.3094  0.1595
   32DOPC   C3A  379   8.892   5.632  21.367 -0.2912  0.1638 -0.1093
   32DOPC   C4A  380   8.544   5.553  21.046 -0.3634  0.1562 -0.1497
   32DOPC   C1B  381   8.996   4.849  21.845 -0.1520 -0.2676  0.0582
   32DOPC   D2B  382   9.185   4.820  21.347  0.0986  0.0481  0.2801
   32DOPC   C3B  383   9.289   4.454  21.075 -0.1100 -0.0940  0.0539
   32DOPC   C4B  384   9.271   4.043  20.791 -0.2321  0.2092 -0.2978
   33DOPC   NC3  385  16.038   7.437  18.212 -0.3836  0.2048  0.0570
   33DOPC   PO4  386  16.032   7.052  18.382  0.1250  0.0011  0.0283
   33DOPC   GL1  387  15.615   6.825  18.423  0.2999  0.0960  0.4661
   33DOPC   GL2  388  15.433   6.918  18.511  0.2278 -0.3558  0.1033
   33DOPC   C1A  389  15.385   6.555  18.124  0.0394  0.1349  0.0258
   33DOPC   D2A  390  15.406   6.168  17.868 -0.1345 -0.1314  0.3157
   33DOPC   C3A  391  15.164   6.062  17.401  0.1722  0.1756  0.2708
   33DOPC   C4A  392  14.676   5.971  17.206  0.1251 -0.3943 -0.0730
   33DOPC   C1B  393  15.386   7.160  18.098 -0.0667  0.0198 -0.2038
   33DOPC   D2B  394  15.674   7.489  17.778 -0.0052 -0.0627 -0.1364
   33DOPC   C3B  395  15.308   7.669  17.521  0.3526 -0.2241  0.1747
   33DOPC   C4B  396  14.805   7.747  17.411  0.0747 -0.3323  0.4324
   34DOPC   NC3  397   3.038   3.934  20.769 -0.0951 -0.1693 -0.0210
   34DOPC   PO4  398   3.430   3.816  20.759  0.0101 -0.2518 -0.2376
   34DOPC   GL1  399   3.599   3.575  20.445 -0.0470  0.1313  0.2593
   34DOPC   GL2  400   3.411   3.569  20.288  0.1249 -0.3490 -0.0158
   34DOPC   C1A  401   3.893   3.383  20.228 -0.2045  0.1207 -0.0005
   34DOPC   D2A  402   4.376   3.360  20.050  0.0452  0.0452  0.0190
   34DOPC   C3A  403   4.535   3.251  19.626 -0.0487 -0.1052 -0.1178
   34DOPC   C4A  404   4.666   2.994  19.213  0.3587 -0.0618  0.0548
   34DOPC   C1B  405   3.492   3.357  19.942 -0.0047 -0.2084 -0.1290
   34DOPC   D2B  406   3.588   3.090  19.512 -0.1587  0.1649  0.0204
   34DOPC   C3B  407   3.698   2.960  19.123  0.0114  0.1033 -0.3208
   34DOPC   C4B  408   3.676   2.685  18.711 -0.3314  0.0222 -0.2542
   35DOPC   NC3  409  14.694   3.487  20.296  0.2092  0.2639 -0.1870
   35DOPC   PO4  410  14.484   3.233  20.530 -0.1164 -0.0060 -0.0059
   35DOPC   GL1  411  14.056   3.182  20.256  0.0584 -0.0328 -0.1808
   35DOPC   GL2  412  14.218   3.197  20.003  0.3458  0.0683 -0.1346
   35DOPC   C1A  413  13.831   2.849  20.098  0.0485 -0.2186  0.5343
   35DOPC   D2A  414  13.385   2.596  19.924  0.3495  0.0992 -0.1204
   35DOPC   C3A  415  13.112   2.771  19.615 -0.0658 -0.2363  0.1503
   35DOPC   C4A  416  12.804   2.774  19.156 -0.0834  0.3144 -0.0049
   35DOPC   C1B  417  13.931   3.220  19.695 -0.1711  0.0371 -0.0102
   35DOPC   D2B  418  13.692   3.354  19.234 -0.2682 -0.0726 -0.2338
   35DOPC   C3B  419  13.353   2.989  19.110 -0.1338  0.1078  0.0653
   35DOPC   C4B  420  13.023   3.017  18.688 -0.4252 -0.3516  0.2918
   36DOPC   NC3  421  16.894   7.355  17.678  0.1948 -0.3102  0.0658
   36DOPC   PO4  422  17.016   7.446  17.328  0.1340 -0.1009  0.3560
   36DOPC   GL1  423  16.718   7.540  16.995 -0.0507 -0.1941 -0.1548
   36DOPC   GL2  424  16.598   7.743  16.957  0.1115 -0.2503 -0.0114
   36DOPC   C1A  425  16.335   7.265  16.912  0.2026  0.0719  0.0424
   36DOPC   D2A  426  15.911   7.182  16.646 -0.2300  0.2309 -0.1053
   36DOPC   C3A  427  15.543   7.153  16.323  0.2888 -0.0327  0.3365
   36DOPC   C4A  428  15.137   7.185  16.005  0.0385  0.1076 -0.0623
   36DOPC   C1B  429  16.167   7.708  17.111 -0.3936  0.2272  0.0253
   36DOPC   D2B  430  15.696   7.589  17.238 -0.1200  0.2979  0.1178
   36DOPC   C3B  431  15.339   7.809  17.037 -0.1494  0.0700  0.0304
   36DOPC   C4B  432  14.883   7.908  16.839 -0.0824  0.1570  0.6659
   37DOPC   NC3  433   0.345   3.358  16.139  0.1375 -0.1239  0.1984
   37DOPC   PO4  434   0.301   3.056  15.884  0.1160 -0.0589 -0.3009
   37DOPC   GL1  435   0.479   3.185  15.613  0.1907  0.1334  0.1245
   37DOPC   GL2  436   0.749   3.283  15.570  0.0250  0.0011  0.0058
   37DOPC   C1A  437   0.377   2.964  15.231 -0.1440  0.0672 -0.0480
   37DOPC   D2A  438   0.416   2.862  14.766  0.1669 -0.1999 -0.2215
   37DOPC   C3A  439   0.757   2.844  14.447 -0.1358 -0.1181 -0.4807
   37DOPC   C4A  440   1.204   2.756  14.288 -0.3340 -0.0523  0.1262
   37DOPC   C1B  441   0.845   3.268  15.116  0.2764  0.1840 -0.0468
   37DOPC   D2B  442   1.210   3.519  14.783  0.1251  0.1653  0.2125
   37DOPC   C3B  443   1.088   3.911  14.641 -0.0764 -0.0926 -0.0962
   37DOPC   C4B  444   1.085   4.349  14.347  0.0348  0.1120 -0.3002
   38DOPC   NC3  445  17.479   2.011  16.337 -0.0012  0.0726 -0.1082
   38DOPC   PO4  446  17.789   2.001  16.065  0.2771  0.0262 -0.2114
   38DOPC   GL1  447  17.562   2.298  15.726  0.1800 -0.3496  0.0642
   38DOPC   GL2  448  17.463   2.312  15.976 -0.4471  0.0235 -0.1128
   38DOPC   C1A  449  17.265   2.460  15.378  0.1642  0.0030 -0.1172
   38DOPC   D2A  450  16.959   2.705  15.055 -0.1778  0.0951 -0.0306
   38DOPC   C3A  451  16.978   2.927  14.695 -0.0639 -0.0512  0.1199
   38DOPC   C4A  452  17.127   3.014  14.251  0.0271 -0.0187 -0.1878
   38DOPC   C1B  453  17.039   2.149  15.905  0.3220 -0.1485 -0.1513
   38DOPC   D2B  454  16.600   2.082  15.705  0.0392 -0.2562 -0.0955
   38DOPC   C3B  455  16.254   2.135  15.373 -0.4215 -0.0027 -0.0509
   38DOPC   C4B  456  15.869   2.067  15.129  0.3276  0.0173 -0.1071
   39DOPC   NC3  457  21.441   1.320  14.945 -0.0632 -0.0932  0.4935
   39DOPC   PO4  458  21.686   1.260  14.604 -0.0392 -0.0279  0.1483
   39DOPC   GL1  459  22.027   1.249  14.302  0.0006 -0.2347 -0.2751
   39DOPC   GL2  460  21.947   1.008  14.221 -0.0259  0.0475  0.0871
   39DOPC   C1A  461  22.197   1.447  13.973  0.2142 -0.0876 -0.0564
   39DOPC   D2A  462  22.396   1.708  13.572  0.0839 -0.0805  0.0606
   39DOPC   C3A  463  22.651   1.915  13.179  0.2169 -0.1317  0.2933
   39DOPC   C4A  464  22.704   2.116  12.714 -0.0186  0.1116 -0.1970
   39DOPC   C1B  465  21.981   1.028  13.773  0.1885  0.1099 -0.2163
   39DOPC   D2B  466  22.106   1.144  13.332  0.3627 -0.0914 -0.2443
   39DOPC   C3B  467  22.132   1.613  13.146  0.2209  0.0967  0.1400
   39DOPC   C4B  468  22.196   1.954  12.796 -0.2552  0.0746 -0.1323
   40DOPC   NC3  469  17.536   2.899  16.570 -0.1909 -0.1132  0.1339
   40DOPC   PO4  470  17.322   2.663  16.353 -0.1731  0.0771  0.0714
   40DOPC   GL1  471  16.956   2.702  16.132 -0.4352  0.3175  0.0731
   40DOPC   GL2  472  17.113   2.643  15.825  0.0700 -0.2065 -0.1034
   40DOPC   C1A  473  16.650   2.454  16.163 -0.1551 -0.0816 -0.1083
   40DOPC   D2A  474  16.252   2.202  16.093  0.0426  0.1785  0.3637
   40DOPC   C3A  475  15.794   2.270  16.152 -0.1050  0.4268  0.0993
   40DOPC   C4A  476  15.607   2.655  15.920  0.0853 -0.1073 -0.1250
   40DOPC   C1B  477  16.824   2.612  15.545 -0.0968 -0.0413  0.0742
   40DOPC   D2B  478  16.503   2.655  15.217 -0.0006 -0.0414 -0.0859
   40DOPC   C3B  479  16.114   2.512  14.974  0.2012  0.0972  0.0705
   40DOPC   C4B  480  15.797   2.247  14.673 -0.2860 -0.0370  0.2816
   41DOPC   NC3  481   6.960   0.789  22.537 -0.6664 -0.0542  0.0218
   41DOPC   PO4  482   7.337   0.877  22.476 -0.2329 -0.0646  0.2542
   41DOPC   GL1  483   7.548   0.825  22.144 -0.2549  0.0411 -0.1005
   41DOPC   GL2  484   7.301   0.662  21.953  0.0901  0.0727  0.1079
   41DOPC   C1A  485   7.704   1.107  21.797 -0.0818 -0.0067  0.0467
   41DOPC   D2A  486   7.693   1.345  21.408  0.0274  0.1242 -0.0332
   41DOPC   C3A  487   7.626   1.524  20.944  0.0953 -0.0691 -0.4145
   41DOPC   C4A  488   7.679   1.520  20.482 -0.1962 -0.5017 -0.0922
   41DOPC   C1B  489   7.281   0.959  21.630  0.2389 -0.1794 -0.0732
   41DOPC   D2B  490   7.175   1.375  21.253  0.0026  0.1363  0.0635
   41DOPC   C3B  491   7.077   1.493  20.875  0.1833  0.3451 -0.1910
   41DOPC   C4B  492   7.167   1.566  20.416  0.0114 -0.3513 -0.0734
   42DOPC   NC3  493   3.854   0.619  21.423 -0.1591 -0.3456  0.0081
   42DOPC   PO4  494   3.720   1.006  21.320 -0.1027  0.1419  0.4237
   42DOPC   GL1  495   4.090   0.887  21.080  0.2309  0.0580  0.0927
   42DOPC   GL2  496   4.187   0.912  21.390  0.0537 -0.2616 -0.1530
   42DOPC   C1A  497   4.428   1.123  20.817 -0.2228  0.1226  0.1613
   42DOPC   D2A  498   4.715   1.296  20.416  0.3374 -0.0748  0.0076
   42DOPC   C3A  499   5.196   1.239  20.400 -0.0156  0.0553  0.3566
   42DOPC   C4A  500   5.589   1.060  20.122  0.0089 -0.3183  0.1130
   42DOPC   C1B  501   4.628   0.943  21.244 -0.1802  0.0002 -0.1057
   42DOPC   D2B  502   5.126   1.050  21.285 -0.3136 -0.2985 -0.1452
   42DOPC   C3B  503   5.574   1.205  21.248 -0.1563  0.2659 -0.0249
   42DOPC   C4B  504   5.987   1.320  21.116 -0.2869  0.2329 -0.2842
   43DOPC   NC3  505  24.945   1.140  15.529 -0.1064 -0.2633 -0.0540
   43DOPC   PO4  506  25.021   1.402  15.775  0.1757 -0.0773  0.0921
   43DOPC   GL1  507  25.456   1.372  15.879  0.2450  0.1422 -0.1362
   43DOPC   GL2  508  25.372   1.150  16.085  0.2277 -0.1751 -0.0146
   43DOPC   C1A  509  25.795   1.399  15.601  0.3316 -0.2670 -0.2035
   43DOPC   D2A  510  26.168   1.102  15.463  0.2119 -0.0218  0.3972
   43DOPC   C3A  511  26.495   1.265  15.114  0.3365  0.2722  0.0499
   43DOPC   C4A  512  26.943   1.489  14.931 -0.0629  0.3123  0.0464
   43DOPC   C1B  513  25.752   0.986  15.980 -0.0048  0.1632 -0.1515
   43DOPC   D2B  514  26.067   0.710  15.732  0.0246  0.4128 -0.1861
   43DOPC   C3B  515  26.528   0.615  15.536  0.0422 -0.0179  0.0105
   43DOPC   C4B  516  27.001   0.549  15.421  0.1100 -0.2087  0.0474
   44DOPC   NC3  517   4.414   5.183  22.080  0.0686 -0.3501  0.0730
   44DOPC   PO4  518   4.143   5.352  21.852  0.3802 -0.0237  0.1958
   44DOPC   GL1  519   4.180   5.506  21.421 -0.1285 -0.0474 -0.1762
   44DOPC   GL2  520   4.385   5.465  21.509 -0.0841  0.0925 -0.3779
   44DOPC   C1A  521   4.033   5.514  21.086  0.1428 -0.1836 -0.2364
   44DOPC   D2A  522   3.865   5.503  20.626  0.0775  0.2709 -0.4679
   44DOPC   C3A  523   3.820   5.567  20.130 -0.0131  0.0531  0.0055
   44DOPC   C4A  524   3.732   5.351  19.724  0.0822 -0.2832  0.1746
   44DOPC   C1B  525   4.545   5.328  21.150 -0.1492  0.2253 -0.2080
   44DOPC   D2B  526   4.956   5.120  20.934 -0.1540  0.0024  0.1583
   44DOPC   C3B  527   5.050   4.948  20.518  0.0544  0.1428  0.0679
   44DOPC   C4B  528   5.023   4.959  19.982  0.0373 -0.0420 -0.1021
   45DOPC   NC3  529  24.882   1.208  16.180  0.1778  0.0415  0.2363
   45DOPC   PO4  530  25.011   0.898  15.958  0.0631  0.0352 -0.2078
   45DOPC   GL1  531  25.391   0.865  15.752  0.0833 -0.0091  0.0238
   45DOPC   GL2  532  25.243   0.757  15.555  0.0104  0.0724 -0.0812
   45DOPC   C1A  533  25.682   0.879  15.417 -0.2385  0.0716  0.0476
   45DOPC   D2A  534  25.989   0.941  14.999 -0.4180  0.2401 -0.2275
   45DOPC   C3A  535  26.394   0.782  15.066  0.0206  0.1858 -0.1306
   45DOPC   C4A  536  26.763   0.501  15.028  0.0227  0.0030 -0.1585
   45DOPC   C1B  537  25.272   0.995  15.150  0.0214 -0.2140 -0.0905
   45DOPC   D2B  538  25.387   1.048  14.641  0.2170 -0.0087 -0.1330
   45DOPC   C3B  539  25.862   1.125  14.594 -0.1275 -0.1600  0.1561
   45DOPC   C4B  540  26.313   1.125  14.584 -0.1106 -0.0329  0.2644
   46DOPC   NC3  541  14.623   2.546  19.655 -0.1168 -0.2082  0.3934
   46DOPC   PO4  542  14.924   2.624  19.474 -0.0621 -0.0068 -0.0773
   46DOPC   GL1  543  14.725   2.600  19.122  0.2175 -0.5095  0.2891
   46DOPC   GL2  544  14.486   2.738  19.231  0.2475  0.0709 -0.2841
   46DOPC   C1A  545  14.725   2.517  18.619 -0.2866 -0.1829  0.3534
   46DOPC   D2A  546  14.394   2.738  18.239  0.0625  0.1118 -0.1837
   46DOPC   C3A  547  13.996   2.746  17.945  0.0585  0.0276 -0.0465
   46DOPC   C4A  548  13.781   2.842  17.550  0.1662  0.1991  0.1499
   46DOPC   C1B  549  14.313   2.781  18.884 -0.2949 -0.2466 -0.1438
   46DOPC   D2B  550  13.980   2.698  18.472  0.2073 -0.1407  0.0423
   46DOPC   C3B  551  13.486   2.662  18.362  0.3069 -0.0441  0.1282
   46DOPC   C4B  552  12.995   2.621  18.226  0.0025 -0.0317 -0.0657
   47DOPC   NC3  553  19.988   7.465  13.729 -0.0097  0.1100  0.1930
   47DOPC   PO4  554  20.263   7.669  13.939 -0.1695 -0.1130  0.0334
   47DOPC   GL1  555  20.298   7.856  13.640 -0.1700  0.0614 -0.1821
   47DOPC   GL2  556  20.532   7.658  13.535  0.2574 -0.1768  0.2041
   47DOPC   C1A  557  20.128   7.819  13.297 -0.0756 -0.0697 -0.0872
   47DOPC   D2A  558  19.947   7.605  12.891  0.2439 -0.1171 -0.0234
   47DOPC   C3A  559  19.720   7.180  12.814 -0.0953 -0.0647 -0.1109
   47DOPC   C4A  560  19.779   6.670  12.925  0.0831 -0.3160 -0.1564
   47DOPC   C1B  561  20.693   7.978  13.300 -0.2852  0.0436 -0.0722
   47DOPC   D2B  562  20.984   8.092  12.887 -0.0852 -0.0813 -0.1097
   47DOPC   C3B  563  21.192   8.000  12.483 -0.3236  0.0829  0.1966
   47DOPC   C4B  564  21.290   8.324  12.075 -0.0287 -0.0800  0.0115
   48DOPC   NC3  565  22.375   5.199  14.285  0.1975  0.1169 -0.3131
   48DOPC   PO4  566  22.629   4.938  14.189  0.0908  0.0047  0.2100
   48DOPC   GL1  567  22.912   5.044  14.017  0.2283 -0.2428 -0.0368
   48DOPC   GL2  568  22.697   5.258  13.872 -0.0023 -0.0781  0.2808
   48DOPC   C1A  569  23.072   5.137  13.675  0.2608 -0.0549  0.1910
   48DOPC   D2A  570  23.284   5.079  13.248 -0.0483 -0.0829  0.1262
   48DOPC   C3A  571  23.718   5.360  13.134 -0.2871  0.0611 -0.1322
   48DOPC   C4A  572  24.214   5.484  13.192 -0.0888 -0.0215  0.1737
   48DOPC   C1B  573  22.613   5.198  13.393  0.2583 -0.1168 -0.0747
   48DOPC   D2B  574  22.823   4.963  13.049  0.0434 -0.0674  0.0746
   48DOPC   C3B  575  23.096   5.146  12.732  0.0587 -0.2233 -0.1615
   48DOPC   C4B  576  23.088   5.399  12.349  0.1746  0.1683  0.0784
   49DOPC   NC3  577   1.849   2.873  18.956  0.1159  0.0737 -0.2116
   49DOPC   PO4  578   1.840   3.031  18.595  0.1218 -0.0347  0.1938
   49DOPC   GL1  579   2.223   3.136  18.436  0.0391  0.0152 -0.1818
   49DOPC   GL2  580   2.231   2.811  18.604 -0.2835  0.4025 -0.0059
   49DOPC   C1A  581   2.392   3.317  18.043  0.1460  0.0313 -0.0794
   49DOPC   D2A  582   2.417   3.538  17.579 -0.0441 -0.1308  0.0703
   49DOPC   C3A  583   2.638   3.731  17.237  0.1391 -0.1618 -0.1813
   49DOPC   C4A  584   2.810   3.917  16.790 -0.3345  0.0405 -0.1103
   49DOPC   C1B  585   2.598   2.704  18.317  0.0037  0.1561 -0.1494
   49DOPC   D2B  586   2.948   2.442  18.019 -0.0330 -0.0054  0.0636
   49DOPC   C3B  587   3.171   2.656  17.718 -0.1820 -0.1255  0.0735
   49DOPC   C4B  588   3.268   2.960  17.433  0.1886  0.2186  0.1063
   50DOPC   NC3  589   4.354   4.298  21.714  0.0360  0.0064 -0.3801
   50DOPC   PO4  590   4.040   4.078  21.596 -0.2675 -0.2012  0.0883
   50DOPC   GL1  591   4.321   4.077  21.268 -0.0690  0.1358  0.1775
   50DOPC   GL2  592   4.356   4.357  21.214 -0.0756  0.0593  0.0116
   50DOPC   C1A  593   4.419   3.745  20.877  0.0886 -0.1112  0.0947
   50DOPC   D2A  594   4.357   3.328  20.637 -0.1182  0.2208 -0.2566
   50DOPC   C3A  595   4.722   3.208  20.382  0.0208  0.1044  0.1963
   50DOPC   C4A  596   4.978   3.308  19.982 -0.0829  0.0926 -0.0477
   50DOPC   C1B  597   4.322   4.490  20.785 -0.1077  0.1831 -0.1101
   50DOPC   D2B  598   4.261   4.643  20.263  0.1801 -0.0166 -0.1114
   50DOPC   C3B  599   4.616   4.595  19.850  0.0171 -0.3544 -0.3183
   50DOPC   C4B  600   4.804   4.921  19.558 -0.1435 -0.0545 -0.1156
   51DOPC   NC3  601  19.602   2.448  14.500  0.1206  0.1074 -0.1637
   51DOPC   PO4  602  19.268   2.385  14.710 -0.1790 -0.0150 -0.3122
   51DOPC   GL1  603  19.112   2.503  14.360  0.1805  0.1522  0.1917
   51DOPC   GL2  604  19.294   2.573  14.165 -0.1044 -0.3206 -0.1059
   51DOPC   C1A  605  18.694   2.670  14.414 -0.0319 -0.1856  0.3145
   51DOPC   D2A  606  18.308   2.870  14.303 -0.0840  0.0603  0.0452
   51DOPC   C3A  607  18.130   3.027  13.898 -0.4032  0.0325 -0.1595
   51DOPC   C4A  608  17.961   3.260  13.520  0.1947 -0.4429 -0.1586
   51DOPC   C1B  609  18.971   2.559  13.925  0.1457  0.3365  0.2549
   51DOPC   D2B  610  18.745   2.537  13.442 -0.1951  0.1072  0.0760
   51DOPC   C3B  611  18.657   2.654  12.997 -0.0362 -0.3171  0.2070
   51DOPC   C4B  612  18.522   2.790  12.598 -0.2519  0.1483 -0.1663
   52DOPC   NC3  613   4.144   7.059  22.215 -0.0092 -0.0368  0.1285
   52DOPC   PO4  614   4.020   6.745  22.019  0.1884 -0.0554  0.2395
   52DOPC   GL1  615   4.201   6.829  21.600  0.0019  0.1416 -0.0485
   52DOPC   GL2  616   4.379   6.613  21.685 -0.3949  0.0981  0.2719
   52DOPC   C1A  617   3.994   6.928  21.244 -0.2421 -0.0492 -0.3192
   52DOPC   D2A  618   3.802   7.268  20.872 -0.0061  0.0746  0.0506
   52DOPC   C3A  619   4.046   7.594  20.744  0.1120  0.0734 -0.1856
   52DOPC   C4A  620   4.267   7.510  20.322  0.0567  0.1277 -0.0379
   52DOPC   C1B  621   4.413   6.679  21.233 -0.3016 -0.0515 -0.0583
   52DOPC   D2B  622   4.440   6.543  20.767  0.1693 -0.2406  0.0342
   52DOPC   C3B  623   4.858   6.418  20.485 -0.0845 -0.0308 -0.2256
   52DOPC   C4B  624   5.106   6.167  20.132 -0.0668 -0.3542 -0.0612
   53DOPC   NC3  625  15.176   0.016  19.096 -0.4721 -0.0337  0.0703
   53DOPC   PO4  626  15.322   0.341  18.987  0.1422 -0.0843 -0.3461
   53DOPC   GL1  627  15.197   0.485  18.705  0.0706 -0.3401  0.2877
   53DOPC   GL2  628  15.132   0.120  18.645 -0.1584  0.1506 -0.2939
   53DOPC   C1A  629  15.004   0.773  18.407 -0.0068  0.0304  0.0178
   53DOPC   D2A  630  14.692   0.822  18.034 -0.0871  0.2772 -0.2880
   53DOPC   C3A  631  14.450   0.994  17.696  0.1309 -0.2357  0.0030
   53DOPC   C4A  632  14.255   1.226  17.283 -0.1074 -0.0213 -0.0095
   53DOPC   C1B  633  14.740  -0.099  18.555 -0.3325 -0.0210  0.0143
   53DOPC   D2B  634  14.253  -0.213  18.384 -0.0348  0.0182 -0.1325
   53DOPC   C3B  635  14.208  -0.547  18.060  0.1472  0.3315  0.0957
   53DOPC   C4B  636  14.534  -0.761  17.759  0.0511 -0.0419  0.1007
   54DOPC   NC3  637  22.613   7.318  14.299  0.0078 -0.2642 -0.4307
   54DOPC   PO4  638  22.629   6.979  14.096  0.0234 -0.2374 -0.1644
   54DOPC   GL1  639  22.549   6.983  13.733 -0.5226  0.0342 -0.1078
   54DOPC   GL2  640  22.263   6.950  13.675 -0.0388 -0.2672 -0.1523
   54DOPC   C1A  641  22.780   6.935  13.340  0.2006  0.0214 -0.0852
   54DOPC   D2A  642  22.829   6.873  12.899 -0.0048 -0.1661 -0.3247
   54DOPC   C3A  643  22.725   7.253  12.674 -0.1338 -0.1240 -0.2258
   54DOPC   C4A  644  22.338   7.359  12.379  0.2737  0.1971  0.1216
   54DOPC   C1B  645  22.303   7.048  13.307 -0.1787  0.1948 -0.1008
   54DOPC   D2B  646  22.274   7.096  12.848 -0.3256  0.1193  0.2099
   54DOPC   C3B  647  21.843   7.255  12.663 -0.0097  0.0272 -0.2905
   54DOPC   C4B  648  21.454   7.522  12.494  0.0975  0.3384 -0.1444
   55DOPC   NC3  649   7.610   2.447  22.272 -0.0079  0.0285  0.0643
   55DOPC   PO4  650   7.380   2.119  22.251 -0.2362 -0.0326 -0.2032
   55DOPC   GL1  651   7.263   1.945  21.914 -0.2893  0.3422 -0.1203
   55DOPC   GL2  652   7.323   1.631  21.951  0.0621  0.0941  0.1169
   55DOPC   C1A  653   7.613   2.129  21.656  0.1326  0.0706 -0.1986
   55DOPC   D2A  654   7.927   2.307  21.296 -0.1267  0.2063 -0.0726
   55DOPC   C3A  655   8.225   2.357  20.936  0.0512  0.0411  0.0009
   55DOPC   C4A  656   8.595   2.453  20.544  0.0192  0.2483 -0.3533
   55DOPC   C1B  657   7.688   1.658  21.889 -0.1234 -0.3191 -0.0093
   55DOPC   D2B  658   8.065   1.366  21.948 -0.1402 -0.3428 -0.0009
   55DOPC   C3B  659   8.207   1.444  21.482  0.0458  0.0801  0.1196
   55DOPC   C4B  660   8.372   1.745  21.154  0.2646 -0.1446  0.0414
   56DOPC   NC3  661  10.619   1.228  22.731  0.1777  0.0208  0.0882
   56DOPC   PO4  662  10.248   1.152  22.613 -0.0049 -0.1340 -0.0082
   56DOPC   GL1  663  10.142   0.790  22.299  0.0791  0.1559 -0.5689
   56DOPC   GL2  664  10.427   0.836  22.295  0.1645  0.0483  0.0526
   56DOPC   C1A  665   9.940   0.819  21.861  0.1042  0.0774  0.0338
   56DOPC   D2A  666   9.574   0.791  21.507  0.0752  0.1798 -0.1424
   56DOPC   C3A  667   9.733   0.631  21.097  0.0611 -0.1340  0.0446
   56DOPC   C4A  668   9.994   0.354  20.801  0.1631  0.2127  0.2444
   56DOPC   C1B  669  10.463   1.028  21.943  0.0558 -0.2338  0.0100
   56DOPC   D2B  670  10.389   1.238  21.505 -0.4234 -0.0511  0.1222
   56DOPC   C3B  671   9.942   1.195  21.469  0.1720  0.0126 -0.1231
   56DOPC   C4B  672   9.552   1.165  21.233 -0.2341 -0.0644 -0.2634
   57DOPC   NC3  673   3.448   6.386  21.255 -0.2944 -0.0678  0.2269
   57DOPC   PO4  674   3.177   6.151  21.079 -0.0645  0.0707  0.0830
   57DOPC   GL1  675   3.239   6.062  20.696  0.2498  0.1110 -0.1446
   57DOPC   GL2  676   3.042   6.212  20.549  0.1260  0.3139 -0.1074
   57DOPC   C1A  677   3.541   5.931  20.418  0.0841 -0.3542  0.0048
   57DOPC   D2A  678   4.018   5.999  20.255 -0.0848 -0.4752 -0.1694
   57DOPC   C3A  679   4.349   6.079  19.942  0.0141 -0.0096 -0.0315
   57DOPC   C4A  680   4.656   6.334  19.692  0.1718  0.0799  0.1193
   57DOPC   C1B  681   3.121   6.089  20.174 -0.1270  0.0764  0.1636
   57DOPC   D2B  682   3.053   6.064  19.642 -0.0318 -0.0889 -0.0251
   57DOPC   C3B  683   3.139   6.044  19.199 -0.0222  0.3359 -0.2078
   57DOPC   C4B  684   3.106   6.128  18.753  0.0193 -0.0651  0.1416
   58DOPC   NC3  685   0.091   7.825  16.009 -0.1197 -0.2928  0.1510
   58DOPC   PO4  686  -0.225   7.540  15.922 -0.2538 -0.1827  0.3006
   58DOPC   GL1  687  -0.108   7.452  15.600  0.0801  0.1056  0.0828
   58DOPC   GL2  688  -0.094   7.759  15.565 -0.0637 -0.0776 -0.1051
   58DOPC   C1A  689   0.161   7.196  15.340 -0.3470 -0.1218 -0.0166
   58DOPC   D2A  690   0.537   7.276  14.939  0.0575  0.0539 -0.1039
   58DOPC   C3A  691   0.941   7.196  14.994  0.2083  0.0891 -0.3137
   58DOPC   C4A  692   1.419   7.255  15.089  0.2792  0.0870  0.0934
   58DOPC   C1B  693   0.320   7.755  15.513 -0.0192  0.0354 -0.1949
   58DOPC   D2B  694   0.746   7.791  15.381  0.1675 -0.3418 -0.1016
   58DOPC   C3B  695   1.121   7.616  15.351  0.0696 -0.1207  0.2874
   58DOPC   C4B  696   1.363   7.282  15.608 -0.0889 -0.1828 -0.3140
   59DOPC   NC3  697  20.572   6.731  14.629  0.0984 -0.0674  0.0364
   59DOPC   PO4  698  20.168   6.861  14.804 -0.3067  0.0438 -0.0440
   59DOPC   GL1  699  20.108   6.626  14.463  0.0159  0.2001 -0.1784
   59DOPC   GL2  700  20.247   6.429  14.503  0.5553 -0.1368  0.0131
   59DOPC   C1A  701  19.770   6.598  14.092  0.0866 -0.1230 -0.2195
   59DOPC   D2A  702  19.817   6.837  13.690  0.1610  0.2367 -0.2425
   59DOPC   C3A  703  19.655   7.213  13.415 -0.1202 -0.1082 -0.2748
   59DOPC   C4A  704  19.333   7.496  13.151 -0.0744 -0.2068  0.1277
   59DOPC   C1B  705  20.076   6.163  14.160 -0.0068  0.0022 -0.0288
   59DOPC   D2B  706  19.931   5.778  13.881 -0.0017  0.1274  0.0373
   59DOPC   C3B  707  19.809   5.769  13.432  0.3746  0.0972  0.2051
   59DOPC   C4B  708  19.575   5.570  13.055  0.0420  0.1655 -0.3401
   60DOPC   NC3  709   3.992   1.354  21.020 -0.2082 -0.4688  0.3436
   60DOPC   PO4  710   3.811   1.159  20.754 -0.2489  0.0283  0.0917
   60DOPC   GL1  711   3.700   0.836  20.465 -0.1077 -0.1119  0.2937
   60DOPC   GL2  712   3.702   1.072  20.255  0.0862  0.4485 -0.2502
   60DOPC   C1A  713   4.077   0.621  20.187 -0.3312  0.0405  0.3440
   60DOPC   D2A  714   4.439   0.613  19.813  0.0651 -0.0378 -0.0522
   60DOPC   C3A  715   4.283   1.053  19.901  0.0993  0.2284  0.1386
   60DOPC   C4A  716   4.238   1.352  20.286  0.0723  0.0728 -0.0136
   60DOPC   C1B  717   3.777   0.972  19.836 -0.1183  0.3062  0.2054
   60DOPC   D2B  718   4.178   0.859  19.519 -0.0253  0.1199  0.0221
   60DOPC   C3B  719   4.338   0.984  19.101 -0.1868 -0.3944  0.2687
   60DOPC   C4B  720   4.440   1.012  18.589 -0.0237 -0.0497  0.1879
   61DOPC   NC3  721   6.853   2.071  22.104 -0.1358  0.0104  0.1400
   61DOPC   PO4  722   6.581   1.832  21.959 -0.2273  0.0614  0.0953
   61DOPC   GL1  723   6.728   1.741  21.587  0.1934 -0.1094  0.2163
   61DOPC   GL2  724   6.961   1.880  21.659 -0.0828  0.0719  0.0937
   61DOPC   C1A  725   6.820   1.851  21.159  0.1189 -0.0138 -0.1331
   61DOPC   D2A  726   7.015   1.953  20.722 -0.0817 -0.2658 -0.3065
   61DOPC   C3A  727   7.102   2.173  20.362 -0.2634 -0.2198 -0.0062
   61DOPC   C4A  728   7.256   2.383  19.960  0.0570 -0.0474  0.0397
   61DOPC   C1B  729   7.347   1.803  21.413 -0.0584 -0.2160 -0.0720
   61DOPC   D2B  730   7.820   1.818  21.399 -0.0758 -0.1253  0.0103
   61DOPC   C3B  731   8.188   1.929  21.625 -0.2412  0.0832  0.2526
   61DOPC   C4B  732   8.602   2.156  21.840  0.1326 -0.0317  0.3272
   62DOPC   NC3  733   3.945   5.820  21.775 -0.0164  0.3516  0.1348
   62DOPC   PO4  734   4.306   5.937  21.653 -0.0316  0.0716  0.1025
   62DOPC   GL1  735   4.571   6.209  21.498 -0.0778  0.0331 -0.1330
   62DOPC   GL2  736   4.437   6.154  21.208  0.1663 -0.1305  0.0467
   62DOPC   C1A  737   5.073   6.256  21.332 -0.0151  0.1774  0.0155
   62DOPC   D2A  738   5.534   6.010  21.165  0.0153  0.1681 -0.1793
   62DOPC   C3A  739   5.537   5.945  20.706  0.2882 -0.1148  0.2484
   62DOPC   C4A  740   5.551   5.750  20.271  0.2109  0.2622  0.1325
   62DOPC   C1B  741   4.672   6.126  20.890  0.2184  0.0683 -0.2898
   62DOPC   D2B  742   4.524   5.996  20.417 -0.2712 -0.0372 -0.2172
   62DOPC   C3B  743   4.765   5.874  20.010  0.1556 -0.2257 -0.1063
   62DOPC   C4B  744   5.136   5.590  19.840 -0.2496  0.2412 -0.2300
   63DOPC   NC3  745  19.874   6.720  15.203  0.3315  0.0085 -0.0196
   63DOPC   PO4  746  19.698   6.399  15.041 -0.1705  0.0303 -0.2117
   63DOPC   GL1  747  19.581   6.299  14.708  0.3686 -0.3958  0.3186
   63DOPC   GL2  748  19.736   6.171  14.518  0.0242 -0.1619 -0.3898
   63DOPC   C1A  749  19.346   6.545  14.450 -0.1384  0.0803  0.0011
   63DOPC   D2A  750  19.161   6.451  13.953 -0.3033  0.1606  0.0440
   63DOPC   C3A  751  18.950   6.419  13.576 -0.0760 -0.1210  0.0119
   63DOPC   C4A  752  18.988   6.478  13.105 -0.2286 -0.2237  0.1443
   63DOPC   C1B  753  19.505   6.146  14.134 -0.1430  0.1137  0.2008
   63DOPC   D2B  754  19.472   6.102  13.627 -0.0474 -0.0467  0.1309
   63DOPC   C3B  755  19.468   6.524  13.424  0.0916 -0.1822 -0.0871
   63DOPC   C4B  756  19.382   6.898  13.094 -0.0220 -0.0242 -0.1315
   64DOPC   NC3  757  16.816   3.445  16.547 -0.1855 -0.0178  0.0521
   64DOPC   PO4  758  16.791   3.263  16.901  0.0177 -0.3348 -0.1145
   64DOPC   GL1  759  16.615   2.933  16.886 -0.3843  0.0612  0.1004
   64DOPC   GL2  760  16.456   3.109  16.729 -0.2972 -0.0017  0.0284
   64DOPC   C1A  761  16.355   2.638  16.711  0.0021 -0.1222  0.3035
   64DOPC   D2A  762  16.132   2.172  16.728  0.1716 -0.5424  0.0129
   64DOPC   C3A  763  15.679   2.088  16.586 -0.1750 -0.0413  0.2422
   64DOPC   C4A  764  15.275   1.975  16.369  0.0936 -0.0043  0.2234
   64DOPC   C1B  765  16.123   3.091  16.411  0.2196  0.0959  0.0512
   64DOPC   D2B  766  15.703   3.034  16.228  0.1737  0.0889  0.0664
   64DOPC   C3B  767  15.249   3.119  16.167 -0.0675 -0.1401  0.1669
   64DOPC   C4B  768  14.816   3.249  15.912  0.1075  0.1896  0.1288
   65DOPC   NC3  769   5.623   1.729  21.505 -0.0582 -0.0508 -0.1576
   65DOPC   PO4  770   5.868   1.672  21.790 -0.1103  0.0367  0.1417
   65DOPC   GL1  771   6.248   1.695  21.566  0.1642 -0.0153 -0.1077
   65DOPC   GL2  772   6.211   1.988  21.534  0.0266  0.2429  0.0798
   65DOPC   C1A  773   6.466   1.589  21.210 -0.1452 -0.0544 -0.1707
   65DOPC   D2A  774   6.591   1.650  20.674 -0.2141  0.0678 -0.1723
   65DOPC   C3A  775   6.578   1.461  20.221  0.1992 -0.1830  0.1664
   65DOPC   C4A  776   6.603   1.444  19.746  0.0970 -0.0232  0.0286
   65DOPC   C1B  777   6.271   2.089  21.100  0.0365  0.2967  0.0034
   65DOPC   D2B  778   6.440   2.152  20.607 -0.2704  0.0345  0.0021
   65DOPC   C3B  779   6.439   1.948  20.202  0.2252 -0.0966 -0.0845
   65DOPC   C4B  780   6.463   1.883  19.729  0.1733 -0.4319  0.0209
   66DOPC   NC3  781  18.938   5.741  15.379 -0.4066  0.0112  0.1215
   66DOPC   PO4  782  18.654   5.731  15.101  0.0005  0.2876  0.2528
   66DOPC   GL1  783  18.538   5.620  14.640  0.0081 -0.2185 -0.2416
   66DOPC   GL2  784  18.420   5.940  14.755  0.0336 -0.0490  0.0123
   66DOPC   C1A  785  18.391   5.593  14.280  0.1214  0.0053  0.6221
   66DOPC   D2A  786  18.265   5.288  13.890  0.0776  0.0442  0.4127
   66DOPC   C3A  787  18.011   5.240  13.432  0.0217 -0.1267  0.2854
   66DOPC   C4A  788  17.557   5.099  13.334  0.0516 -0.4751  0.2396
   66DOPC   C1B  789  18.232   6.085  14.372 -0.0380  0.0586  0.3484
   66DOPC   D2B  790  17.957   6.333  14.051  0.2328 -0.0496  0.0991
   66DOPC   C3B  791  17.634   6.026  14.169  0.0011  0.3793 -0.2252
   66DOPC   C4B  792  17.464   5.614  14.431  0.0957  0.1673  0.1728
   67DOPC   NC3  793  16.366   5.202  17.398  0.2062 -0.1544 -0.1663
   67DOPC   PO4  794  16.598   5.514  17.475  0.2693  0.0008 -0.1902
   67DOPC   GL1  795  16.321   5.589  17.137  0.0623 -0.1492  0.0558
   67DOPC   GL2  796  16.125   5.594  17.404  0.2001  0.1144 -0.3833
   67DOPC   C1A  797  16.197   5.288  16.858  0.0650 -0.0138  0.1539
   67DOPC   D2A  798  16.066   5.193  16.383  0.1828 -0.0892 -0.3066
   67DOPC   C3A  799  15.738   5.445  16.244  0.0679 -0.2544  0.0822
   67DOPC   C4A  800  15.260   5.503  16.084 -0.0640  0.0401 -0.0912
   67DOPC   C1B  801  15.760   5.426  17.244 -0.0018 -0.2451 -0.0823
   67DOPC   D2B  802  15.478   5.055  17.285  0.2218  0.0299 -0.0580
   67DOPC   C3B  803  15.222   5.040  16.905  0.1570 -0.0991  0.3745
   67DOPC   C4B  804  15.040   5.350  16.498  0.0404  0.3906 -0.3525
   68DOPC   NC3  805  20.527   4.020  14.514 -0.0770 -0.2671  0.0906
   68DOPC   PO4  806  20.433   3.968  14.131 -0.0745 -0.0810 -0.3027
   68DOPC   GL1  807  20.619   3.886  13.719  0.0098  0.3838 -0.2724
   68DOPC   GL2  808  20.424   3.682  13.632  0.4740  0.1135  0.1485
   68DOPC   C1A  809  20.786   4.288  13.453 -0.1689  0.0365 -0.0799
   68DOPC   D2A  810  20.828   4.726  13.162  0.2941 -0.0617 -0.1768
   68DOPC   C3A  811  20.633   5.140  13.082 -0.1968 -0.1034 -0.0062
   68DOPC   C4A  812  20.378   5.525  12.833  0.0296 -0.2075 -0.0583
   68DOPC   C1B  813  20.323   3.741  13.227 -0.0448 -0.2312  0.2448
   68DOPC   D2B  814  20.279   3.715  12.717  0.0221 -0.1644 -0.0914
   68DOPC   C3B  815  20.685   3.623  12.425 -0.0172 -0.3801  0.0436
   68DOPC   C4B  816  20.927   3.774  12.035  0.0885  0.0459  0.4831
   69DOPC   NC3  817   5.970   4.946  22.694  0.0397  0.0846  0.0555
   69DOPC   PO4  818   5.725   4.836  22.382 -0.0557 -0.2498  0.0340
   69DOPC   GL1  819   5.740   4.991  21.982 -0.3831  0.0529  0.2508
   69DOPC   GL2  820   5.645   4.734  21.890 -0.2173  0.2895  0.0706
   69DOPC   C1A  821   6.052   5.227  21.769  0.0677 -0.1076  0.0529
   69DOPC   D2A  822   6.359   5.254  21.375  0.3839 -0.0469 -0.1120
   69DOPC   C3A  823   6.238   5.188  20.915  0.1533 -0.0143 -0.0221
   69DOPC   C4A  824   5.810   5.004  20.783 -0.0906 -0.2532 -0.2856
   69DOPC   C1B  825   5.547   4.661  21.409  0.1848 -0.1348  0.0581
   69DOPC   D2B  826   5.300   4.698  20.957  0.1798  0.0101  0.1141
   69DOPC   C3B  827   5.454   4.711  20.511 -0.0683 -0.1145 -0.0020
   69DOPC   C4B  828   5.875   4.683  20.281 -0.0333  0.2968  0.1155
   70DOPC   NC3  829  18.453   0.379  15.856  0.0248  0.3419  0.0158
   70DOPC   PO4  830  18.083   0.365  15.941 -0.1483  0.0345 -0.1140
   70DOPC   GL1  831  17.835   0.081  15.744 -0.4647 -0.1465  0.2789
   70DOPC   GL2  832  17.944   0.204  15.507 -0.0855  0.3141 -0.1799
   70DOPC   C1A  833  17.371   0.080  15.682  0.1153 -0.1656 -0.2188
   70DOPC   D2A  834  16.891   0.059  15.776 -0.0235  0.0001  0.2141
   70DOPC   C3A  835  16.482   0.320  15.697 -0.1318  0.1614  0.1299
   70DOPC   C4A  836  16.020   0.409  15.853 -0.1102  0.5140  0.1844
   70DOPC   C1B  837  17.750   0.434  15.212  0.0296  0.0639  0.0244
   70DOPC   D2B  838  17.428   0.306  14.795 -0.0785 -0.0155 -0.2405
   70DOPC   C3B  839  17.132  -0.089  14.706  0.0488  0.0838 -0.0856
   70DOPC   C4B  840  17.303  -0.490  14.546  0.0160  0.4158 -0.1666
   71DOPC   NC3  841   8.998   1.573  22.399 -0.0592  0.0738 -0.0474
   71DOPC   PO4  842   8.934   1.216  22.599 -0.0086 -0.1406  0.0416
   71DOPC   GL1  843   8.963   0.802  22.315  0.0418 -0.2229 -0.2755
   71DOPC   GL2  844   9.148   0.997  22.170  0.3358  0.2742 -0.2653
   71DOPC   C1A  845   8.610   0.662  22.094  0.1773  0.0305  0.1529
   71DOPC   D2A  846   8.405   0.617  21.669  0.0514  0.1514  0.1960
   71DOPC   C3A  847   8.072   0.373  21.465 -0.2700  0.0358 -0.0571
   71DOPC   C4A  848   7.728   0.120  21.297  0.0749 -0.2734  0.2792
   71DOPC   C1B  849   9.056   0.773  21.836 -0.0755 -0.1307 -0.1854
   71DOPC   D2B  850   8.842   0.708  21.402  0.1762 -0.0008 -0.1367
   71DOPC   C3B  851   8.621   0.658  21.004  0.0862  0.0107 -0.1351
   71DOPC   C4B  852   8.634   0.494  20.593 -0.0457 -0.2855 -0.2834
   72DOPC   NC3  853  15.049   0.527  19.765 -0.2138 -0.3056 -0.0184
   72DOPC   PO4  854  15.031   0.212  19.523 -0.2853 -0.0503 -0.3580
   72DOPC   GL1  855  14.796   0.344  19.268  0.1619 -0.0448  0.3631
   72DOPC   GL2  856  14.893   0.536  19.038  0.3119 -0.0663 -0.0117
   72DOPC   C1A  857  14.378   0.496  19.064  0.2457  0.1584 -0.0678
   72DOPC   D2A  858  14.042   0.606  18.713 -0.0400 -0.2647 -0.0337
   72DOPC   C3A  859  13.627   0.726  18.515 -0.2202  0.0196  0.1512
   72DOPC   C4A  860  13.275   1.019  18.219 -0.2265  0.0783 -0.0468
   72DOPC   C1B  861  14.720   0.410  18.649  0.1259  0.0962  0.0240
   72DOPC   D2B  862  14.534   0.236  18.226  0.0702 -0.2522 -0.4269
   72DOPC   C3B  863  14.192   0.465  18.013  0.1228 -0.0348 -0.0809
   72DOPC   C4B  864  14.029   0.514  17.566  0.1532 -0.1663  0.1072
   73DOPC   NC3  865  24.051   5.293  15.240  0.0935  0.2243 -0.0587
   73DOPC   PO4  866  24.010   5.094  14.889 -0.0204 -0.0501  0.1403
   73DOPC   GL1  867  24.261   5.064  14.596  0.0241  0.0603  0.0748
   73DOPC   GL2  868  23.949   5.039  14.477 -0.1942 -0.2850  0.1882
   73DOPC   C1A  869  24.605   5.123  14.360 -0.0067  0.5311  0.1722
   73DOPC   D2A  870  24.924   5.214  14.011 -0.1457  0.0090  0.1858
   73DOPC   C3A  871  25.201   4.985  13.760 -0.2006 -0.0926 -0.0017
   73DOPC   C4A  872  25.180   4.988  13.259  0.3576 -0.0296 -0.1056
   73DOPC   C1B  873  24.040   5.354  14.191 -0.2787 -0.1696  0.0378
   73DOPC   D2B  874  24.205   5.692  13.872 -0.1636 -0.0853 -0.0537
   73DOPC   C3B  875  24.600   5.568  13.626  0.1090 -0.2754  0.3678
   73DOPC   C4B  876  25.080   5.471  13.541  0.0122 -0.1409  0.3203
   74DOPC   NC3  877  14.306   1.838  21.137  0.0813 -0.1713  0.1247
   74DOPC   PO4  878  14.316   1.760  20.754 -0.0172  0.0080  0.1797
   74DOPC   GL1  879  14.191   1.600  20.404  0.3564  0.2206  0.2658
   74DOPC   GL2  880  14.504   1.622  20.270  0.2932 -0.0428 -0.0157
   74DOPC   C1A  881  13.828   1.453  20.064  0.0315  0.1420 -0.0703
   74DOPC   D2A  882  13.801   1.467  19.574 -0.0532 -0.0790 -0.0915
   74DOPC   C3A  883  13.424   1.505  19.281  0.1143 -0.1277 -0.2005
   74DOPC   C4A  884  13.078   1.170  19.066  0.0355  0.1720 -0.1661
   74DOPC   C1B  885  14.355   1.495  19.844 -0.2369 -0.1750  0.0897
   74DOPC   D2B  886  14.260   1.335  19.378  0.0452 -0.1115 -0.0562
   74DOPC   C3B  887  13.920   1.525  19.064  0.0290  0.3356  0.2537
   74DOPC   C4B  888  13.653   1.759  18.753 -0.1042 -0.2421 -0.1109
   75DOPC   NC3  889   8.472   0.924  22.614  0.1796 -0.0561 -0.0200
   75DOPC   PO4  890   8.135   1.111  22.520  0.0498 -0.3240  0.0060
   75DOPC   GL1  891   8.408   1.096  22.186 -0.1178  0.2190  0.5187
   75DOPC   GL2  892   8.576   1.315  22.326  0.1978  0.1254 -0.2763
   75DOPC   C1A  893   8.486   1.111  21.750  0.1051 -0.0311 -0.2749
   75DOPC   D2A  894   8.539   1.135  21.240 -0.3226 -0.0956  0.2165
   75DOPC   C3A  895   8.483   1.293  20.820  0.2743  0.2293 -0.0062
   75DOPC   C4A  896   8.496   1.307  20.327  0.2109 -0.1743  0.1624
   75DOPC   C1B  897   8.449   1.636  21.985  0.1653 -0.0301  0.0210
   75DOPC   D2B  898   8.071   1.932  22.080 -0.1634 -0.3766  0.0789
   75DOPC   C3B  899   8.075   2.374  21.907 -0.2733 -0.1290 -0.0134
   75DOPC   C4B  900   8.087   2.758  21.596 -0.0044  0.0917  0.0813
   76DOPS   CNO  901   4.338   2.006  21.782  0.2067 -0.2231 -0.0359
   76DOPS   PO4  902   4.341   1.781  21.526  0.1315  0.1643  0.1681
   76DOPS   GL1  903   4.366   1.869  21.089  0.1500 -0.1199  0.1163
   76DOPS   GL2  904   4.658   1.864  21.294  0.0278 -0.2032 -0.0676
   76DOPS   C1A  905   4.475   2.129  20.737  0.1860  0.3626 -0.0782
   76DOPS   D2A  906   4.523   2.301  20.261 -0.1512 -0.0599 -0.4501
   76DOPS   C3A  907   4.507   1.889  20.114 -0.2458 -0.2671  0.0208
   76DOPS   C4A  908   4.564   1.476  19.884  0.0667  0.0160  0.4480
   76DOPS   C1B  909   4.798   1.825  20.942 -0.0133 -0.3914 -0.0645
   76DOPS   D2B  910   4.862   2.007  20.433  0.0282  0.0899  0.3372
   76DOPS   C3B  911   5.013   1.681  20.145  0.0117 -0.1835  0.0864
   76DOPS   C4B  912   5.134   1.320  19.868 -0.1334 -0.1349  0.0971
   77DOPS   CNO  913   2.362   5.858  19.360  0.3401  0.1153  0.1027
   77DOPS   PO4  914   2.348   5.577  19.614  0.0496 -0.3256  0.0266
   77DOPS   GL1  915   2.717   5.553  19.583  0.0548 -0.2344  0.1804
   77DOPS   GL2  916   2.930   5.537  19.723  0.2905 -0.2362 -0.0636
   77DOPS   C1A  917   2.974   5.571  19.224  0.0553  0.0393 -0.1167
   77DOPS   D2A  918   3.387   5.529  18.933  0.0544  0.0056 -0.1131
   77DOPS   C3A  919   3.541   5.892  18.608 -0.1550  0.0123  0.2201
   77DOPS   C4A  920   3.392   6.118  18.225  0.0496  0.1682 -0.0750
   77DOPS   C1B  921   3.334   5.627  19.558 -0.1221  0.1285 -0.0610
   77DOPS   D2B  922   3.752   5.722  19.264  0.0039  0.1023 -0.0557
   77DOPS   C3B  923   3.869   5.478  18.846  0.1418  0.2745  0.0563
   77DOPS   C4B  924   4.059   5.250  18.392 -0.0799  0.0538 -0.0003
   78DOPS   CNO  925  22.136   4.933  14.623 -0.3495 -0.0575 -0.0044
   78DOPS   PO4  926  22.175   4.686  14.315 -0.1148  0.0253 -0.0438
   78DOPS   GL1  927  22.148   4.696  13.897 -0.3407 -0.1167 -0.0800
   78DOPS   GL2  928  22.064   4.970  13.986  0.1430 -0.1101  0.0238
   78DOPS   C1A  929  22.552   4.692  13.625  0.0705  0.2163  0.0634
   78DOPS   D2A  930  22.741   4.449  13.151 -0.0740 -0.2095 -0.0936
   78DOPS   C3A  931  22.993   4.065  12.963 -0.0167  0.0325  0.0114
   78DOPS   C4A  932  22.890   3.687  12.613  0.2249 -0.0862 -0.0959
   78DOPS   C1B  933  22.180   5.101  13.566  0.0326  0.0801 -0.1288
   78DOPS   D2B  934  22.266   5.202  13.035 -0.0843 -0.0561  0.1108
   78DOPS   C3B  935  22.252   5.112  12.606 -0.3133 -0.1583  0.2296
   78DOPS   C4B  936  22.228   4.635  12.296  0.1024  0.1901 -0.1986
   79DOPS   CNO  937   3.708   2.660  20.783  0.1356  0.0726  0.1131
   79DOPS   PO4  938   3.348   2.753  20.693  0.1860 -0.1556  0.0270
   79DOPS   GL1  939   3.505   2.659  20.319  0.1137  0.2064  0.0199
   79DOPS   GL2  940   3.693   2.899  20.312 -0.1145 -0.0666 -0.2429
   79DOPS   C1A  941   3.581   2.363  20.006 -0.1875 -0.0167 -0.0869
   79DOPS   D2A  942   3.706   1.973  19.694 -0.0254 -0.3880  0.0219
   79DOPS   C3A  943   4.029   2.197  19.429 -0.3311 -0.1279  0.3699
   79DOPS   C4A  944   4.226   2.533  19.139  0.1559  0.0436  0.0622
   79DOPS   C1B  945   3.909   3.061  19.891  0.0404 -0.0807  0.0419
   79DOPS   D2B  946   4.150   2.935  19.476  0.4781 -0.1466 -0.1620
   79DOPS   C3B  947   4.159   3.076  19.026 -0.0438 -0.0282 -0.1640
   79DOPS   C4B  948   4.126   2.981  18.498  0.0384  0.1827 -0.0197
   80DOPS   CNO  949   6.050   0.033  22.502 -0.3201 -0.0014  0.0459
   80DOPS   PO4  950   5.954   0.272  22.218  0.3431  0.1882 -0.0098
   80DOPS   GL1  951   6.033   0.130  21.808 -0.3401  0.2911  0.2009
   80DOPS   GL2  952   6.038  -0.132  21.983  0.1513 -0.0720  0.4160
   80DOPS   C1A  953   6.443   0.147  21.474  0.0663 -0.2958 -0.1754
   80DOPS   D2A  954   6.856   0.172  21.256 -0.1257  0.0947 -0.0419
   80DOPS   C3A  955   6.945   0.362  20.871  0.0029 -0.1765 -0.0329
   80DOPS   C4A  956   6.616   0.668  20.750 -0.1092 -0.0592 -0.0999
   80DOPS   C1B  957   6.359  -0.263  21.713 -0.2559 -0.1599  0.1462
   80DOPS   D2B  958   6.607  -0.332  21.275 -0.0544 -0.0823 -0.2298
   80DOPS   C3B  959   6.699  -0.205  20.819 -0.2590 -0.0435  0.0591
   80DOPS   C4B  960   6.967   0.011  20.472 -0.0128 -0.0243  0.0519
   81DOPS   CNO  961   8.390   6.683  22.829 -0.2092  0.1145 -0.0649
   81DOPS   PO4  962   8.103   6.854  22.627 -0.1075  0.1817 -0.0623
   81DOPS   GL1  963   7.967   6.841  22.198 -0.0142 -0.0163 -0.3072
   81DOPS   GL2  964   8.245   6.728  22.214 -0.0111 -0.1088  0.1869
   81DOPS   C1A  965   8.116   7.106  21.792 -0.0160 -0.0816  0.0485
   81DOPS   D2A  966   8.152   7.284  21.307 -0.1894 -0.0909 -0.1636
   81DOPS   C3A  967   8.009   7.512  20.949 -0.1458  0.2199 -0.3599
   81DOPS   C4A  968   8.025   7.800  20.542 -0.0062  0.0581 -0.2360
   81DOPS   C1B  969   8.546   6.810  21.832  0.0895 -0.1454  0.2386
   81DOPS   D2B  970   8.981   7.088  21.721 -0.2174  0.0177 -0.0416
   81DOPS   C3B  971   9.188   7.275  21.417 -0.0587 -0.1632  0.2068
   81DOPS   C4B  972   8.947   7.395  20.963  0.0384 -0.1804 -0.1000
   82DOPS   CNO  973  20.069   1.250  14.345 -0.0535 -0.1122 -0.1198
   82DOPS   PO4  974  19.797   1.427  14.197 -0.1736 -0.1357  0.2293
   82DOPS   GL1  975  19.678   1.366  13.814  0.1407 -0.0936 -0.1284
   82DOPS   GL2  976  19.776   1.647  13.756  0.0719 -0.0405  0.1312
   82DOPS   C1A  977  19.464   1.063  13.570  0.2561  0.0163 -0.0335
   82DOPS   D2A  978  19.165   1.172  13.254 -0.3181 -0.1700  0.0011
   82DOPS   C3A  979  18.690   1.096  13.254 -0.1442 -0.0399  0.2077
   82DOPS   C4A  980  18.195   1.100  13.338  0.3230  0.1482 -0.3649
   82DOPS   C1B  981  19.630   1.917  13.504  0.0784  0.0291  0.0128
   82DOPS   D2B  982  19.383   2.257  13.218  0.0376 -0.1027 -0.0530
   82DOPS   C3B  983  19.189   2.140  12.761 -0.2912  0.3355 -0.0090
   82DOPS   C4B  984  19.072   2.176  12.330 -0.3230  0.2911  0.0652
   83DOPS   CNO  985  14.633   6.520  20.865 -0.1309 -0.0760 -0.0409
   83DOPS   PO4  986  14.305   6.344  20.900  0.0452  0.0336 -0.0583
   83DOPS   GL1  987  14.145   6.221  20.623  0.0739  0.5410  0.1250
   83DOPS   GL2  988  14.070   5.887  20.678 -0.2838  0.0644 -0.1765
   83DOPS   C1A  989  13.975   6.390  20.315  0.5098 -0.2710  0.0448
   83DOPS   D2A  990  13.649   6.145  19.968 -0.1631 -0.2078 -0.0509
   83DOPS   C3A  991  13.415   6.136  19.571 -0.2916  0.1706  0.1071
   83DOPS   C4A  992  13.490   5.932  19.138 -0.2315  0.0662 -0.1795
   83DOPS   C1B  993  13.739   5.930  20.411  0.0078  0.2234 -0.4314
   83DOPS   D2B  994  13.361   5.696  20.144  0.2080 -0.1817 -0.0791
   83DOPS   C3B  995  13.124   5.335  20.316 -0.0988  0.0433  0.1300
   83DOPS   C4B  996  12.838   5.088  20.613  0.0462  0.0288 -0.0562
   84DOPS   CNO  997   2.481   6.721  20.706 -0.0286  0.0902  0.1733
   84DOPS   PO4  998   2.826   6.662  20.478  0.0103 -0.0343  0.0156
   84DOPS   GL1  999   3.148   6.819  20.370  0.0532 -0.1742  0.1015
   84DOPS   GL2 1000   3.283   6.692  20.153 -0.1779  0.1500  0.0243
   84DOPS   C1A 1001   3.285   7.202  20.140 -0.3740 -0.0166  0.0263
   84DOPS   D2A 1002   3.445   7.510  19.818  0.0458  0.0917 -0.0397
   84DOPS   C3A 1003   3.802   7.614  19.514  0.2426 -0.1201 -0.1471
   84DOPS   C4A 1004   3.884   7.990  19.212 -0.2631 -0.0052 -0.0457
   84DOPS   C1B 1005   3.447   6.531  19.761 -0.0407 -0.1914  0.0986
   84DOPS   D2B 1006   3.725   6.748  19.399 -0.1595  0.2416 -0.2471
   84DOPS   C3B 1007   3.733   6.894  18.975 -0.1041  0.3370 -0.0573
   84DOPS   C4B 1008   3.792   7.106  18.515  0.1194  0.1202  0.4540
   85DOPS   CNO 1009   6.466   3.486  21.724 -0.1664 -0.0172  0.0984
   85DOPS   PO4 1010   6.200   3.339  21.965  0.2057 -0.4798 -0.2645
   85DOPS   GL1 1011   6.066   3.315  21.643 -0.0927  0.3415 -0.0499
   85DOPS   GL2 1012   6.043   3.587  21.509 -0.1472  0.0586 -0.0059
   85DOPS   C1A 1013   6.227   3.121  21.321 -0.0556  0.0299 -0.1822
   85DOPS   D2A 1014   6.544   2.928  21.008 -0.2525 -0.4085  0.1675
   85DOPS   C3A 1015   6.575   3.108  20.594  0.0769 -0.1303 -0.2772
   85DOPS   C4A 1016   6.706   3.374  20.299  0.1660  0.3167  0.0842
   85DOPS   C1B 1017   6.168   3.742  21.189  0.1624  0.2084 -0.0857
   85DOPS   D2B 1018   6.100   3.335  20.809  0.2525  0.0496 -0.1843
   85DOPS   C3B 1019   5.991   3.055  20.397  0.0452  0.1200  0.0141
   85DOPS   C4B 1020   5.648   3.153  20.034  0.2327 -0.3192  0.0938
   86DOPS   CNO 1021   1.171   0.649  18.786  0.0940 -0.0190  0.1940
   86DOPS   PO4 1022   1.472   0.886  18.827 -0.1696 -0.0723  0.3428
   86DOPS   GL1 1023   1.853   0.763  18.582  0.1707  0.1187 -0.0522
   86DOPS   GL2 1024   1.698   0.875  18.347  0.0578  0.3089  0.0045
   86DOPS   C1A 1025   2.131   0.368  18.478  0.0318 -0.1210 -0.1597
   86DOPS   D2A 1026   2.443   0.023  18.252 -0.1031 -0.4184  0.0650
   86DOPS   C3A 1027   2.484   0.160  17.880 -0.1056  0.1913  0.0431
   86DOPS   C4A 1028   2.575   0.511  17.544 -0.0280  0.2251 -0.0855
   86DOPS   C1B 1029   1.562   1.114  18.022 -0.0193  0.0008  0.1494
   86DOPS   D2B 1030   1.818   1.327  17.699 -0.0572 -0.0465  0.2920
   86DOPS   C3B 1031   2.242   1.373  17.489  0.0176  0.3034  0.0179
   86DOPS   C4B 1032   2.547   1.510  17.120 -0.0844  0.1631 -0.0273
   87DOPS   CNO 1033  17.134   5.955  16.944 -0.1279  0.1447  0.0042
   87DOPS   PO4 1034  17.135   5.607  16.776 -0.1951 -0.0291  0.0205
   87DOPS   GL1 1035  16.752   5.636  16.611  0.1628 -0.2253  0.1388
   87DOPS   GL2 1036  16.898   5.546  16.370 -0.0264  0.2352  0.1056
   87DOPS   C1A 1037  16.296   5.718  16.588 -0.2666 -0.0914  0.1149
   87DOPS   D2A 1038  15.900   5.685  16.815 -0.0450  0.2370 -0.1235
   87DOPS   C3A 1039  15.491   5.711  16.672  0.0173 -0.0523 -0.2019
   87DOPS   C4A 1040  15.183   5.936  16.459  0.1276 -0.0802 -0.2159
   87DOPS   C1B 1041  16.808   5.638  15.916 -0.1623  0.5408 -0.0341
   87DOPS   D2B 1042  16.517   5.571  15.517 -0.1432  0.0278  0.0692
   87DOPS   C3B 1043  16.216   5.918  15.436 -0.1490  0.1462  0.0050
   87DOPS   C4B 1044  15.878   6.272  15.516  0.0233 -0.1092  0.0124
   88DOPS   CNO 1045  17.520   6.755  16.527  0.1421  0.0443  0.1737
   88DOPS   PO4 1046  17.216   6.851  16.753 -0.3313 -0.0114 -0.0225
   88DOPS   GL1 1047  16.932   7.011  16.547 -0.1746 -0.3268  0.4470
   88DOPS   GL2 1048  16.755   6.805  16.439 -0.2322  0.2889  0.0196
   88DOPS   C1A 1049  16.680   7.284  16.555  0.2387 -0.0304  0.1862
   88DOPS   D2A 1050  16.282   7.622  16.482 -0.3752 -0.1011 -0.1159
   88DOPS   C3A 1051  15.965   7.359  16.190 -0.0269 -0.1118  0.1795
   88DOPS   C4A 1052  15.576   7.372  15.799  0.1642 -0.1468 -0.0722
   88DOPS   C1B 1053  16.717   6.896  15.992  0.4447  0.0125 -0.0017
   88DOPS   D2B 1054  16.506   6.893  15.577  0.2215  0.1799 -0.0874
   88DOPS   C3B 1055  16.094   7.046  15.763  0.1377  0.0165  0.0339
   88DOPS   C4B 1056  15.843   6.834  16.049 -0.1285 -0.1389  0.0420
   89DOPS   CNO 1057  15.897   1.165  18.951 -0.0856 -0.1122 -0.1157
   89DOPS   PO4 1058  15.669   1.283  18.695  0.1662 -0.2288 -0.2060
   89DOPS   GL1 1059  15.320   1.134  18.583  0.3059  0.4887  0.3045
   89DOPS   GL2 1060  15.251   1.387  18.408  0.3994 -0.3078 -0.2505
   89DOPS   C1A 1061  15.037   0.987  18.860  0.2911 -0.0013  0.2670
   89DOPS   D2A 1062  14.635   0.886  19.021  0.0907 -0.4191 -0.0879
   89DOPS   C3A 1063  14.222   1.060  18.903  0.2660 -0.0816 -0.1657
   89DOPS   C4A 1064  13.875   1.236  18.548  0.2500  0.5174  0.4777
   89DOPS   C1B 1065  14.813   1.246  18.454 -0.0211  0.0806  0.2701
   89DOPS   D2B 1066  14.418   0.872  18.463 -0.0093  0.2042  0.2526
   89DOPS   C3B 1067  14.057   0.910  18.175 -0.0029 -0.1159 -0.0069
   89DOPS   C4B 1068  13.691   0.759  17.963  0.1405 -0.0852 -0.1559
   90DOPS   CNO 1069  14.760   6.851  20.160 -0.1527 -0.3893  0.2871
   90DOPS   PO4 1070  14.480   6.981  20.405  0.1954 -0.3439 -0.1112
   90DOPS   GL1 1071  14.060   7.061  20.401  0.0413  0.3274 -0.1894
   90DOPS   GL2 1072  14.069   7.292  20.288 -0.0484  0.2345 -0.2599
   90DOPS   C1A 1073  13.683   6.930  20.295 -0.0765 -0.2103 -0.0669
   90DOPS   D2A 1074  13.173   6.953  20.287 -0.0119  0.1192 -0.0385
   90DOPS   C3A 1075  12.986   7.192  19.964  0.0819  0.0647 -0.0258
   90DOPS   C4A 1076  12.714   6.961  19.612 -0.0796  0.0348 -0.2278
   90DOPS   C1B 1077  13.918   7.165  19.895 -0.2956  0.0824  0.1119
   90DOPS   D2B 1078  13.770   7.096  19.469  0.2207 -0.1540 -0.0132
   90DOPS   C3B 1079  13.623   7.094  19.032 -0.1623  0.1653  0.3560
   90DOPS   C4B 1080  13.189   6.947  18.799 -0.4812 -0.3217  0.0482
   91DOPS   CNO 1081   8.858   3.563  22.908 -0.1118  0.2682  0.1523
   91DOPS   PO4 1082   8.981   3.566  22.560  0.2751 -0.0455 -0.0164
   91DOPS   GL1 1083   8.777   3.498  22.208  0.0771 -0.3296 -0.0106
   91DOPS   GL2 1084   8.950   3.655  22.030  0.2663  0.3200 -0.1148
   91DOPS   C1A 1085   8.764   3.220  21.889 -0.2478  0.2962  0.3627
   91DOPS   D2A 1086   8.705   2.906  21.412  0.2819 -0.3047  0.1232
   91DOPS   C3A 1087   8.265   2.851  21.132 -0.2458 -0.0588 -0.0790
   91DOPS   C4A 1088   7.988   3.117  20.762  0.0691  0.0618 -0.1049
   91DOPS   C1B 1089   8.877   3.662  21.565  0.1235 -0.0026  0.0468
   91DOPS   D2B 1090   8.567   3.716  21.154  0.0853  0.1695  0.0267
   91DOPS   C3B 1091   8.411   4.005  20.702 -0.2024 -0.0587 -0.2841
   91DOPS   C4B 1092   8.309   4.240  20.212  0.0183  0.0213 -0.1676
   92DOPS   CNO 1093  12.107   7.372  22.331 -0.2179 -0.0625  0.0252
   92DOPS   PO4 1094  11.703   7.467  22.278 -0.1791  0.0199 -0.0194
   92DOPS   GL1 1095  11.467   7.379  21.929  0.3191 -0.2446  0.1269
   92DOPS   GL2 1096  11.561   7.696  21.910  0.0936  0.0314  0.2481
   92DOPS   C1A 1097  11.519   6.958  21.735 -0.1024 -0.2160 -0.1763
   92DOPS   D2A 1098  11.721   6.562  21.482 -0.0230 -0.0804 -0.0190
   92DOPS   C3A 1099  11.741   6.814  21.103  0.2733  0.1954 -0.0591
   92DOPS   C4A 1100  11.444   6.820  20.701  0.1775  0.0078 -0.0824
   92DOPS   C1B 1101  11.482   7.860  21.501  0.2640 -0.1134 -0.0097
   92DOPS   D2B 1102  11.609   7.825  21.030  0.0089 -0.2838 -0.4446
   92DOPS   C3B 1103  11.456   8.136  20.648 -0.1356  0.0429 -0.0965
   92DOPS   C4B 1104  11.180   8.397  20.300 -0.1267  0.0840 -0.0029
   93DOPS   CNO 1105  19.656   6.793  14.742  0.0660  0.2385 -0.0149
   93DOPS   PO4 1106  19.676   7.152  14.674  0.0273 -0.0713 -0.0259
   93DOPS   GL1 1107  19.318   7.310  14.415  0.0519  0.0655 -0.0921
   93DOPS   GL2 1108  19.344   7.032  14.280 -0.1197  0.0172  0.1185
   93DOPS   C1A 1109  19.182   7.648  14.173  0.0955  0.0724 -0.5530
   93DOPS   D2A 1110  19.582   7.769  13.952  0.1593 -0.0636 -0.1001
   93DOPS   C3A 1111  19.691   7.808  13.495 -0.1847  0.1950 -0.2488
   93DOPS   C4A 1112  19.606   7.951  13.020 -0.2170 -0.0132 -0.0533
   93DOPS   C1B 1113  19.530   7.241  13.954 -0.1274  0.0743  0.1288
   93DOPS   D2B 1114  19.265   7.496  13.646 -0.2595 -0.1752 -0.1271
   93DOPS   C3B 1115  19.055   7.185  13.348  0.1661 -0.0037  0.0851
   93DOPS   C4B 1116  18.947   7.157  12.866  0.2823  0.1130 -0.0136
   94DOPS   CNO 1117   0.766   1.319  17.619 -0.0346  0.1468  0.4732
   94DOPS   PO4 1118   0.926   1.116  17.332  0.0677 -0.1555  0.0043
   94DOPS   GL1 1119   1.278   1.232  17.160  0.1993  0.0322 -0.3132
   94DOPS   GL2 1120   1.402   0.998  17.094  0.0062 -0.3459 -0.3124
   94DOPS   C1A 1121   1.391   1.564  16.919  0.0668 -0.0260 -0.0634
   94DOPS   D2A 1122   1.757   1.636  16.570 -0.2602 -0.0262 -0.1959
   94DOPS   C3A 1123   2.124   1.844  16.581 -0.1417 -0.0640 -0.1367
   94DOPS   C4A 1124   2.547   1.842  16.749 -0.3194 -0.3023  0.2012
   94DOPS   C1B 1125   1.538   0.737  16.735  0.3397  0.0346  0.0388
   94DOPS   D2B 1126   1.921   0.366  16.666  0.0532 -0.1133  0.0478
   94DOPS   C3B 1127   2.089   0.571  16.239 -0.1799  0.0091  0.0153
   94DOPS   C4B 1128   2.251   0.733  15.810 -0.1256 -0.1851 -0.0367
   95DOPS   CNO 1129  14.502   0.803  20.471  0.0534  0.0528  0.0040
   95DOPS   PO4 1130  14.311   0.453  20.437  0.3318 -0.0341 -0.0760
   95DOPS   GL1 1131  14.258   0.597  20.090 -0.0426  0.0577  0.0049
   95DOPS   GL2 1132  14.185   0.314  20.030  0.0941  0.0064 -0.1473
   95DOPS   C1A 1133  13.919   0.803  19.940  0.4963  0.0230 -0.0595
   95DOPS   D2A 1134  13.568   0.949  19.600 -0.3157  0.1280 -0.2082
   95DOPS   C3A 1135  13.360   0.767  19.203 -0.1616  0.2253  0.1647
   95DOPS   C4A 1136  13.182   0.761  18.756 -0.1846 -0.0789  0.2065
   95DOPS   C1B 1137  13.786   0.225  19.774 -0.4024  0.1244  0.0909
   95DOPS   D2B 1138  13.341   0.391  19.640  0.1835 -0.0485  0.2823
   95DOPS   C3B 1139  12.904   0.296  19.816  0.4337  0.3788 -0.5686
   95DOPS   C4B 1140  12.421   0.475  19.684  0.0224 -0.2598  0.0029
   96DOPS   CNO 1141  20.679   5.896  14.799 -0.0863  0.2122 -0.1002
   96DOPS   PO4 1142  20.618   6.267  14.736 -0.0683  0.2734 -0.0938
   96DOPS   GL1 1143  20.550   6.291  14.289 -0.1494 -0.1775  0.0027
   96DOPS   GL2 1144  20.578   6.555  14.206 -0.1643 -0.0227 -0.0969
   96DOPS   C1A 1145  20.461   6.070  13.892  0.2072 -0.0062  0.2589
   96DOPS   D2A 1146  20.346   6.019  13.371  0.1685 -0.0933 -0.2728
   96DOPS   C3A 1147  20.051   5.841  13.021 -0.0447  0.0302 -0.3945
   96DOPS   C4A 1148  19.793   5.786  12.641  0.1136  0.0117  0.0249
   96DOPS   C1B 1149  20.641   6.705  13.819 -0.0626 -0.1216  0.0725
   96DOPS   D2B 1150  20.551   6.717  13.296  0.1512  0.2196 -0.0328
   96DOPS   C3B 1151  20.290   6.503  12.994  0.3272  0.1434 -0.0238
   96DOPS   C4B 1152  19.952   6.250  12.694 -0.0048 -0.2680  0.0759
   97DOPS   CNO 1153  18.292   1.195  15.900  0.0786  0.0848 -0.2558
   97DOPS   PO4 1154  18.255   1.401  15.601  0.0431  0.0176  0.3040
   97DOPS   GL1 1155  18.003   1.226  15.285  0.1000 -0.0629  0.2405
   97DOPS   GL2 1156  17.963   1.118  15.552  0.0141  0.0421 -0.2099
   97DOPS   C1A 1157  17.756   1.293  14.922 -0.0070  0.2108  0.0371
   97DOPS   D2A 1158  17.540   1.502  14.548  0.0972  0.1986  0.1897
   97DOPS   C3A 1159  17.248   1.248  14.355 -0.3216 -0.2635 -0.1374
   97DOPS   C4A 1160  16.734   1.315  14.311 -0.0756  0.3617 -0.0512
   97DOPS   C1B 1161  17.582   0.970  15.379  0.1263  0.3918 -0.1894
   97DOPS   D2B 1162  17.272   0.569  15.289 -0.0011  0.0076  0.0019
   97DOPS   C3B 1163  16.975   0.653  14.987  0.2743 -0.4437  0.1973
   97DOPS   C4B 1164  16.646   0.781  14.649 -0.2654  0.0683  0.0374
   98DOPS   CNO 1165  11.828   3.622  22.295  0.0749 -0.0392 -0.0307
   98DOPS   PO4 1166  11.741   3.557  21.961 -0.2115 -0.2115  0.3725
   98DOPS   GL1 1167  11.880   3.284  21.687 -0.1576  0.0934 -0.1823
   98DOPS   GL2 1168  11.613   3.283  21.477  0.1658 -0.1998 -0.5517
   98DOPS   C1A 1169  12.032   3.468  21.335  0.2300  0.0882  0.2387
   98DOPS   D2A 1170  11.897   3.708  20.899  0.0233  0.0278 -0.1281
   98DOPS   C3A 1171  11.728   3.642  20.492  0.1397  0.1735  0.0673
   98DOPS   C4A 1172  11.342   3.585  20.114  0.1545  0.0603 -0.1834
   98DOPS   C1B 1173  11.576   3.326  21.008  0.0259  0.0086 -0.0791
   98DOPS   D2B 1174  11.316   3.437  20.569 -0.2295  0.1276 -0.3716
   98DOPS   C3B 1175  10.922   3.588  20.421 -0.1350  0.0141 -0.2383
   98DOPS   C4B 1176  10.572   3.457  20.229  0.2453 -0.0030 -0.2988
   99DOPS   CNO 1177  23.791   2.462  14.890  0.2814 -0.0828  0.0294
   99DOPS   PO4 1178  24.121   2.303  14.885 -0.1307 -0.2161 -0.0044
   99DOPS   GL1 1179  24.241   2.404  14.540 -0.2464  0.0534  0.0502
   99DOPS   GL2 1180  24.442   2.529  14.590  0.9915 -0.3742 -0.4016
   99DOPS   C1A 1181  24.304   2.206  14.147 -0.1306 -0.4108  0.0293
   99DOPS   D2A 1182  24.213   2.081  13.661 -0.0979  0.0976  0.3745
   99DOPS   C3A 1183  24.289   1.770  13.328  0.3821 -0.1181 -0.0903
   99DOPS   C4A 1184  24.552   1.493  13.020  0.1260  0.0657 -0.0048
   99DOPS   C1B 1185  24.788   2.434  14.306 -0.1970  0.2837  0.0960
   99DOPS   D2B 1186  25.171   2.131  14.441 -0.1555 -0.2208 -0.1465
   99DOPS   C3B 1187  25.616   1.914  14.292 -0.2305 -0.0586  0.0539
   99DOPS   C4B 1188  26.167   1.870  14.267 -0.0058 -0.0575  0.1175
  100DOPS   CNO 1189  10.297   7.122  22.845 -0.0397 -0.1806  0.2026
  100DOPS   PO4 1190  10.209   6.815  22.612  0.0544  0.0709  0.0434
  100DOPS   GL1 1191   9.936   6.878  22.289 -0.2563 -0.1366  0.0349
  100DOPS   GL2 1192   9.775   6.677  22.389  0.4083  0.2069  0.0131
  100DOPS   C1A 1193   9.963   7.083  21.914  0.1570 -0.1233 -0.0517
  100DOPS   D2A 1194   9.696   7.198  21.487 -0.0297  0.0817 -0.1089
  100DOPS   C3A 1195   9.684   7.396  21.002 -0.1393  0.3756 -0.1039
  100DOPS   C4A 1196   9.415   7.592  20.656  0.3087 -0.1584  0.2844
  100DOPS   C1B 1197   9.650   6.547  21.932  0.1373 -0.2223 -0.0427
  100DOPS   D2B 1198   9.551   6.155  21.697 -0.2327 -0.1047  0.3530
  100DOPS   C3B 1199   9.444   5.692  21.534 -0.2099 -0.2522  0.1407
  100DOPS   C4B 1200   9.272   5.248  21.511  0.0657  0.0187 -0.0295
  101DOPC   NC3 1201   0.767   0.377  11.559  0.1280 -0.1768  0.0333
  101DOPC   PO4 1202   0.777   0.754  11.616  0.2456  0.1049 -0.0435
  101DOPC   GL1 1203   0.427   0.844  11.829  0.1023 -0.2371 -0.3850
  101DOPC   GL2 1204   0.544   0.949  12.023  0.1321 -0.0161 -0.0761
  101DOPC   C1A 1205   0.022   0.853  11.673  0.0528  0.0395  0.3872
  101DOPC   D2A 1206  -0.423   0.829  11.749  0.0441 -0.0336  0.4037
  101DOPC   C3A 1207  -0.555   0.798  12.145  0.0547 -0.1886 -0.0072
  101DOPC   C4A 1208  -0.779   0.806  12.563 -0.2525 -0.0615  0.0259
  101DOPC   C1B 1209   0.290   0.995  12.429 -0.0782  0.2735 -0.3622
  101DOPC   D2B 1210   0.013   1.051  12.844  0.2982 -0.0973  0.0307
  101DOPC   C3B 1211  -0.427   0.938  13.013 -0.1258 -0.0570 -0.1688
  101DOPC   C4B 1212  -0.857   1.093  13.012  0.2427 -0.0946  0.0109
  102DOPC   NC3 1213  11.575   7.075  17.408 -0.0553  0.0953  0.1388
  102DOPC   PO4 1214  11.647   7.491  17.413  0.1991  0.0258  0.2159
  102DOPC   GL1 1215  11.652   7.776  17.705  0.1942 -0.5632 -0.2503
  102DOPC   GL2 1216  11.400   7.703  17.786  0.0200  0.0277  0.0050
  102DOPC   C1A 1217  12.037   7.710  17.999 -0.0291  0.1672 -0.3410
  102DOPC   D2A 1218  12.364   7.524  18.347  0.0987 -0.0352 -0.0664
  102DOPC   C3A 1219  12.620   7.973  18.436 -0.0822  0.0970  0.0709
  102DOPC   C4A 1220  12.925   8.188  18.841 -0.1712 -0.0219  0.2181
  102DOPC   C1B 1221  11.496   7.678  18.248 -0.0860 -0.0985 -0.2859
  102DOPC   D2B 1222  11.611   7.699  18.719  0.0118 -0.1132 -0.4365
  102DOPC   C3B 1223  12.021   7.606  18.980  0.0834  0.1468 -0.1706
  102DOPC   C4B 1224  12.336   7.486  19.322  0.1353  0.1125  0.2861
  103DOPC   NC3 1225  18.012   6.960  10.877  0.0845  0.0966 -0.2782
  103DOPC   PO4 1226  18.336   7.181  10.858  0.2059 -0.1906  0.0892
  103DOPC   GL1 1227  18.543   7.130  11.225 -0.1822 -0.2298 -0.2345
  103DOPC   GL2 1228  18.673   6.865  11.015 -0.0584  0.0304  0.3805
  103DOPC   C1A 1229  18.702   7.123  11.677 -0.0799  0.1242  0.1345
  103DOPC   D2A 1230  19.055   7.170  11.965 -0.0879  0.0549  0.0377
  103DOPC   C3A 1231  19.324   6.860  12.179  0.1428 -0.0059  0.0267
  103DOPC   C4A 1232  19.708   6.586  12.395 -0.0569 -0.0431  0.1673
  103DOPC   C1B 1233  19.021   6.849  11.296  0.0195 -0.1540  0.4269
  103DOPC   D2B 1234  19.491   6.980  11.144  0.0620  0.0478 -0.2260
  103DOPC   C3B 1235  19.755   7.363  11.131  0.1198  0.0372 -0.0291
  103DOPC   C4B 1236  20.156   7.674  11.048 -0.1888 -0.3418 -0.0285
  104DOPC   NC3 1237  24.179   4.077  10.555 -0.1423  0.0977 -0.2344
  104DOPC   PO4 1238  24.042   4.390  10.377 -0.0547 -0.2117  0.2820
  104DOPC   GL1 1239  23.747   4.462  10.735  0.2675  0.3009  0.1197
  104DOPC   GL2 1240  23.789   4.180  10.750 -0.0754 -0.0333  0.3343
  104DOPC   C1A 1241  23.663   4.531  11.168  0.0286  0.3012  0.0947
  104DOPC   D2A 1242  23.370   4.526  11.576  0.1381  0.0505 -0.1106
  104DOPC   C3A 1243  23.033   4.865  11.573 -0.4122  0.3289 -0.1694
  104DOPC   C4A 1244  22.654   4.832  11.913  0.4062 -0.0450 -0.2028
  104DOPC   C1B 1245  23.986   3.910  11.045  0.1630 -0.1800  0.2478
  104DOPC   D2B 1246  24.201   3.727  11.447 -0.3955  0.0186  0.1992
  104DOPC   C3B 1247  23.931   3.784  11.818 -0.0944 -0.1416  0.1278
  104DOPC   C4B 1248  23.704   3.657  12.241  0.1083 -0.1444  0.1885
  105DOPC   NC3 1249   3.145   5.119  13.041 -0.1346 -0.0263  0.0201
  105DOPC   PO4 1250   2.941   4.817  12.819  0.0675  0.0212 -0.0438
  105DOPC   GL1 1251   2.609   4.621  12.816  0.0105 -0.3177 -0.3556
  105DOPC   GL2 1252   2.628   4.490  13.106  0.1822 -0.0266 -0.0431
  105DOPC   C1A 1253   2.242   4.719  12.925 -0.1590  0.0591 -0.1816
  105DOPC   D2A 1254   1.915   5.043  13.111 -0.0352  0.0036  0.2549
  105DOPC   C3A 1255   1.489   5.182  13.302  0.1973  0.1899 -0.0707
  105DOPC   C4A 1256   1.331   5.447  13.683  0.1473  0.2507 -0.0735
  105DOPC   C1B 1257   2.431   4.633  13.454 -0.0201  0.2229 -0.1719
  105DOPC   D2B 1258   2.084   4.771  13.809  0.0265 -0.1667 -0.0553
  105DOPC   C3B 1259   2.156   4.568  14.282 -0.1247 -0.1735  0.6507
  105DOPC   C4B 1260   1.857   4.580  14.604  0.0932 -0.0229 -0.1281
  106DOPC   NC3 1261  21.554   2.478   9.888  0.1727 -0.2355  0.2653
  106DOPC   PO4 1262  21.329   2.578  10.241 -0.1977 -0.0954  0.0736
  106DOPC   GL1 1263  21.418   2.342  10.574  0.3181 -0.0473  0.2726
  106DOPC   GL2 1264  21.448   2.610  10.753 -0.3595 -0.2225 -0.0269
  106DOPC   C1A 1265  21.318   2.041  10.749 -0.1204 -0.0942 -0.2061
  106DOPC   D2A 1266  21.281   1.740  11.217  0.0023 -0.0272  0.0394
  106DOPC   C3A 1267  21.366   1.797  11.616 -0.3295 -0.3184 -0.0862
  106DOPC   C4A 1268  21.341   1.782  12.099  0.0795  0.2088  0.2689
  106DOPC   C1B 1269  21.319   2.570  11.172 -0.0191  0.0442 -0.1154
  106DOPC   D2B 1270  21.200   2.368  11.560 -0.0787  0.3656 -0.2213
  106DOPC   C3B 1271  21.156   2.364  12.006  0.1989  0.0325  0.1001
  106DOPC   C4B 1272  21.118   2.192  12.394  0.2180 -0.2142  0.0302
  107DOPC   NC3 1273   4.487   2.234  15.324 -0.2605  0.0624  0.0692
  107DOPC   PO4 1274   4.256   2.516  15.171  0.0014 -0.2822 -0.2061
  107DOPC   GL1 1275   4.024   2.755  15.404  0.0898  0.1119 -0.2370
  107DOPC   GL2 1276   4.079   2.989  15.171  0.1769 -0.0552 -0.2502
  107DOPC   C1A 1277   3.658   2.684  15.666 -0.2092 -0.0065  0.3986
  107DOPC   D2A 1278   3.272   2.875  15.865  0.1612 -0.3528 -0.0143
  107DOPC   C3A 1279   2.963   3.223  15.878 -0.1963 -0.0829 -0.0808
  107DOPC   C4A 1280   2.712   3.636  15.934  0.0511  0.1517  0.1327
  107DOPC   C1B 1281   3.884   3.353  15.236  0.3799 -0.2344 -0.0806
  107DOPC   D2B 1282   3.832   3.712  15.521 -0.3208  0.3881 -0.0888
  107DOPC   C3B 1283   3.414   3.671  15.753 -0.0977 -0.1995 -0.1258
  107DOPC   C4B 1284   3.226   3.622  16.190  0.0752 -0.0046  0.1288
  108DOPC   NC3 1285  21.621   1.763  10.504  0.0024 -0.0620  0.1365
  108DOPC   PO4 1286  21.419   1.565  10.230  0.0065 -0.0995  0.1794
  108DOPC   GL1 1287  21.235   1.344  10.499 -0.1306 -0.1225 -0.0914
  108DOPC   GL2 1288  21.507   1.245  10.586 -0.0618 -0.0753 -0.0187
  108DOPC   C1A 1289  21.068   1.416  10.857  0.0279  0.1511  0.3338
  108DOPC   D2A 1290  20.921   1.430  11.345  0.0261 -0.2197  0.0446
  108DOPC   C3A 1291  20.633   1.569  11.702  0.0339  0.0655  0.3042
  108DOPC   C4A 1292  20.389   1.280  12.064  0.1442  0.0048 -0.1757
  108DOPC   C1B 1293  21.653   1.346  11.015  0.1230 -0.3165 -0.1746
  108DOPC   D2B 1294  21.445   1.341  11.491 -0.1614  0.2226  0.1101
  108DOPC   C3B 1295  21.059   1.339  11.858  0.3067  0.2181 -0.2402
  108DOPC   C4B 1296  21.132   1.388  12.401  0.1135  0.1639 -0.1940
  109DOPC   NC3 1297   8.153   4.303  18.519  0.0770  0.0609 -0.0319
  109DOPC   PO4 1298   8.055   4.669  18.419 -0.1810  0.0719 -0.1326
  109DOPC   GL1 1299   7.944   4.651  18.861 -0.0263  0.2690  0.1274
  109DOPC   GL2 1300   8.215   4.619  18.879 -0.0052  0.1387 -0.0564
  109DOPC   C1A 1301   7.866   4.858  19.214 -0.3907  0.0611  0.0361
  109DOPC   D2A 1302   8.051   5.256  19.431  0.0077  0.1835 -0.1238
  109DOPC   C3A 1303   7.878   5.600  19.777  0.0730  0.3717 -0.0232
  109DOPC   C4A 1304   7.752   5.889  20.220 -0.0703 -0.0958  0.0953
  109DOPC   C1B 1305   8.448   4.882  19.153  0.2054 -0.2400  0.1885
  109DOPC   D2B 1306   8.463   5.066  19.620 -0.1680  0.3133  0.1495
  109DOPC   C3B 1307   8.167   5.107  19.918  0.0852 -0.3188 -0.0732
  109DOPC   C4B 1308   7.914   5.321  20.254 -0.0077  0.0491  0.1731
  110DOPC   NC3 1309   5.293   7.756  15.860  0.1664 -0.1015 -0.0867
  110DOPC   PO4 1310   4.923   7.713  15.991  0.2056 -0.0520 -0.0041
  110DOPC   GL1 1311   4.750   7.903  16.372  0.2651  0.1316  0.0244
  110DOPC   GL2 1312   4.587   7.677  16.325 -0.0130  0.0157 -0.0632
  110DOPC   C1A 1313   4.360   8.075  16.532 -0.3176  0.1492  0.2967
  110DOPC   D2A 1314   4.129   8.401  16.827  0.0738 -0.3178 -0.0863
  110DOPC   C3A 1315   3.697   8.680  16.826  0.3129  0.1862 -0.2189
  110DOPC   C4A 1316   3.293   8.992  16.855 -0.0359  0.2114 -0.0908
  110DOPC   C1B 1317   4.235   7.479  16.486  0.0806 -0.1283 -0.0611
  110DOPC   D2B 1318   3.855   7.256  16.612 -0.2304 -0.2364  0.0478
  110DOPC   C3B 1319   3.426   7.434  16.743 -0.2103  0.1120 -0.1024
  110DOPC   C4B 1320   3.347   7.734  17.108 -0.2764  0.1262 -0.2140
  111DOPC   NC3 1321  14.970   3.852  13.131 -0.3095 -0.0917 -0.0070
  111DOPC   PO4 1322  14.824   3.716  13.492  0.2156 -0.0382 -0.0037
  111DOPC   GL1 1323  14.910   3.917  13.860 -0.3571  0.1988 -0.0198
  111DOPC   GL2 1324  15.020   3.590  13.917  0.0559  0.2552  0.1146
  111DOPC   C1A 1325  15.324   3.954  13.864 -0.0672 -0.1039 -0.0422
  111DOPC   D2A 1326  15.765   3.903  14.085  0.0879 -0.1824  0.0924
  111DOPC   C3A 1327  16.186   3.880  13.894  0.2056 -0.3230 -0.0374
  111DOPC   C4A 1328  16.638   3.834  13.984  0.1513 -0.0528  0.1104
  111DOPC   C1B 1329  15.112   3.369  14.323 -0.1877 -0.2228  0.2445
  111DOPC   D2B 1330  15.024   3.086  14.787 -0.3099 -0.2763 -0.0580
  111DOPC   C3B 1331  15.155   2.858  15.227 -0.3302  0.0123 -0.0399
  111DOPC   C4B 1332  15.150   2.706  15.676 -0.1117  0.0378 -0.1113
  112DOPC   NC3 1333   2.263   7.586  13.179  0.1316 -0.0146 -0.1997
  112DOPC   PO4 1334   2.648   7.666  13.290  0.1067 -0.0548  0.1077
  112DOPC   GL1 1335   2.551   7.673  13.633  0.0043  0.1157 -0.0584
  112DOPC   GL2 1336   2.286   7.465  13.592 -0.0799 -0.0351 -0.2676
  112DOPC   C1A 1337   2.396   7.876  13.881 -0.0326  0.0648 -0.0989
  112DOPC   D2A 1338   2.137   8.108  14.194 -0.0460  0.2144 -0.1082
  112DOPC   C3A 1339   1.816   7.816  14.073  0.1107 -0.1394  0.1569
  112DOPC   C4A 1340   1.402   7.508  13.956  0.0826 -0.1184 -0.0350
  112DOPC   C1B 1341   1.985   7.751  13.637  0.1442 -0.1840  0.1034
  112DOPC   D2B 1342   1.510   7.882  13.624  0.0294  0.0236 -0.1150
  112DOPC   C3B 1343   1.296   7.996  14.029 -0.0119  0.0725  0.2059
  112DOPC   C4B 1344   1.423   7.872  14.471 -0.3558  0.0317  0.2560
  113DOPC   NC3 1345  10.543   2.049  18.206 -0.0693  0.0090  0.1573
  113DOPC   PO4 1346  10.269   1.772  18.213 -0.0331 -0.0983 -0.4120
  113DOPC   GL1 1347  10.304   1.675  18.615  0.0197 -0.0920 -0.1155
  113DOPC   GL2 1348  10.141   1.953  18.691 -0.3308  0.0580 -0.2503
  113DOPC   C1A 1349  10.576   1.502  18.867  0.2533  0.2553 -0.0981
  113DOPC   D2A 1350  10.546   1.448  19.371 -0.0408 -0.0899 -0.0331
  113DOPC   C3A 1351  10.743   1.141  19.684  0.0348 -0.1172 -0.0508
  113DOPC   C4A 1352  10.797   0.740  19.921  0.2625  0.0308 -0.0153
  113DOPC   C1B 1353  10.518   2.112  18.888 -0.1101 -0.2272  0.1060
  113DOPC   D2B 1354  10.963   2.231  19.003  0.1223 -0.0404  0.0474
  113DOPC   C3B 1355  11.193   2.293  19.431 -0.0494  0.3014  0.0113
  113DOPC   C4B 1356  11.310   2.425  19.858 -0.1385 -0.0559  0.0205
  114DOPC   NC3 1357  14.159   1.503  12.879  0.1055 -0.0277  0.0129
  114DOPC   PO4 1358  14.418   1.258  13.052 -0.2742  0.1881 -0.0290
  114DOPC   GL1 1359  14.801   1.381  13.241 -0.2385  0.3597  0.0789
  114DOPC   GL2 1360  14.953   1.217  13.165 -0.1076  0.0615  0.0259
  114DOPC   C1A 1361  14.999   1.694  13.504  0.1520 -0.0977  0.1061
  114DOPC   D2A 1362  15.272   2.041  13.742 -0.0431  0.1013 -0.1905
  114DOPC   C3A 1363  15.371   2.486  13.898  0.1079 -0.0087 -0.1117
  114DOPC   C4A 1364  15.594   2.972  13.820  0.3501  0.0981 -0.1511
  114DOPC   C1B 1365  15.245   1.270  13.527 -0.0396 -0.1002 -0.0713
  114DOPC   D2B 1366  15.453   1.507  13.955  0.1759  0.0862  0.1113
  114DOPC   C3B 1367  15.459   1.495  14.443  0.0742 -0.1333  0.0740
  114DOPC   C4B 1368  15.549   1.497  14.940  0.2646  0.0684 -0.2220
  115DOPC   NC3 1369  20.652   3.668  10.133  0.0368  0.3356  0.2159
  115DOPC   PO4 1370  20.372   3.699  10.407  0.0798 -0.0897  0.0124
  115DOPC   GL1 1371  20.752   3.692  10.655 -0.2060 -0.1384  0.1514
  115DOPC   GL2 1372  20.580   3.493  10.828  0.0985 -0.3352  0.2734
  115DOPC   C1A 1373  21.138   3.833  10.776 -0.1590 -0.0849  0.5783
  115DOPC   D2A 1374  21.544   4.019  11.010  0.0653 -0.1864  0.1362
  115DOPC   C3A 1375  21.710   4.042  11.384 -0.1052 -0.2497 -0.0171
  115DOPC   C4A 1376  21.882   3.983  11.824  0.3074  0.0406  0.2447
  115DOPC   C1B 1377  20.361   3.743  11.087 -0.2074 -0.0250 -0.1596
  115DOPC   D2B 1378  20.385   3.616  11.556 -0.0279  0.2137  0.1044
  115DOPC   C3B 1379  20.835   3.431  11.622 -0.0494  0.0200  0.3130
  115DOPC   C4B 1380  21.180   3.232  11.907 -0.1772  0.1476  0.2059
  116DOPC   NC3 1381  20.566   2.022  10.226  0.0244  0.0152 -0.1795
  116DOPC   PO4 1382  20.271   2.256  10.146  0.2084 -0.0915 -0.0836
  116DOPC   GL1 1383  20.214   2.401  10.530  0.3446  0.1248  0.1011
  116DOPC   GL2 1384  20.505   2.429  10.581 -0.2502  0.5184 -0.0514
  116DOPC   C1A 1385  20.090   2.590  10.937  0.2263  0.0906 -0.2883
  116DOPC   D2A 1386  20.284   2.796  11.340 -0.1482  0.0305  0.2179
  116DOPC   C3A 1387  20.506   3.017  11.754 -0.1590  0.0087  0.0484
  116DOPC   C4A 1388  20.753   3.225  12.096  0.2054  0.0946  0.1894
  116DOPC   C1B 1389  20.546   2.366  11.074 -0.0372  0.0108  0.4084
  116DOPC   D2B 1390  20.632   2.502  11.546 -0.0667 -0.0417  0.1319
  116DOPC   C3B 1391  20.921   2.782  11.880  0.1068 -0.1237 -0.1031
  116DOPC   C4B 1392  21.170   3.020  12.314  0.3080 -0.0648 -0.0522
  117DOPC   NC3 1393  11.900   0.696  17.420  0.0554  0.1565 -0.3338
  117DOPC   PO4 1394  12.163   0.660  17.147  0.0934 -0.4149 -0.4092
  117DOPC   GL1 1395  12.328   0.498  17.384 -0.0172  0.0618 -0.2515
  117DOPC   GL2 1396  12.390   0.213  17.270 -0.3977 -0.1126  0.2672
  117DOPC   C1A 1397  12.797   0.543  17.550 -0.2427  0.0337  0.1312
  117DOPC   D2A 1398  13.211   0.642  17.764  0.2471  0.1024  0.0950
  117DOPC   C3A 1399  13.566   0.709  17.446  0.1789  0.0754 -0.0257
  117DOPC   C4A 1400  13.820   0.800  17.014 -0.1220  0.2609  0.0018
  117DOPC   C1B 1401  12.770   0.061  17.416  0.0218 -0.0394  0.0864
  117DOPC   D2B 1402  13.301   0.211  17.306  0.2202  0.1435  0.0211
  117DOPC   C3B 1403  13.641   0.161  17.625  0.1330  0.1437 -0.2534
  117DOPC   C4B 1404  13.950  -0.017  17.951  0.1357 -0.0769  0.3266
  118DOPC   NC3 1405  11.290   5.559  17.844 -0.2094  0.1121  0.1483
  118DOPC   PO4 1406  11.395   5.225  17.629 -0.1092  0.1077 -0.4202
  118DOPC   GL1 1407  11.758   5.151  17.755 -0.2258 -0.0905 -0.0373
  118DOPC   GL2 1408  11.874   5.140  17.484 -0.1099  0.0686  0.1130
  118DOPC   C1A 1409  11.918   4.921  18.153 -0.0821 -0.3923  0.3370
  118DOPC   D2A 1410  11.966   4.792  18.616  0.1085 -0.0722  0.0839
  118DOPC   C3A 1411  12.436   4.807  18.838 -0.0583 -0.0298  0.1839
  118DOPC   C4A 1412  12.853   4.685  18.882  0.3875 -0.0435 -0.2183
  118DOPC   C1B 1413  12.231   5.360  17.575  0.0763 -0.2232  0.3644
  118DOPC   D2B 1414  12.611   5.566  17.732 -0.2723 -0.2499  0.2058
  118DOPC   C3B 1415  12.793   5.436  18.128  0.1652 -0.3770  0.2149
  118DOPC   C4B 1416  13.010   5.175  18.436 -0.0408 -0.3179 -0.2149
  119DOPC   NC3 1417  16.233   2.892  11.596 -0.0779 -0.0358 -0.0674
  119DOPC   PO4 1418  16.594   2.942  11.705 -0.0749 -0.1388  0.4027
  119DOPC   GL1 1419  16.649   3.023  12.057  0.1649 -0.1769 -0.1149
  119DOPC   GL2 1420  16.757   3.269  11.974  0.2791 -0.4782 -0.1135
  119DOPC   C1A 1421  16.895   2.878  12.325  0.3071 -0.1094 -0.1961
  119DOPC   D2A 1422  17.201   2.923  12.693  0.0403 -0.2659  0.1078
  119DOPC   C3A 1423  17.086   2.802  13.128 -0.0972 -0.0503  0.5021
  119DOPC   C4A 1424  17.236   2.525  13.477 -0.0030  0.4309 -0.1527
  119DOPC   C1B 1425  17.168   3.181  12.043  0.5953  0.0014  0.2345
  119DOPC   D2B 1426  17.567   3.012  12.326  0.4738 -0.0850  0.1319
  119DOPC   C3B 1427  17.727   3.058  12.795  0.2881  0.1096 -0.0778
  119DOPC   C4B 1428  17.921   2.840  13.229  0.0662 -0.1470 -0.0949
  120DOPC   NC3 1429  21.846   4.816   9.949  0.1003  0.2414 -0.1001
  120DOPC   PO4 1430  21.872   5.203   9.771  0.2499  0.0340 -0.2092
  120DOPC   GL1 1431  21.662   5.484  10.049 -0.4945 -0.1055 -0.1020
  120DOPC   GL2 1432  21.540   5.306  10.283 -0.2337  0.3291  0.2643
  120DOPC   C1A 1433  21.907   5.772  10.376  0.0363 -0.0115  0.0794
  120DOPC   D2A 1434  22.154   6.192  10.503 -0.0252 -0.0786 -0.5140
  120DOPC   C3A 1435  21.904   6.482  10.826  0.0783  0.2731  0.2190
  120DOPC   C4A 1436  21.608   6.840  11.017 -0.0531  0.0033 -0.2212
  120DOPC   C1B 1437  21.165   5.174  10.473  0.1331  0.2806  0.0124
  120DOPC   D2B 1438  20.933   5.090  10.919 -0.0409 -0.1993  0.1003
  120DOPC   C3B 1439  21.179   5.159  11.296  0.1066 -0.0521  0.0002
  120DOPC   C4B 1440  21.401   5.308  11.666  0.0764 -0.2566 -0.1396
  121DOPC   NC3 1441  19.896   2.568  10.262  0.2469  0.1129  0.0744
  121DOPC   PO4 1442  20.018   2.937  10.392 -0.0229  0.1615 -0.0439
  121DOPC   GL1 1443  19.748   2.886  10.700  0.3149  0.3367 -0.2351
  121DOPC   GL2 1444  19.737   3.217  10.617 -0.0284  0.3143 -0.4198
  121DOPC   C1A 1445  19.845   2.887  11.178  0.1164 -0.0292 -0.0946
  121DOPC   D2A 1446  20.008   3.024  11.654  0.2401 -0.0660 -0.1907
  121DOPC   C3A 1447  20.062   3.080  12.103 -0.2068 -0.2985  0.0457
  121DOPC   C4A 1448  20.156   3.263  12.538 -0.1989 -0.0878  0.1034
  121DOPC   C1B 1449  19.622   3.303  11.038  0.1392 -0.0214  0.1277
  121DOPC   D2B 1450  19.610   3.493  11.460 -0.0939 -0.0291  0.0782
  121DOPC   C3B 1451  19.945   3.636  11.759 -0.2759 -0.3264  0.0354
  121DOPC   C4B 1452  20.376   3.546  12.058 -0.2782 -0.2830 -0.0091
  122DOPC   NC3 1453   4.548   3.026  14.851 -0.0947  0.1849 -0.1644
  122DOPC   PO4 1454   4.303   2.784  14.633 -0.1813 -0.4167  0.1103
  122DOPC   GL1 1455   3.918   2.853  14.779 -0.0596 -0.2309 -0.0603
  122DOPC   GL2 1456   3.923   2.676  14.943  0.2870  0.0099 -0.0197
  122DOPC   C1A 1457   3.487   3.035  14.732  0.0641 -0.2618  0.1148
  122DOPC   D2A 1458   3.008   3.151  14.778 -0.0498  0.1783 -0.1137
  122DOPC   C3A 1459   2.625   3.097  14.999  0.2041  0.3415  0.1664
  122DOPC   C4A 1460   2.266   2.913  15.263 -0.1230 -0.0302  0.1782
  122DOPC   C1B 1461   3.589   2.734  15.206  0.1182 -0.0979  0.0071
  122DOPC   D2B 1462   3.168   2.764  15.391  0.2234  0.1195  0.2215
  122DOPC   C3B 1463   2.735   2.816  15.656  0.1366  0.2459 -0.2522
  122DOPC   C4B 1464   2.298   2.889  15.841  0.0452 -0.2891 -0.4012
  123DOPC   NC3 1465   0.046   1.453  10.655  0.1570 -0.1743 -0.2079
  123DOPC   PO4 1466   0.037   1.136  10.900  0.1376  0.0623  0.1438
  123DOPC   GL1 1467  -0.160   1.064  11.223 -0.2482 -0.1012 -0.1535
  123DOPC   GL2 1468  -0.490   1.123  11.152  0.0163 -0.3713  0.4343
  123DOPC   C1A 1469  -0.200   1.293  11.586  0.0234  0.0359  0.1075
  123DOPC   D2A 1470  -0.388   1.430  12.104 -0.0314 -0.1836 -0.1113
  123DOPC   C3A 1471  -0.598   1.697  12.378  0.2971 -0.0105 -0.1503
  123DOPC   C4A 1472  -0.709   2.107  12.473 -0.1747  0.0146  0.2139
  123DOPC   C1B 1473  -0.812   0.849  11.399  0.0829 -0.0977 -0.4004
  123DOPC   D2B 1474  -0.987   0.808  11.890  0.2624 -0.0646  0.0737
  123DOPC   C3B 1475  -0.961   0.481  12.179  0.0469 -0.4304  0.3543
  123DOPC   C4B 1476  -0.860   0.105  12.509  0.2178 -0.2428 -0.1005
  124DOPC   NC3 1477  19.165   1.714  10.505 -0.1059 -0.1183 -0.0444
  124DOPC   PO4 1478  19.380   1.985  10.542 -0.0624  0.1500 -0.1591
  124DOPC   GL1 1479  19.382   1.984  10.975  0.0568  0.1378  0.0633
  124DOPC   GL2 1480  19.476   1.683  10.960  0.0143 -0.6115  0.2128
  124DOPC   C1A 1481  19.372   2.035  11.457  0.0583 -0.2516 -0.2125
  124DOPC   D2A 1482  19.409   2.201  11.865  0.0675  0.1305 -0.0384
  124DOPC   C3A 1483  19.670   2.234  12.207 -0.0431  0.0432  0.1299
  124DOPC   C4A 1484  19.582   2.502  12.586  0.1094  0.2450  0.1449
  124DOPC   C1B 1485  19.672   1.496  11.324  0.2319 -0.1266 -0.2087
  124DOPC   D2B 1486  19.986   1.403  11.667  0.2310 -0.0093 -0.1746
  124DOPC   C3B 1487  20.203   1.691  11.854 -0.0100 -0.0412  0.0424
  124DOPC   C4B 1488  20.376   1.725  12.294  0.0874 -0.2353  0.1128
  125DOPC   NC3 1489   6.922   7.252  18.409  0.0264  0.0445 -0.0663
  125DOPC   PO4 1490   7.134   6.912  18.449  0.0647  0.1646  0.0887
  125DOPC   GL1 1491   6.974   6.865  18.817 -0.2007 -0.2386 -0.3567
  125DOPC   GL2 1492   7.234   6.641  18.917  0.4088 -0.4721  0.0394
  125DOPC   C1A 1493   6.540   6.908  19.013  0.1444 -0.1680 -0.0810
  125DOPC   D2A 1494   6.388   6.619  19.364  0.4061  0.1191  0.2855
  125DOPC   C3A 1495   6.493   6.410  19.742  0.2025 -0.0776  0.1047
  125DOPC   C4A 1496   6.808   6.091  19.931 -0.2450  0.1662  0.0416
  125DOPC   C1B 1497   7.474   6.567  19.265 -0.1528 -0.1306 -0.2889
  125DOPC   D2B 1498   7.935   6.492  19.469 -0.0002  0.2549 -0.2044
  125DOPC   C3B 1499   8.019   6.428  19.922  0.0537  0.0399 -0.0512
  125DOPC   C4B 1500   7.744   6.391  20.310 -0.0000 -0.4324  0.0559
  126DOPC   NC3 1501  18.515   1.408  10.194 -0.1290  0.0131 -0.1247
  126DOPC   PO4 1502  18.643   1.714  10.417  0.0348 -0.1672  0.0348
  126DOPC   GL1 1503  18.787   1.775  10.805  0.0616 -0.0541  0.1494
  126DOPC   GL2 1504  18.505   1.677  10.901 -0.1963  0.2275  0.3348
  126DOPC   C1A 1505  18.686   2.162  10.935 -0.2159  0.0771  0.2526
  126DOPC   D2A 1506  18.702   2.605  11.143 -0.0639 -0.2841  0.3118
  126DOPC   C3A 1507  18.663   2.585  11.583 -0.0721 -0.0531  0.0188
  126DOPC   C4A 1508  18.340   2.376  11.900 -0.2014 -0.1398  0.1490
  126DOPC   C1B 1509  18.681   1.374  11.111  0.1067 -0.2535  0.0068
  126DOPC   D2B 1510  18.581   1.173  11.560 -0.1319 -0.1026 -0.0994
  126DOPC   C3B 1511  18.865   1.151  11.892  0.3711  0.2691 -0.1709
  126DOPC   C4B 1512  19.076   1.010  12.329 -0.0404  0.1535 -0.2289
  127DOPC   NC3 1513   1.199   4.349  11.509 -0.0273 -0.0731 -0.1770
  127DOPC   PO4 1514   1.312   4.194  11.833 -0.1252  0.2232  0.2336
  127DOPC   GL1 1515   1.023   4.139  12.151  0.4303  0.1975  0.2454
  127DOPC   GL2 1516   0.945   4.441  12.018 -0.3939 -0.2993 -0.0012
  127DOPC   C1A 1517   0.905   3.785  12.303 -0.0316  0.1665 -0.1834
  127DOPC   D2A 1518   0.814   3.614  12.800  0.0002 -0.0347 -0.2164
  127DOPC   C3A 1519   0.496   3.794  13.051 -0.0717 -0.2620  0.2966
  127DOPC   C4A 1520   0.127   3.582  13.318 -0.3002 -0.0674 -0.4543
  127DOPC   C1B 1521   1.188   4.583  12.437 -0.0603 -0.0827  0.2578
  127DOPC   D2B 1522   1.126   4.429  12.925  0.0452  0.0863  0.0490
  127DOPC   C3B 1523   0.926   4.100  13.149 -0.1219  0.4049  0.2154
  127DOPC   C4B 1524   0.953   3.605  13.300 -0.1250 -0.1270  0.0017
  128DOPC   NC3 1525   9.761   1.813  18.115  0.0208 -0.0487  0.0874
  128DOPC   PO4 1526   9.595   1.912  18.480  0.0961  0.1350 -0.0236
  128DOPC   GL1 1527   9.636   1.951  18.910  0.1135 -0.0936 -0.1461
  128DOPC   GL2 1528   9.856   2.080  18.949 -0.1624  0.1639  0.0693
  128DOPC   C1A 1529   9.690   1.784  19.206 -0.0060 -0.1837 -0.2057
  128DOPC   D2A 1530   9.589   1.763  19.700  0.0232 -0.2419  0.0635
  128DOPC   C3A 1531   9.865   1.692  20.027  0.3655  0.0743 -0.1565
  128DOPC   C4A 1532  10.100   1.331  20.349  0.4447 -0.0431  0.2211
  128DOPC   C1B 1533  10.167   2.130  19.203 -0.1880  0.4055 -0.0028
  128DOPC   D2B 1534  10.594   2.180  19.484  0.0366  0.1568 -0.1993
  128DOPC   C3B 1535  10.786   2.395  19.827  0.1381  0.3905 -0.2925
  128DOPC   C4B 1536  10.992   2.625  20.194  0.0218 -0.0385 -0.1023
  129DOPC   NC3 1537  22.187   3.174   9.896  0.0410 -0.3716  0.0252
  129DOPC   PO4 1538  21.956   3.371  10.104  0.1552  0.1434 -0.1009
  129DOPC   GL1 1539  21.789   3.205  10.558  0.0623  0.3799  0.2860
  129DOPC   GL2 1540  21.903   3.435  10.606 -0.0890  0.1950  0.2045
  129DOPC   C1A 1541  21.576   3.012  10.918  0.1851 -0.0522 -0.0077
  129DOPC   D2A 1542  21.424   3.026  11.430 -0.2330  0.1409 -0.1076
  129DOPC   C3A 1543  21.445   2.842  11.822  0.1063  0.3256  0.2439
  129DOPC   C4A 1544  21.478   2.606  12.281  0.2477 -0.0345  0.0893
  129DOPC   C1B 1545  21.969   3.682  10.982 -0.4096  0.2011  0.0223
  129DOPC   D2B 1546  22.075   3.663  11.495  0.0009 -0.4025  0.3007
  129DOPC   C3B 1547  22.289   3.646  11.926 -0.4851  0.2674  0.0702
  129DOPC   C4B 1548  22.502   3.766  12.334 -0.0484 -0.1478  0.1826
  130DOPC   NC3 1549  15.360   0.323  12.386 -0.0062 -0.1054 -0.3652
  130DOPC   PO4 1550  15.529   0.099  12.727  0.0920  0.0580  0.0563
  130DOPC   GL1 1551  15.517   0.054  13.118  0.0948 -0.2170  0.0498
  130DOPC   GL2 1552  15.563  -0.260  13.119  0.3926 -0.0439 -0.0714
  130DOPC   C1A 1553  15.737   0.234  13.400  0.0436 -0.1045 -0.2366
  130DOPC   D2A 1554  16.110   0.224  13.747 -0.0681  0.2699  0.1662
  130DOPC   C3A 1555  16.487   0.107  14.033 -0.2062 -0.0738 -0.0270
  130DOPC   C4A 1556  16.819  -0.093  14.306 -0.1569 -0.1754  0.2403
  130DOPC   C1B 1557  16.001  -0.149  13.203 -0.0685 -0.0152 -0.0293
  130DOPC   D2B 1558  16.435   0.036  13.196 -0.1327 -0.0802  0.0451
  130DOPC   C3B 1559  16.837   0.340  13.028  0.1821  0.2910  0.0667
  130DOPC   C4B 1560  17.078   0.804  12.890 -0.0421  0.2678  0.1202
  131DOPC   NC3 1561   4.728   4.927  15.601 -0.0126  0.1552  0.2547
  131DOPC   PO4 1562   4.505   5.196  15.775 -0.0488  0.0706  0.1748
  131DOPC   GL1 1563   4.092   4.985  15.722 -0.2239  0.2907  0.1401
  131DOPC   GL2 1564   4.341   4.763  15.918 -0.1143  0.1728 -0.1442
  131DOPC   C1A 1565   3.805   4.946  16.084  0.3009  0.2179 -0.3622
  131DOPC   D2A 1566   3.768   4.965  16.597 -0.1227 -0.2660 -0.0053
  131DOPC   C3A 1567   3.826   5.101  17.053  0.2987 -0.1976  0.1315
  131DOPC   C4A 1568   3.757   5.278  17.545  0.2391 -0.0303 -0.2175
  131DOPC   C1B 1569   4.175   4.631  16.282 -0.0147  0.2322 -0.3433
  131DOPC   D2B 1570   4.027   4.620  16.786  0.0846 -0.0555 -0.0314
  131DOPC   C3B 1571   4.221   4.825  17.095  0.1671 -0.1706 -0.0578
  131DOPC   C4B 1572   4.183   5.190  17.361  0.0850 -0.1469  0.3095
  132DOPC   NC3 1573   7.750   2.800  18.380  0.1508  0.0194  0.0425
  132DOPC   PO4 1574   7.376   2.911  18.526 -0.2075  0.2543  0.0933
  132DOPC   GL1 1575   7.128   2.613  18.620  0.2286 -0.2454  0.2196
  132DOPC   GL2 1576   6.861   2.678  18.515  0.1650  0.3481 -0.0697
  132DOPC   C1A 1577   7.060   2.480  19.026  0.2278 -0.1218  0.0503
  132DOPC   D2A 1578   7.115   2.483  19.454 -0.0952  0.0627  0.0312
  132DOPC   C3A 1579   6.740   2.630  19.704 -0.2716  0.3804  0.0359
  132DOPC   C4A 1580   6.483   2.805  20.070 -0.1083 -0.1416  0.3484
  132DOPC   C1B 1581   6.502   2.735  18.761  0.1403  0.0551 -0.2462
  132DOPC   D2B 1582   6.166   2.525  18.984  0.0671 -0.1046  0.0943
  132DOPC   C3B 1583   6.047   2.566  19.453 -0.1862 -0.0581 -0.1858
  132DOPC   C4B 1584   5.873   2.303  19.881  0.1404 -0.2165 -0.2812
  133DOPC   NC3 1585  19.994   3.455  10.167  0.0423  0.0468  0.1055
  133DOPC   PO4 1586  19.631   3.346  10.187 -0.3185  0.2117 -0.2154
  133DOPC   GL1 1587  19.443   3.609  10.512  0.0740  0.0075 -0.0206
  133DOPC   GL2 1588  19.689   3.663  10.633  0.0632 -0.1922 -0.2321
  133DOPC   C1A 1589  19.193   3.748  10.886 -0.1001 -0.2017 -0.2153
  133DOPC   D2A 1590  19.330   3.850  11.364  0.2230 -0.0086 -0.0207
  133DOPC   C3A 1591  18.986   3.984  11.673 -0.1277 -0.0761  0.2047
  133DOPC   C4A 1592  18.628   3.814  11.995  0.0259  0.1993 -0.0367
  133DOPC   C1B 1593  19.776   3.826  11.043  0.1660  0.0977 -0.0448
  133DOPC   D2B 1594  19.804   4.042  11.473 -0.0311  0.0255  0.3146
  133DOPC   C3B 1595  19.808   4.204  11.912 -0.4898 -0.1294 -0.0337
  133DOPC   C4B 1596  19.660   4.563  12.293 -0.1156  0.1400  0.1598
  134DOPC   NC3 1597  12.509   4.507  15.407 -0.1555 -0.3058 -0.0930
  134DOPC   PO4 1598  12.793   4.605  15.084  0.0408 -0.2180  0.1683
  134DOPC   GL1 1599  13.065   4.469  15.285 -0.1407  0.1020 -0.0373
  134DOPC   GL2 1600  12.955   4.431  15.541  0.0963  0.3923  0.2364
  134DOPC   C1A 1601  13.460   4.572  15.155 -0.2464  0.2502  0.2140
  134DOPC   D2A 1602  13.899   4.779  14.976 -0.0789 -0.2271 -0.1761
  134DOPC   C3A 1603  14.081   5.135  15.247 -0.2371  0.0515 -0.2357
  134DOPC   C4A 1604  14.212   5.350  15.680  0.1499  0.0324  0.1628
  134DOPC   C1B 1605  13.260   4.455  15.723  0.1616  0.0217 -0.1426
  134DOPC   D2B 1606  13.599   4.559  16.035  0.2411 -0.0552  0.1655
  134DOPC   C3B 1607  13.504   4.760  16.459  0.1280  0.4363  0.0217
  134DOPC   C4B 1608  13.420   5.233  16.410  0.2076 -0.1461  0.3348
  135DOPC   NC3 1609  12.685   0.961  16.552 -0.1283 -0.3426  0.1485
  135DOPC   PO4 1610  12.648   1.177  16.204  0.1621  0.1912 -0.2980
  135DOPC   GL1 1611  12.995   1.239  16.366 -0.0655  0.2959  0.0474
  135DOPC   GL2 1612  13.091   1.444  16.090  0.0420 -0.3374 -0.3981
  135DOPC   C1A 1613  13.292   1.475  16.601  0.1417  0.1527 -0.5432
  135DOPC   D2A 1614  13.619   1.750  16.894 -0.5192  0.3598  0.0736
  135DOPC   C3A 1615  13.782   1.880  17.299  0.0319 -0.0875  0.0557
  135DOPC   C4A 1616  13.771   2.168  17.703 -0.1402 -0.0325  0.1722
  135DOPC   C1B 1617  13.480   1.749  16.151 -0.0955 -0.1728  0.0442
  135DOPC   D2B 1618  13.852   1.869  16.462 -0.2172  0.1070 -0.1274
  135DOPC   C3B 1619  14.247   2.118  16.415  0.2310  0.1046 -0.2383
  135DOPC   C4B 1620  14.677   2.294  16.410  0.1770  0.0547  0.2896
  136DOPC   NC3 1621  22.662   6.146  10.295 -0.0172  0.0027 -0.1187
  136DOPC   PO4 1622  22.704   6.515  10.336 -0.1181 -0.1301  0.2408
  136DOPC   GL1 1623  22.892   6.695  10.696  0.3825 -0.0241  0.3752
  136DOPC   GL2 1624  22.676   6.818  10.831 -0.0027 -0.0055  0.1632
  136DOPC   C1A 1625  22.917   6.457  11.048  0.1616 -0.0588  0.0551
  136DOPC   D2A 1626  22.953   5.991  11.155 -0.1841 -0.1919 -0.1675
  136DOPC   C3A 1627  22.765   5.767  11.581 -0.0880 -0.1262  0.0254
  136DOPC   C4A 1628  22.878   5.778  12.010 -0.2822  0.1199  0.0643
  136DOPC   C1B 1629  22.667   6.845  11.280  0.1324 -0.1604  0.0418
  136DOPC   D2B 1630  22.656   6.673  11.786 -0.0489  0.0139  0.3349
  136DOPC   C3B 1631  22.896   6.264  11.678 -0.0101 -0.0905  0.1529
  136DOPC   C4B 1632  23.241   5.947  11.643 -0.2280  0.4013  0.0376
  137DOPC   NC3 1633   1.844   7.144  12.410 -0.1377  0.2447  0.0200
  137DOPC   PO4 1634   1.685   6.825  12.530  0.0243 -0.1347  0.1395
  137DOPC   GL1 1635   1.488   6.886  12.850  0.0485 -0.0137  0.1304
  137DOPC   GL2 1636   1.467   6.612  12.948  0.2093  0.1040 -0.1116
  137DOPC   C1A 1637   1.036   6.889  12.996  0.0421 -0.0374  0.0903
  137DOPC   D2A 1638   0.645   7.023  13.301  0.0444 -0.2148 -0.0324
  137DOPC   C3A 1639   0.519   6.896  13.725  0.0455 -0.1227  0.0192
  137DOPC   C4A 1640   0.157   6.711  13.956 -0.1230  0.0528  0.0283
  137DOPC   C1B 1641   1.369   6.782  13.386 -0.0686  0.1898 -0.0026
  137DOPC   D2B 1642   0.999   6.902  13.707  0.1889  0.0381  0.0824
  137DOPC   C3B 1643   0.778   6.775  14.135 -0.0338 -0.1894 -0.2319
  137DOPC   C4B 1644   0.376   6.876  14.440  0.4238 -0.1143 -0.0859
  138DOPC   NC3 1645  15.143   0.301  12.926  0.3118  0.0168  0.0860
  138DOPC   PO4 1646  14.928   0.589  13.052 -0.1312 -0.0528  0.2783
  138DOPC   GL1 1647  15.114   0.872  13.309 -0.0685 -0.1958  0.2669
  138DOPC   GL2 1648  15.355   0.940  13.181 -0.0093  0.5110  0.1791
  138DOPC   C1A 1649  15.458   0.853  13.641  0.0980  0.2051  0.3597
  138DOPC   D2A 1650  15.764   1.173  13.799 -0.2978  0.0254 -0.0438
  138DOPC   C3A 1651  15.998   1.456  14.119 -0.0066  0.1707  0.3735
  138DOPC   C4A 1652  16.328   1.764  14.416 -0.2591  0.0380  0.1431
  138DOPC   C1B 1653  15.655   1.264  13.257 -0.2554  0.3763 -0.1024
  138DOPC   D2B 1654  16.089   1.518  13.501  0.2036 -0.1262  0.2431
  138DOPC   C3B 1655  16.444   1.478  13.791  0.3892 -0.1208 -0.1122
  138DOPC   C4B 1656  16.983   1.569  13.887  0.0416  0.0749  0.0922
  139DOPC   NC3 1657   5.569   3.968  16.807  0.5303 -0.1028  0.1781
  139DOPC   PO4 1658   5.193   4.132  16.695 -0.0092  0.1162  0.0558
  139DOPC   GL1 1659   4.774   4.083  16.765  0.1990  0.2062 -0.2496
  139DOPC   GL2 1660   4.702   4.405  16.826  0.2147 -0.0588  0.0102
  139DOPC   C1A 1661   4.725   3.706  16.978  0.1166 -0.1679 -0.0429
  139DOPC   D2A 1662   4.783   3.344  17.290  0.2286  0.1044  0.2053
  139DOPC   C3A 1663   4.485   3.093  17.581  0.3034 -0.0433  0.0567
  139DOPC   C4A 1664   4.219   2.920  17.965 -0.2077  0.0307 -0.0323
  139DOPC   C1B 1665   4.416   4.337  17.069 -0.1069 -0.1863 -0.2167
  139DOPC   D2B 1666   4.191   4.340  17.491  0.1414  0.1275  0.0295
  139DOPC   C3B 1667   3.745   4.368  17.702  0.2229 -0.0814  0.1439
  139DOPC   C4B 1668   3.414   4.594  17.907  0.1370  0.3547 -0.1897
  140DOPC   NC3 1669  11.092   4.272  17.409  0.0748  0.0308  0.0796
  140DOPC   PO4 1670  11.441   4.080  17.470  0.0022 -0.0569  0.0314
  140DOPC   GL1 1671  11.818   4.371  17.587  0.2409 -0.2381 -0.1649
  140DOPC   GL2 1672  11.774   4.199  17.865 -0.0989  0.0034 -0.0546
  140DOPC   C1A 1673  12.074   4.760  17.644 -0.1237 -0.2852 -0.1871
  140DOPC   D2A 1674  12.420   5.057  17.866  0.3796  0.1825 -0.2053
  140DOPC   C3A 1675  12.807   5.013  17.919 -0.0852  0.2409 -0.0079
  140DOPC   C4A 1676  13.215   4.715  18.044  0.1119  0.0682  0.1891
  140DOPC   C1B 1677  11.806   4.287  18.367  0.0253  0.2342  0.2400
  140DOPC   D2B 1678  12.090   4.290  18.792  0.0730 -0.1171  0.0033
  140DOPC   C3B 1679  12.476   4.275  18.954 -0.1249 -0.0368  0.1480
  140DOPC   C4B 1680  12.936   4.166  19.074 -0.3340 -0.1899  0.5023
  141DOPC   NC3 1681  12.767   2.462  15.213 -0.0144 -0.1534 -0.0201
  141DOPC   PO4 1682  12.743   2.836  15.262 -0.2540  0.3216  0.1371
  141DOPC   GL1 1683  13.118   2.679  15.538  0.2159 -0.2195  0.1119
  141DOPC   GL2 1684  12.843   2.647  15.669 -0.1920 -0.0614 -0.1236
  141DOPC   C1A 1685  13.446   2.801  15.783 -0.0906 -0.1767  0.3430
  141DOPC   D2A 1686  13.859   2.718  15.988  0.0958  0.1077 -0.2091
  141DOPC   C3A 1687  14.271   2.506  15.935 -0.2892 -0.0800 -0.1128
  141DOPC   C4A 1688  14.765   2.490  15.868 -0.0996 -0.0958 -0.0354
  141DOPC   C1B 1689  12.816   2.959  16.003  0.0320  0.1525  0.0795
  141DOPC   D2B 1690  12.926   3.288  16.352  0.0198 -0.4343  0.1467
  141DOPC   C3B 1691  13.051   2.970  16.633 -0.0797  0.3362  0.2211
  141DOPC   C4B 1692  13.332   2.618  16.772  0.3472  0.1299  0.0412
  142DOPC   NC3 1693   3.606   7.331  14.496 -0.0989 -0.1043 -0.0896
  142DOPC   PO4 1694   3.516   6.958  14.492 -0.1996 -0.0688 -0.0806
  142DOPC   GL1 1695   3.127   6.736  14.657 -0.0384 -0.4741  0.0379
  142DOPC   GL2 1696   3.060   7.013  14.618 -0.2312  0.0906 -0.0705
  142DOPC   C1A 1697   2.925   6.831  15.041  0.0675 -0.0544  0.2129
  142DOPC   D2A 1698   2.664   7.197  15.369 -0.0620 -0.0632 -0.0556
  142DOPC   C3A 1699   2.352   7.461  15.453  0.1008  0.0849  0.2362
  142DOPC   C4A 1700   1.813   7.542  15.339 -0.0723 -0.0099 -0.0532
  142DOPC   C1B 1701   2.953   7.327  14.843 -0.1359 -0.0898 -0.1419
  142DOPC   D2B 1702   2.878   7.659  15.179  0.0862  0.0217  0.1419
  142DOPC   C3B 1703   2.582   7.925  15.414  0.4010 -0.0354 -0.0016
  142DOPC   C4B 1704   2.301   8.091  15.815 -0.0317  0.3089 -0.2443
  143DOPC   NC3 1705  20.265   1.327  10.229 -0.1312  0.0015  0.0801
  143DOPC   PO4 1706  20.146   1.702  10.197 -0.0352 -0.2528  0.0051
  143DOPC   GL1 1707  20.200   1.827  10.582 -0.0223 -0.1400  0.2219
  143DOPC   GL2 1708  20.467   1.646  10.486  0.0167  0.3756  0.1201
  143DOPC   C1A 1709  20.184   2.097  10.950  0.0158 -0.1810  0.1552
  143DOPC   D2A 1710  20.189   2.325  11.373  0.0014 -0.1036 -0.0722
  143DOPC   C3A 1711  20.169   2.549  11.821 -0.0376  0.1719 -0.1094
  143DOPC   C4A 1712  19.998   2.638  12.329  0.0668 -0.0118 -0.0376
  143DOPC   C1B 1713  20.565   1.591  10.865  0.0218 -0.0956 -0.0146
  143DOPC   D2B 1714  20.324   1.712  11.365 -0.1838  0.1574 -0.2714
  143DOPC   C3B 1715  20.439   2.050  11.660  0.0316  0.1127  0.4742
  143DOPC   C4B 1716  20.609   2.343  11.992  0.0541 -0.0831 -0.1035
  144DOPC   NC3 1717  10.800   6.172  18.553 -0.1938  0.0227  0.2001
  144DOPC   PO4 1718  11.117   5.994  18.369  0.2190 -0.2689 -0.3163
  144DOPC   GL1 1719  11.452   6.095  18.446 -0.0982  0.1667 -0.0989
  144DOPC   GL2 1720  11.613   6.277  18.249  0.0358  0.0826  0.1655
  144DOPC   C1A 1721  11.697   6.137  18.804  0.0840  0.1250  0.1363
  144DOPC   D2A 1722  12.024   6.245  19.140 -0.0783  0.2859 -0.2105
  144DOPC   C3A 1723  12.115   6.598  19.426 -0.2734  0.3563 -0.0807
  144DOPC   C4A 1724  12.257   6.827  19.910  0.2429  0.1404 -0.1686
  144DOPC   C1B 1725  12.080   6.273  18.347  0.0888  0.2071 -0.1287
  144DOPC   D2B 1726  12.446   6.060  18.676 -0.1131  0.1148 -0.2448
  144DOPC   C3B 1727  12.708   6.059  19.141 -0.0700 -0.2821 -0.1670
  144DOPC   C4B 1728  12.979   5.947  19.467 -0.1472 -0.1320  0.2796
  145DOPC   NC3 1729   8.610   7.119  18.753 -0.0291  0.1996 -0.1284
  145DOPC   PO4 1730   8.912   7.081  18.952  0.0918  0.2581 -0.4126
  145DOPC   GL1 1731   8.939   7.267  19.344 -0.1612 -0.0739 -0.3644
  145DOPC   GL2 1732   8.788   7.097  19.455  0.0081 -0.0091  0.0338
  145DOPC   C1A 1733   8.840   7.464  19.798  0.2056 -0.2282 -0.0580
  145DOPC   D2A 1734   8.814   7.832  20.194 -0.0920  0.1775 -0.0456
  145DOPC   C3A 1735   9.102   8.143  20.372 -0.0189 -0.0025 -0.2138
  145DOPC   C4A 1736   9.236   8.584  20.421 -0.2646 -0.0808  0.1416
  145DOPC   C1B 1737   8.655   6.932  19.800 -0.1010  0.1722  0.0540
  145DOPC   D2B 1738   8.451   6.635  20.162 -0.1949 -0.1272  0.1572
  145DOPC   C3B 1739   8.243   6.850  20.513  0.1137  0.0223 -0.0375
  145DOPC   C4B 1740   8.016   6.983  20.905 -0.0406 -0.3218 -0.0608
  146DOPC   NC3 1741   4.450   5.203  14.760 -0.3680 -0.1999 -0.0122
  146DOPC   PO4 1742   4.103   5.248  14.519  0.2520  0.2107  0.1555
  146DOPC   GL1 1743   3.736   4.985  14.640  0.1207 -0.2360 -0.2483
  146DOPC   GL2 1744   3.637   5.280  14.703 -0.0961  0.2025 -0.0075
  146DOPC   C1A 1745   3.554   4.785  15.061 -0.0413  0.0749  0.0463
  146DOPC   D2A 1746   3.142   4.560  15.315 -0.1893  0.0183  0.0207
  146DOPC   C3A 1747   3.034   4.562  15.765 -0.3267 -0.0186  0.1160
  146DOPC   C4A 1748   2.808   4.457  16.172  0.1329 -0.1693 -0.1191
  146DOPC   C1B 1749   3.326   5.548  14.685 -0.2072 -0.3169  0.2061
  146DOPC   D2B 1750   3.003   5.886  14.550 -0.2229  0.0043  0.0482
  146DOPC   C3B 1751   2.531   5.958  14.582  0.0353  0.1738  0.1426
  146DOPC   C4B 1752   2.045   5.993  14.594 -0.2262 -0.0739  0.0868
  147DOPC   NC3 1753   8.037   3.551  19.009  0.2291  0.0123 -0.0135
  147DOPC   PO4 1754   7.665   3.451  18.934  0.1916 -0.0946 -0.1613
  147DOPC   GL1 1755   7.358   3.420  19.282  0.1050  0.1496 -0.0636
  147DOPC   GL2 1756   7.178   3.277  19.076  0.0959 -0.0273  0.0399
  147DOPC   C1A 1757   7.581   3.175  19.528  0.2185  0.1033 -0.0240
  147DOPC   D2A 1758   7.969   2.947  19.828 -0.1553  0.0523 -0.2275
  147DOPC   C3A 1759   8.224   3.145  20.208  0.2385  0.3019 -0.1534
  147DOPC   C4A 1760   8.396   3.382  20.584  0.0522  0.0900 -0.0128
  147DOPC   C1B 1761   6.783   3.359  19.332  0.4154  0.1332  0.0188
  147DOPC   D2B 1762   6.286   3.408  19.520  0.1740  0.2974  0.3860
  147DOPC   C3B 1763   5.865   3.247  19.553 -0.1230 -0.0965 -0.1538
  147DOPC   C4B 1764   5.633   2.818  19.611  0.1441  0.0097  0.3745
  148DOPC   NC3 1765   6.694   4.381  18.409  0.0265 -0.0524  0.4301
  148DOPC   PO4 1766   6.854   3.999  18.530 -0.0876  0.0667 -0.0716
  148DOPC   GL1 1767   6.637   4.124  18.821 -0.1585 -0.2298  0.0259
  148DOPC   GL2 1768   6.354   4.154  18.732 -0.0613 -0.0509 -0.0015
  148DOPC   C1A 1769   6.667   4.229  19.248  0.2349  0.1960  0.1152
  148DOPC   D2A 1770   6.701   4.606  19.602  0.1185  0.0097 -0.0174
  148DOPC   C3A 1771   6.921   5.006  19.621  0.0395  0.1585 -0.0812
  148DOPC   C4A 1772   7.065   5.270  19.260  0.0541 -0.0372  0.0230
  148DOPC   C1B 1773   6.140   4.066  19.128  0.1389  0.0353 -0.2496
  148DOPC   D2B 1774   5.819   3.900  19.479 -0.2086  0.0503  0.3930
  148DOPC   C3B 1775   5.754   3.613  19.817 -0.1068  0.0774  0.3700
  148DOPC   C4B 1776   5.865   3.501  20.281 -0.0587  0.0768 -0.0394
  149DOPC   NC3 1777  16.112   2.273  12.233  0.0164  0.1360 -0.0398
  149DOPC   PO4 1778  16.113   1.870  12.288  0.5028 -0.0503  0.1965
  149DOPC   GL1 1779  16.438   2.074  12.546 -0.3757 -0.1797 -0.0156
  149DOPC   GL2 1780  16.655   1.959  12.302 -0.0859  0.1085 -0.0837
  149DOPC   C1A 1781  16.528   2.024  13.026 -0.0692 -0.1123  0.0770
  149DOPC   D2A 1782  16.537   1.882  13.481  0.0612  0.1844 -0.0189
  149DOPC   C3A 1783  16.945   1.970  13.598  0.0594  0.2048 -0.0509
  149DOPC   C4A 1784  17.401   1.994  13.296  0.1031  0.0540  0.1105
  149DOPC   C1B 1785  17.042   2.173  12.183  0.1610  0.0945  0.0433
  149DOPC   D2B 1786  17.535   2.183  12.100  0.0857  0.0062  0.0035
  149DOPC   C3B 1787  17.995   2.066  12.154 -0.0784  0.1605 -0.0257
  149DOPC   C4B 1788  18.339   1.845  11.849 -0.1247  0.0127 -0.1170
  150DOPC   NC3 1789   5.845   3.595  17.359  0.3375  0.1964  0.0106
  150DOPC   PO4 1790   5.819   3.421  17.703  0.0122  0.1956 -0.1312
  150DOPC   GL1 1791   5.463   3.583  17.900 -0.0714  0.1413 -0.0506
  150DOPC   GL2 1792   5.454   3.318  17.938 -0.0379 -0.1363 -0.1680
  150DOPC   C1A 1793   5.090   3.651  18.076  0.2809  0.1919 -0.1440
  150DOPC   D2A 1794   4.690   3.816  18.366 -0.1028  0.1083 -0.2733
  150DOPC   C3A 1795   4.647   3.813  18.847 -0.3235  0.1337  0.1378
  150DOPC   C4A 1796   4.481   3.481  19.210 -0.3679  0.0047 -0.0887
  150DOPC   C1B 1797   5.172   3.162  18.227  0.0802 -0.1001  0.0326
  150DOPC   D2B 1798   4.885   2.977  18.584 -0.0693 -0.1156 -0.2253
  150DOPC   C3B 1799   5.037   2.657  18.911 -0.2916  0.0937  0.1392
  150DOPC   C4B 1800   5.137   2.621  19.409 -0.0863 -0.0807 -0.2346
  151DOPC   NC3 1801   2.749   1.305  12.919 -0.2549 -0.0518 -0.0969
  151DOPC   PO4 1802   2.674   1.509  13.243 -0.0751 -0.3111  0.2564
  151DOPC   GL1 1803   2.310   1.418  13.464  0.1687  0.0680  0.2884
  151DOPC   GL2 1804   2.230   1.723  13.434 -0.0056 -0.0640  0.1194
  151DOPC   C1A 1805   2.247   1.290  13.881 -0.1584  0.0077 -0.4184
  151DOPC   D2A 1806   2.109   1.092  14.319  0.1127 -0.1816 -0.0740
  151DOPC   C3A 1807   1.703   1.359  14.454 -0.3295 -0.3037 -0.1948
  151DOPC   C4A 1808   1.449   1.718  14.763 -0.3343 -0.2176  0.0757
  151DOPC   C1B 1809   1.985   1.807  13.828  0.0265  0.0474 -0.1484
  151DOPC   D2B 1810   1.623   1.810  14.156 -0.2490 -0.0649  0.0199
  151DOPC   C3B 1811   1.333   1.455  14.146  0.0416 -0.1749  0.3993
  151DOPC   C4B 1812   1.007   1.106  14.150 -0.1076 -0.2259 -0.0035
  152DOPC   NC3 1813   5.201   3.169  16.725 -0.2688 -0.0814  0.1240
  152DOPC   PO4 1814   5.431   3.411  17.003 -0.0558 -0.2887 -0.0694
  152DOPC   GL1 1815   5.395   3.526  17.433  0.2478 -0.0101  0.1753
  152DOPC   GL2 1816   5.484   3.285  17.440 -0.1292  0.4224 -0.0020
  152DOPC   C1A 1817   4.984   3.590  17.635 -0.2052  0.2805 -0.0033
  152DOPC   D2A 1818   4.577   3.539  17.850 -0.0853  0.3083 -0.0281
  152DOPC   C3A 1819   4.668   3.308  18.251  0.2961 -0.5163  0.2719
  152DOPC   C4A 1820   4.530   3.284  18.724 -0.2607 -0.1408  0.0047
  152DOPC   C1B 1821   5.096   3.096  17.639  0.1291 -0.1691 -0.0871
  152DOPC   D2B 1822   4.782   2.904  17.970 -0.0028  0.0402  0.0654
  152DOPC   C3B 1823   4.586   2.732  18.319  0.1012 -0.3360 -0.0406
  152DOPC   C4B 1824   4.441   2.729  18.782 -0.0343  0.1302 -0.1587
  153DOPC   NC3 1825   3.649   7.345  13.685  0.0568 -0.1237  0.0625
  153DOPC   PO4 1826   3.678   7.527  14.042  0.3149  0.0833  0.0621
  153DOPC   GL1 1827   3.313   7.637  13.999 -0.2587  0.0339  0.1470
  153DOPC   GL2 1828   3.241   7.911  14.053  0.1613 -0.1966 -0.0054
  153DOPC   C1A 1829   3.045   7.453  14.340 -0.1696  0.0025  0.0183
  153DOPC   D2A 1830   2.649   7.201  14.456  0.2678 -0.1391 -0.1840
  153DOPC   C3A 1831   2.241   7.142  14.549 -0.2150 -0.1185 -0.2084
  153DOPC   C4A 1832   1.754   6.998  14.657 -0.2014 -0.0089 -0.1547
  153DOPC   C1B 1833   3.144   7.985  14.468 -0.1409 -0.1632  0.3887
  153DOPC   D2B 1834   2.757   7.806  14.687 -0.1800 -0.1937  0.0905
  153DOPC   C3B 1835   2.477   7.496  14.968  0.1864 -0.1135  0.0059
  153DOPC   C4B 1836   2.064   7.251  14.987 -0.1178  0.1203 -0.1363
  154DOPC   NC3 1837   8.727   3.223  18.628  0.0540  0.1071  0.1450
  154DOPC   PO4 1838   8.559   3.342  18.966 -0.2910 -0.0758 -0.0826
  154DOPC   GL1 1839   8.348   3.165  19.243 -0.2685 -0.1024 -0.2819
  154DOPC   GL2 1840   8.113   3.099  19.026  0.0828 -0.2223 -0.0722
  154DOPC   C1A 1841   8.553   2.840  19.449  0.0322  0.0951  0.0379
  154DOPC   D2A 1842   8.565   2.351  19.253  0.2289  0.0822 -0.0885
  154DOPC   C3A 1843   8.668   2.062  19.664 -0.0318  0.0910  0.0720
  154DOPC   C4A 1844   8.902   1.950  20.104  0.0844  0.0110  0.0271
  154DOPC   C1B 1845   7.838   2.873  19.290 -0.1790  0.0173 -0.1014
  154DOPC   D2B 1846   7.600   2.654  19.663  0.1654  0.0878 -0.0686
  154DOPC   C3B 1847   7.766   2.396  20.031 -0.0988 -0.5196  0.0487
  154DOPC   C4B 1848   7.962   2.131  20.424 -0.0109 -0.0233 -0.1046
  155DOPC   NC3 1849   7.920   5.842  18.376  0.2989  0.0740  0.0537
  155DOPC   PO4 1850   8.126   5.560  18.577  0.0530 -0.5978 -0.2111
  155DOPC   GL1 1851   8.076   5.511  19.040 -0.0307 -0.0911  0.1392
  155DOPC   GL2 1852   8.327   5.591  18.953 -0.1013 -0.2694 -0.0923
  155DOPC   C1A 1853   7.727   5.569  19.227  0.3254 -0.2075  0.0835
  155DOPC   D2A 1854   7.364   5.750  19.506  0.2979  0.1446  0.1050
  155DOPC   C3A 1855   7.277   5.741  19.955 -0.4295  0.0454 -0.0759
  155DOPC   C4A 1856   7.340   5.566  20.391 -0.0737  0.1064  0.1058
  155DOPC   C1B 1857   8.543   5.499  19.294  0.2778 -0.1307  0.2108
  155DOPC   D2B 1858   8.398   5.525  19.704 -0.2568 -0.0211 -0.1584
  155DOPC   C3B 1859   8.290   5.614  20.160 -0.0746  0.0223 -0.0050
  155DOPC   C4B 1860   8.256   5.615  20.659 -0.1650  0.0927  0.0410
  156DOPC   NC3 1861   7.565   7.820  18.358 -0.1186 -0.0384 -0.1044
  156DOPC   PO4 1862   7.283   8.040  18.229 -0.2298  0.0927 -0.0006
  156DOPC   GL1 1863   7.086   8.243  18.524 -0.0820  0.0136 -0.0797
  156DOPC   GL2 1864   7.366   8.281  18.693  0.1951 -0.2418 -0.1724
  156DOPC   C1A 1865   6.824   8.212  18.897 -0.1994  0.1856 -0.2325
  156DOPC   D2A 1866   6.719   8.332  19.330  0.0126  0.1788 -0.2869
  156DOPC   C3A 1867   7.064   8.608  19.561  0.0367  0.4337 -0.0623
  156DOPC   C4A 1868   7.086   9.005  19.833 -0.1366 -0.0396 -0.0402
  156DOPC   C1B 1869   7.295   8.296  19.164  0.1447 -0.0861 -0.3151
  156DOPC   D2B 1870   7.575   8.181  19.581 -0.0662  0.3390  0.0763
  156DOPC   C3B 1871   7.483   7.710  19.679  0.1884 -0.0367 -0.2570
  156DOPC   C4B 1872   7.146   7.460  19.478  0.0943 -0.0077  0.1026
  157DOPC   NC3 1873  14.634   5.104  13.655  0.0172 -0.0284  0.1130
  157DOPC   PO4 1874  14.478   5.461  13.550 -0.1146  0.3449  0.0611
  157DOPC   GL1 1875  14.679   5.524  13.875 -0.2316 -0.4612 -0.0413
  157DOPC   GL2 1876  14.366   5.498  13.967  0.3110  0.2141 -0.0512
  157DOPC   C1A 1877  14.942   5.348  14.122 -0.1481  0.0765  0.2097
  157DOPC   D2A 1878  15.287   4.958  14.070  0.0474 -0.2217  0.1016
  157DOPC   C3A 1879  15.588   4.891  13.782 -0.0200  0.0801 -0.1513
  157DOPC   C4A 1880  16.037   4.866  13.657  0.0012  0.2008  0.0472
  157DOPC   C1B 1881  14.497   5.298  14.251  0.1167  0.0110 -0.1026
  157DOPC   D2B 1882  14.791   5.128  14.627  0.3481 -0.2630 -0.1027
  157DOPC   C3B 1883  14.887   5.323  15.032 -0.1939  0.0494  0.2081
  157DOPC   C4B 1884  14.768   5.760  15.181 -0.0767  0.2516  0.1470
  158DOPC   NC3 1885  11.444   2.236  17.061  0.2639 -0.5158  0.1648
  158DOPC   PO4 1886  11.363   2.417  17.472 -0.2934  0.2065 -0.0864
  158DOPC   GL1 1887  11.638   2.672  17.643  0.1450 -0.0258 -0.2266
  158DOPC   GL2 1888  11.550   2.576  17.925  0.1724  0.2139  0.2800
  158DOPC   C1A 1889  11.988   2.950  17.786 -0.0576 -0.0225 -0.1164
  158DOPC   D2A 1890  12.315   3.232  17.997 -0.0377 -0.3341 -0.0550
  158DOPC   C3A 1891  12.780   3.311  18.007  0.2117  0.0794 -0.1124
  158DOPC   C4A 1892  13.255   3.379  18.039  0.0627  0.2620  0.1011
  158DOPC   C1B 1893  11.963   2.498  18.123  0.2679 -0.0870 -0.1175
  158DOPC   D2B 1894  12.431   2.652  18.229  0.1662 -0.1636 -0.0771
  158DOPC   C3B 1895  12.527   3.015  18.403  0.0434 -0.0517 -0.0706
  158DOPC   C4B 1896  12.573   3.247  18.853  0.0630 -0.2598 -0.0306
  159DOPC   NC3 1897  14.638   3.277  13.623 -0.0892  0.1015 -0.3889
  159DOPC   PO4 1898  14.300   3.195  13.805  0.0144 -0.2940  0.1204
  159DOPC   GL1 1899  14.381   3.253  14.312  0.0067  0.1629 -0.2400
  159DOPC   GL2 1900  14.656   3.332  14.191 -0.2418  0.0219 -0.0088
  159DOPC   C1A 1901  14.342   2.962  14.667  0.0070 -0.2401 -0.2072
  159DOPC   D2A 1902  14.113   2.603  14.886  0.1406 -0.1213 -0.2815
  159DOPC   C3A 1903  14.392   2.244  15.039 -0.0183 -0.0118  0.1721
  159DOPC   C4A 1904  14.886   2.179  15.044 -0.1896  0.1363  0.1602
  159DOPC   C1B 1905  14.754   2.892  14.323 -0.0972  0.0654  0.1650
  159DOPC   D2B 1906  14.965   2.518  14.602 -0.0440  0.3567 -0.4035
  159DOPC   C3B 1907  15.362   2.753  14.754  0.2988  0.2195 -0.1247
  159DOPC   C4B 1908  15.718   3.067  14.899  0.2503  0.3252  0.0751
  160DOPC   NC3 1909  19.776   0.576  10.377 -0.0606 -0.1047 -0.2250
  160DOPC   PO4 1910  19.454   0.403  10.433 -0.1283 -0.0744 -0.0307
  160DOPC   GL1 1911  19.516   0.436  10.859  0.1482 -0.1312  0.1988
  160DOPC   GL2 1912  19.244   0.513  11.008 -0.0260  0.2725 -0.0593
  160DOPC   C1A 1913  19.703   0.686  11.140 -0.3362  0.0441  0.1485
  160DOPC   D2A 1914  20.058   0.818  11.549  0.2383 -0.0245 -0.0323
  160DOPC   C3A 1915  19.983   0.957  12.007 -0.2885 -0.0704  0.1687
  160DOPC   C4A 1916  20.118   0.968  12.471 -0.0593  0.2674  0.0863
  160DOPC   C1B 1917  19.275   0.850  11.221  0.0784 -0.3081 -0.0252
  160DOPC   D2B 1918  19.575   1.032  11.568  0.0472 -0.0469 -0.3411
  160DOPC   C3B 1919  19.425   1.244  11.974 -0.0348 -0.1006 -0.0292
  160DOPC   C4B 1920  19.485   1.502  12.370  0.0065  0.1425  0.1303
  161DOPC   NC3 1921  24.170   1.406  10.669  0.0801  0.1358 -0.1882
  161DOPC   PO4 1922  23.802   1.515  10.654 -0.2478 -0.1436  0.0814
  161DOPC   GL1 1923  23.717   1.638  11.128 -0.5691 -0.2302 -0.2928
  161DOPC   GL2 1924  23.455   1.528  11.057  0.1062 -0.2293 -0.0363
  161DOPC   C1A 1925  23.811   1.519  11.510  0.2359 -0.1697 -0.2953
  161DOPC   D2A 1926  23.799   1.293  12.005 -0.0311 -0.1884  0.0913
  161DOPC   C3A 1927  23.837   0.983  12.312  0.0146  0.2241 -0.0427
  161DOPC   C4A 1928  23.659   0.653  12.630 -0.0302 -0.0020 -0.0058
  161DOPC   C1B 1929  23.406   1.246  11.387 -0.0161 -0.4794  0.0303
  161DOPC   D2B 1930  23.391   1.005  11.895 -0.2080 -0.0310  0.3301
  161DOPC   C3B 1931  23.188   1.195  12.278 -0.0935 -0.1031 -0.0920
  161DOPC   C4B 1932  23.057   1.045  12.715  0.0755  0.1178  0.0149
  162DOPC   NC3 1933  14.171   0.831  13.885 -0.0329 -0.1311  0.3304
  162DOPC   PO4 1934  13.885   0.613  13.961  0.0093  0.0117 -0.1774
  162DOPC   GL1 1935  14.017   0.687  14.337 -0.1630  0.1982 -0.0661
  162DOPC   GL2 1936  14.370   0.712  14.278 -0.1164 -0.1544  0.1594
  162DOPC   C1A 1937  13.752   0.938  14.624 -0.1720  0.3125 -0.1622
  162DOPC   D2A 1938  13.727   1.299  14.999  0.1495  0.2680 -0.0356
  162DOPC   C3A 1939  14.184   1.347  15.082 -0.1508  0.0405  0.1593
  162DOPC   C4A 1940  14.609   1.570  14.967 -0.4076  0.1735 -0.1240
  162DOPC   C1B 1941  14.463   1.004  14.595 -0.1479 -0.2351  0.2537
  162DOPC   D2B 1942  14.762   1.104  14.950  0.2259  0.2669 -0.1375
  162DOPC   C3B 1943  14.838   1.225  15.367  0.1977 -0.1029  0.0883
  162DOPC   C4B 1944  14.973   1.342  15.802  0.2809 -0.0806 -0.0558
  163DOPC   NC3 1945  17.964   3.651  10.841 -0.0045 -0.0568  0.3827
  163DOPC   PO4 1946  17.758   3.365  10.646 -0.0167 -0.2388  0.3224
  163DOPC   GL1 1947  17.709   3.121  11.058  0.1343  0.0652 -0.1355
  163DOPC   GL2 1948  17.984   3.144  11.120  0.2852  0.0984  0.1226
  163DOPC   C1A 1949  17.492   3.031  11.482  0.1394  0.2689 -0.3925
  163DOPC   D2A 1950  17.413   2.734  11.891 -0.1023 -0.0943 -0.0415
  163DOPC   C3A 1951  17.305   2.612  12.275 -0.1475  0.3058 -0.0532
  163DOPC   C4A 1952  17.184   2.431  12.718  0.1078 -0.4442 -0.0168
  163DOPC   C1B 1953  17.998   3.197  11.548 -0.2182  0.1488  0.0172
  163DOPC   D2B 1954  17.957   3.192  11.998 -0.0557 -0.0937 -0.1832
  163DOPC   C3B 1955  18.143   3.070  12.467  0.1228  0.1574  0.3241
  163DOPC   C4B 1956  18.279   3.088  12.923 -0.0780  0.3353 -0.4275
  164DOPC   NC3 1957   4.530   4.075  15.096  0.0427  0.0964 -0.1021
  164DOPC   PO4 1958   4.286   4.346  14.889  0.2463 -0.3687  0.1743
  164DOPC   GL1 1959   3.895   4.423  14.968  0.2458  0.2582 -0.1807
  164DOPC   GL2 1960   3.772   4.434  14.689 -0.1253  0.1252  0.2215
  164DOPC   C1A 1961   3.743   4.354  15.273  0.2915 -0.2403  0.0411
  164DOPC   D2A 1962   3.577   4.159  15.701  0.3513 -0.0965  0.3064
  164DOPC   C3A 1963   3.489   4.495  16.091 -0.1372  0.1277 -0.0011
  164DOPC   C4A 1964   3.251   4.900  16.337  0.0526  0.3532 -0.1993
  164DOPC   C1B 1965   3.366   4.288  14.890 -0.2241  0.0842  0.1365
  164DOPC   D2B 1966   2.886   4.248  15.046  0.1422  0.1328  0.1008
  164DOPC   C3B 1967   2.584   4.418  15.426  0.1983 -0.1540  0.1430
  164DOPC   C4B 1968   2.463   4.649  15.857  0.0812  0.1139 -0.1175
  165DOPC   NC3 1969  17.245   6.227  11.717  0.0670 -0.1627 -0.0025
  165DOPC   PO4 1970  17.337   5.848  11.807  0.0227 -0.1686 -0.2552
  165DOPC   GL1 1971  17.732   5.629  11.965 -0.0511  0.0302 -0.0946
  165DOPC   GL2 1972  17.557   5.397  11.954  0.2601 -0.1528  0.1016
  165DOPC   C1A 1973  17.986   5.530  12.342  0.0307 -0.2906 -0.1684
  165DOPC   D2A 1974  18.391   5.612  12.578 -0.1922 -0.0436  0.0696
  165DOPC   C3A 1975  18.844   5.542  12.652 -0.0111  0.0192  0.0453
  165DOPC   C4A 1976  19.334   5.411  12.632  0.2639 -0.5072 -0.2437
  165DOPC   C1B 1977  17.507   5.193  12.289  0.0340  0.0275 -0.1327
  165DOPC   D2B 1978  17.757   5.099  12.714 -0.0604 -0.4594 -0.0544
  165DOPC   C3B 1979  17.920   4.829  13.080 -0.3171 -0.0166 -0.0561
  165DOPC   C4B 1980  18.141   4.682  13.512  0.0903  0.1864  0.0883
  166DOPC   NC3 1981   6.369   3.476  17.970  0.0138  0.0739 -0.0281
  166DOPC   PO4 1982   6.604   3.619  18.256 -0.0720  0.0984 -0.1344
  166DOPC   GL1 1983   6.551   3.708  18.631  0.2097  0.3660 -0.1603
  166DOPC   GL2 1984   6.420   3.428  18.651 -0.0698  0.1306 -0.2012
  166DOPC   C1A 1985   6.515   3.760  19.060 -0.1132  0.2045  0.0684
  166DOPC   D2A 1986   6.517   3.896  19.564 -0.0400 -0.2260  0.1311
  166DOPC   C3A 1987   6.791   3.812  20.019  0.1425 -0.0932  0.3026
  166DOPC   C4A 1988   7.145   3.593  20.280  0.4892  0.0177  0.0582
  166DOPC   C1B 1989   6.415   3.147  18.988 -0.0189  0.1693  0.0821
  166DOPC   D2B 1990   6.652   2.803  19.233 -0.0538  0.2524 -0.1313
  166DOPC   C3B 1991   6.400   2.911  19.591  0.1502 -0.0849 -0.1564
  166DOPC   C4B 1992   6.013   2.827  19.915 -0.1214 -0.0295  0.2928
  167DOPC   NC3 1993  12.850   0.583  15.389 -0.1185  0.2547  0.1353
  167DOPC   PO4 1994  13.054   0.234  15.320  0.3752 -0.2727 -0.0208
  167DOPC   GL1 1995  13.259   0.384  15.647 -0.1827 -0.0442 -0.1197
  167DOPC   GL2 1996  13.388   0.608  15.471  0.1944 -0.2004  0.1702
  167DOPC   C1A 1997  13.612   0.286  15.854 -0.2085 -0.1777 -0.0683
  167DOPC   D2A 1998  14.093   0.140  15.792 -0.0251 -0.0938 -0.0200
  167DOPC   C3A 1999  14.545   0.339  15.781 -0.1513 -0.3024  0.0029
  167DOPC   C4A 2000  14.997   0.359  15.864  0.1552 -0.0111  0.1741
  167DOPC   C1B 2001  13.702   0.795  15.769  0.1805  0.3196  0.0015
  167DOPC   D2B 2002  14.015   1.030  16.045  0.0952  0.2884  0.1083
  167DOPC   C3B 2003  14.350   0.906  16.354 -0.3154 -0.1292 -0.1053
  167DOPC   C4B 2004  14.230   1.094  16.770 -0.1836  0.0530  0.1737
  168DOPC   NC3 2005   5.821   5.054  16.955  0.0228 -0.1752 -0.0963
  168DOPC   PO4 2006   5.575   4.948  16.731  0.0772  0.2490  0.1652
  168DOPC   GL1 2007   5.352   4.935  17.043  0.1646  0.2204  0.0382
  168DOPC   GL2 2008   5.190   5.124  17.007  0.0052 -0.1006  0.0966
  168DOPC   C1A 2009   4.967   4.662  17.203 -0.0992  0.2862  0.2455
  168DOPC   D2A 2010   4.549   4.771  17.469 -0.0472 -0.0902 -0.0500
  168DOPC   C3A 2011   4.132   4.836  17.687  0.2982 -0.0019 -0.1225
  168DOPC   C4A 2012   3.682   4.987  17.938 -0.0242  0.0872 -0.1479
  168DOPC   C1B 2013   4.908   5.110  17.383 -0.2310 -0.0383  0.2333
  168DOPC   D2B 2014   4.524   5.226  17.700  0.1414 -0.0265  0.2814
  168DOPC   C3B 2015   4.132   5.380  17.932 -0.3592 -0.1259  0.3547
  168DOPC   C4B 2016   3.760   5.553  18.105  0.1075 -0.2986  0.1856
  169DOPC   NC3 2017  13.813   5.877  14.262 -0.1063 -0.1117 -0.0632
  169DOPC   PO4 2018  13.925   5.537  14.102  0.3871  0.2465 -0.0880
  169DOPC   GL1 2019  14.165   5.549  14.500  0.0245  0.6356  0.0467
  169DOPC   GL2 2020  14.091   5.274  14.517  0.0701  0.2345 -0.0403
  169DOPC   C1A 2021  14.443   5.693  14.807  0.0919 -0.0716  0.2043
  169DOPC   D2A 2022  14.350   5.554  15.280  0.1027  0.1278 -0.3020
  169DOPC   C3A 2023  14.513   5.791  15.674 -0.2463  0.0855  0.0133
  169DOPC   C4A 2024  14.556   6.168  15.968  0.1837  0.1897  0.2954
  169DOPC   C1B 2025  14.332   5.107  14.829 -0.1751  0.1474  0.0809
  169DOPC   D2B 2026  14.453   4.756  15.177 -0.2666  0.1579  0.1773
  169DOPC   C3B 2027  14.632   5.098  15.518  0.1154 -0.1993 -0.2495
  169DOPC   C4B 2028  14.852   5.349  15.884 -0.1272 -0.0090 -0.1086
  170DOPC   NC3 2029  23.767   3.232  10.670 -0.0000  0.1868  0.2033
  170DOPC   PO4 2030  23.829   2.900  10.431 -0.1578 -0.0655 -0.1539
  170DOPC   GL1 2031  24.003   2.701  10.697 -0.0627  0.2405  0.0644
  170DOPC   GL2 2032  24.047   2.935  10.855  0.2488  0.1010 -0.0403
  170DOPC   C1A 2033  23.964   2.429  11.096  0.0680 -0.1167  0.3468
  170DOPC   D2A 2034  23.694   2.146  11.325 -0.1573  0.1190 -0.0575
  170DOPC   C3A 2035  23.770   2.031  11.805  0.3995 -0.0516  0.1136
  170DOPC   C4A 2036  23.883   2.282  12.186  0.0241 -0.0991  0.0995
  170DOPC   C1B 2037  23.877   2.877  11.241 -0.0774 -0.1809 -0.0309
  170DOPC   D2B 2038  23.597   2.621  11.507  0.1541 -0.0835  0.1101
  170DOPC   C3B 2039  23.460   2.543  11.973  0.2920 -0.1351 -0.0235
  170DOPC   C4B 2040  23.496   2.571  12.434  0.1852  0.2574 -0.1542
  171DOPC   NC3 2041   3.651   0.891  14.953 -0.0751  0.0677  0.2329
  171DOPC   PO4 2042   3.579   1.039  14.612 -0.2266 -0.0917  0.0964
  171DOPC   GL1 2043   3.159   1.155  14.751  0.0445  0.2555  0.2462
  171DOPC   GL2 2044   3.277   1.244  14.957  0.1500  0.2348 -0.0312
  171DOPC   C1A 2045   2.800   1.431  14.704 -0.0428 -0.1313  0.0497
  171DOPC   D2A 2046   2.394   1.707  14.685 -0.1243  0.0272  0.0755
  171DOPC   C3A 2047   2.118   1.601  14.286  0.2689  0.0566  0.1291
  171DOPC   C4A 2048   1.772   1.366  13.953 -0.0537 -0.1246  0.0439
  171DOPC   C1B 2049   3.006   1.577  15.106  0.2308 -0.0307 -0.2089
  171DOPC   D2B 2050   2.981   2.035  15.319  0.0733  0.2003  0.0476
  171DOPC   C3B 2051   2.800   2.344  15.673  0.0048 -0.0182 -0.0149
  171DOPC   C4B 2052   2.668   2.565  16.094 -0.0343 -0.1222  0.2290
  172DOPC   NC3 2053  20.570   0.699  10.469 -0.0359 -0.1249  0.1244
  172DOPC   PO4 2054  20.231   0.903  10.424  0.4023 -0.1063 -0.0191
  172DOPC   GL1 2055  20.288   1.149  10.741 -0.5588  0.3906 -0.2382
  172DOPC   GL2 2056  20.155   1.387  10.668  0.3828 -0.0376 -0.0878
  172DOPC   C1A 2057  20.645   1.126  11.020  0.1318 -0.2916 -0.2138
  172DOPC   D2A 2058  21.013   0.938  11.315 -0.2312  0.0652 -0.1165
  172DOPC   C3A 2059  21.278   0.867  11.707  0.2649 -0.1368  0.1686
  172DOPC   C4A 2060  21.569   1.069  12.093  0.0448 -0.0094 -0.0222
  172DOPC   C1B 2061  19.977   1.681  10.958 -0.3175  0.3629 -0.1268
  172DOPC   D2B 2062  19.881   1.946  11.356 -0.0026  0.1716  0.1412
  172DOPC   C3B 2063  19.974   2.117  11.799 -0.1834 -0.2469 -0.0418
  172DOPC   C4B 2064  20.181   2.139  12.243 -0.3505 -0.1817 -0.1251
  173DOPC   NC3 2065  14.860   6.622  13.453 -0.0322 -0.2608  0.0472
  173DOPC   PO4 2066  15.221   6.831  13.364 -0.0450 -0.2137  0.0394
  173DOPC   GL1 2067  15.282   6.796  13.753 -0.1007  0.0989 -0.2381
  173DOPC   GL2 2068  14.967   6.803  13.827 -0.0284  0.0640  0.0078
  173DOPC   C1A 2069  15.459   6.735  14.149 -0.2703  0.0363 -0.0658
  173DOPC   D2A 2070  15.761   6.973  14.476  0.1760  0.0780  0.1110
  173DOPC   C3A 2071  15.789   6.516  14.598  0.0584  0.1516  0.0648
  173DOPC   C4A 2072  16.012   6.352  15.011 -0.3457 -0.1021  0.2920
  173DOPC   C1B 2073  14.967   6.752  14.254 -0.2014 -0.0389  0.1337
  173DOPC   D2B 2074  15.035   6.994  14.599  0.0022 -0.3979 -0.2991
  173DOPC   C3B 2075  15.011   6.972  15.043  0.1985 -0.1907  0.0189
  173DOPC   C4B 2076  15.122   6.950  15.583 -0.1752  0.0614  0.0841
  174DOPC   NC3 2077   4.191   5.971  15.152 -0.4943  0.3725  0.1776
  174DOPC   PO4 2078   3.952   6.247  14.922 -0.1984 -0.1251  0.2086
  174DOPC   GL1 2079   3.554   6.172  15.024  0.5381 -0.1275  0.0882
  174DOPC   GL2 2080   3.609   5.813  15.077 -0.1589  0.2760 -0.0289
  174DOPC   C1A 2081   3.156   6.323  14.950  0.0574 -0.0766  0.0171
  174DOPC   D2A 2082   2.695   6.321  14.890 -0.1842  0.1866  0.0021
  174DOPC   C3A 2083   2.256   6.247  15.144  0.0626 -0.2711 -0.2145
  174DOPC   C4A 2084   2.237   5.886  15.574  0.0025  0.0391 -0.1195
  174DOPC   C1B 2085   3.435   5.459  15.168 -0.1829  0.1330  0.1246
  174DOPC   D2B 2086   3.266   5.078  15.338 -0.0284 -0.0747  0.1435
  174DOPC   C3B 2087   2.860   5.002  15.391 -0.0282 -0.1404 -0.0840
  174DOPC   C4B 2088   2.332   4.914  15.399  0.0527  0.3700 -0.0898
  175DOPC   NC3 2089   8.295   7.262  18.053 -0.1317  0.0182  0.1667
  175DOPC   PO4 2090   8.211   7.343  18.442  0.0005  0.1660 -0.2692
  175DOPC   GL1 2091   7.914   7.447  18.721 -0.0883  0.1050 -0.0093
  175DOPC   GL2 2092   7.792   7.400  18.942 -0.1129  0.0515  0.1325
  175DOPC   C1A 2093   7.871   7.877  18.879 -0.0920 -0.0190  0.1806
  175DOPC   D2A 2094   7.785   8.294  19.054 -0.3963 -0.0641  0.1999
  175DOPC   C3A 2095   7.570   8.701  19.185  0.2780  0.2007 -0.2777
  175DOPC   C4A 2096   7.146   9.011  19.341 -0.2799  0.1838  0.0589
  175DOPC   C1B 2097   7.805   7.352  19.390 -0.0505  0.2757  0.1789
  175DOPC   D2B 2098   7.812   7.330  19.876  0.1562  0.0479  0.0729
  175DOPC   C3B 2099   7.388   7.288  20.037 -0.0546  0.0125  0.3133
  175DOPC   C4B 2100   7.047   7.354  20.320  0.0419 -0.3518 -0.1003
  176DOPS   CNO 2101  19.307   1.223  10.302  0.1857  0.1020  0.0978
  176DOPS   PO4 2102  19.344   1.312  10.658  0.0997 -0.1122  0.0116
  176DOPS   GL1 2103  19.154   1.420  10.966 -0.1218  0.4142  0.2155
  176DOPS   GL2 2104  19.300   1.251  11.113  0.3933  0.1268 -0.3464
  176DOPS   C1A 2105  19.031   1.776  11.175 -0.2727 -0.2541  0.0200
  176DOPS   D2A 2106  18.825   2.104  11.409  0.0577 -0.1660  0.3597
  176DOPS   C3A 2107  18.839   2.111  11.844 -0.2166 -0.3679  0.1734
  176DOPS   C4A 2108  18.587   2.051  12.274  0.0737 -0.0848  0.1132
  176DOPS   C1B 2109  19.210   1.379  11.479  0.1443 -0.2994 -0.2223
  176DOPS   D2B 2110  19.204   1.740  11.869 -0.2072 -0.3397 -0.1355
  176DOPS   C3B 2111  19.701   1.703  11.920 -0.0720  0.0416 -0.0745
  176DOPS   C4B 2112  19.944   1.382  12.173 -0.1446 -0.2034 -0.0733
  177DOPS   CNO 2113   4.134   3.507  13.958 -0.0099 -0.1058  0.4919
  177DOPS   PO4 2114   3.781   3.334  13.923  0.4078 -0.0055 -0.1541
  177DOPS   GL1 2115   3.662   3.258  14.286  0.0049  0.0980 -0.0285
  177DOPS   GL2 2116   3.500   3.022  14.278 -0.0021 -0.1990 -0.0107
  177DOPS   C1A 2117   3.455   3.524  14.577  0.0224  0.0126 -0.1222
  177DOPS   D2A 2118   3.109   3.830  14.816  0.1642 -0.1231  0.0436
  177DOPS   C3A 2119   2.711   3.698  15.115 -0.3386 -0.0279  0.1285
  177DOPS   C4A 2120   2.309   3.481  15.206 -0.0793  0.1400 -0.0169
  177DOPS   C1B 2121   3.085   2.916  14.302  0.2192  0.3369  0.0981
  177DOPS   D2B 2122   2.708   2.722  14.622  0.0545  0.2374 -0.0550
  177DOPS   C3B 2123   2.315   2.606  14.849  0.5033 -0.0833 -0.0811
  177DOPS   C4B 2124   1.817   2.470  15.051  0.0690  0.1496  0.4811
  178DOPS   CNO 2125  16.105   1.166  11.779  0.0934  0.5028 -0.1053
  178DOPS   PO4 2126  16.459   1.185  11.948 -0.2066 -0.2091 -0.0223
  178DOPS   GL1 2127  16.467   1.026  12.328  0.1019  0.0482  0.0936
  178DOPS   GL2 2128  16.204   1.053  12.390 -0.0532  0.3184  0.3062
  178DOPS   C1A 2129  16.743   1.224  12.660 -0.2973  0.3010 -0.2535
  178DOPS   D2A 2130  17.035   1.273  13.059 -0.1344 -0.1079  0.4850
  178DOPS   C3A 2131  16.980   1.736  13.135 -0.2101  0.0369  0.0428
  178DOPS   C4A 2132  16.971   2.206  13.170 -0.2476  0.2352  0.0221
  178DOPS   C1B 2133  16.141   0.881  12.818 -0.1238  0.0029 -0.1559
  178DOPS   D2B 2134  16.108   1.027  13.289 -0.1307 -0.2869 -0.2698
  178DOPS   C3B 2135  16.469   0.996  13.630 -0.1480 -0.1038  0.4049
  178DOPS   C4B 2136  16.604   0.762  14.066  0.2982 -0.1054  0.1266
  179DOPS   CNO 2137   5.946   5.020  17.410  0.0821  0.3701 -0.1981
  179DOPS   PO4 2138   5.676   4.714  17.306  0.2175  0.2193 -0.0133
  179DOPS   GL1 2139   5.298   4.752  17.497  0.3020  0.1492  0.1359
  179DOPS   GL2 2140   5.400   4.775  17.711  0.0191  0.0685  0.2136
  179DOPS   C1A 2141   4.966   4.691  17.726  0.2437 -0.1839 -0.3464
  179DOPS   D2A 2142   4.567   4.742  18.047 -0.2923  0.1669 -0.1359
  179DOPS   C3A 2143   4.365   4.877  18.478 -0.0894 -0.2139  0.0136
  179DOPS   C4A 2144   4.147   5.009  18.832  0.1912 -0.2482 -0.2944
  179DOPS   C1B 2145   5.299   4.420  17.985  0.0465  0.1398  0.2406
  179DOPS   D2B 2146   5.370   4.023  18.277 -0.0563 -0.0025  0.1623
  179DOPS   C3B 2147   5.098   3.986  18.692 -0.3829 -0.2172 -0.2201
  179DOPS   C4B 2148   5.089   3.977  19.205 -0.1989  0.0416  0.0561
  180DOPS   CNO 2149   8.908   7.560  18.622 -0.0729 -0.2076  0.0879
  180DOPS   PO4 2150   8.799   7.553  18.980 -0.2719  0.1392 -0.0377
  180DOPS   GL1 2151   8.405   7.784  19.199 -0.0728  0.0288 -0.5015
  180DOPS   GL2 2152   8.604   7.571  19.431  0.0553 -0.1921  0.0571
  180DOPS   C1A 2153   8.318   8.194  19.428 -0.0046  0.2327  0.1320
  180DOPS   D2A 2154   8.327   8.544  19.777 -0.3183 -0.0786  0.3368
  180DOPS   C3A 2155   8.317   8.631  20.235  0.0614 -0.1660 -0.1810
  180DOPS   C4A 2156   8.275   8.645  20.726 -0.0613 -0.1042  0.2094
  180DOPS   C1B 2157   8.387   7.353  19.679  0.0064 -0.1077  0.0877
  180DOPS   D2B 2158   8.345   7.134  20.119  0.0659 -0.0394 -0.0909
  180DOPS   C3B 2159   7.979   7.327  20.396 -0.4425  0.2554 -0.1614
  180DOPS   C4B 2160   7.519   7.405  20.528 -0.1906 -0.1879  0.0064
  181DOPS   CNO 2161  13.028   1.321  15.118  0.0504 -0.1686 -0.0869
  181DOPS   PO4 2162  13.101   0.979  15.309  0.1548 -0.2047  0.1016
  181DOPS   GL1 2163  13.591   1.019  15.345  0.1304  0.2005 -0.5555
  181DOPS   GL2 2164  13.652   0.867  15.135  0.3159  0.1488 -0.2235
  181DOPS   C1A 2165  13.899   1.268  15.459  0.1538  0.1732 -0.0924
  181DOPS   D2A 2166  14.277   1.567  15.662  0.0330  0.0410  0.2502
  181DOPS   C3A 2167  14.513   1.443  16.078  0.1226 -0.2125 -0.1325
  181DOPS   C4A 2168  14.701   1.262  16.570 -0.0321 -0.1502  0.0881
  181DOPS   C1B 2169  14.068   0.876  15.064  0.0023  0.2692  0.3119
  181DOPS   D2B 2170  14.356   1.086  15.451 -0.1810  0.0693  0.3463
  181DOPS   C3B 2171  14.538   1.015  15.864  0.1244 -0.1078  0.0926
  181DOPS   C4B 2172  14.895   0.952  16.141 -0.1317  0.1862 -0.3378
  182DOPS   CNO 2173  12.088   1.460  16.742 -0.1124 -0.0277  0.1914
  182DOPS   PO4 2174  12.352   1.487  16.485 -0.1586 -0.1009  0.4803
  182DOPS   GL1 2175  12.755   1.377  16.671 -0.0369  0.0742 -0.2764
  182DOPS   GL2 2176  12.590   1.571  16.853  0.1270  0.2684  0.2830
  182DOPS   C1A 2177  13.000   1.168  16.956  0.2436 -0.0467  0.2299
  182DOPS   D2A 2178  13.181   0.980  17.382  0.0282  0.0231  0.0890
  182DOPS   C3A 2179  13.444   1.090  17.764  0.2823 -0.2494  0.1533
  182DOPS   C4A 2180  13.750   1.311  18.072 -0.2574  0.3368 -0.2077
  182DOPS   C1B 2181  12.595   1.450  17.311 -0.2033 -0.0546 -0.0474
  182DOPS   D2B 2182  12.440   1.358  17.783  0.2100  0.1655 -0.1247
  182DOPS   C3B 2183  12.228   1.084  18.155 -0.0909  0.1259  0.1176
  182DOPS   C4B 2184  11.853   0.935  18.419  0.0123  0.3046 -0.2101
  183DOPS   CNO 2185   7.627   4.440  18.171  0.2414 -0.2082  0.1104
  183DOPS   PO4 2186   7.812   4.088  18.214  0.1147 -0.1379  0.1375
  183DOPS   GL1 2187   7.692   4.120  18.613  0.0014  0.4306 -0.1645
  183DOPS   GL2 2188   7.645   4.395  18.626  0.1924 -0.0876 -0.0197
  183DOPS   C1A 2189   7.971   4.173  19.040  0.0414 -0.0284 -0.1104
  183DOPS   D2A 2190   8.049   3.887  19.379 -0.0634  0.2158 -0.1152
  183DOPS   C3A 2191   8.293   3.796  19.728  0.1507  0.0959  0.0366
  183DOPS   C4A 2192   8.354   3.697  20.233  0.3291 -0.0609 -0.0297
  183DOPS   C1B 2193   7.479   4.423  19.031  0.0245  0.1430 -0.0243
  183DOPS   D2B 2194   7.647   4.343  19.512  0.4277  0.1016 -0.1436
  183DOPS   C3B 2195   7.973   4.172  19.786 -0.1391  0.0920 -0.0075
  183DOPS   C4B 2196   8.485   4.252  19.666 -0.0931  0.4286 -0.1615
  184DOPS   CNO 2197   8.929   6.182  18.568  0.0632 -0.1241 -0.0137
  184DOPS   PO4 2198   9.050   5.919  18.808 -0.2332  0.0335  0.3650
  184DOPS   GL1 2199   9.039   5.822  19.181  0.0953 -0.0843  0.0410
  184DOPS   GL2 2200   9.050   5.510  19.063  0.3554  0.1298  0.0279
  184DOPS   C1A 2201   9.205   5.860  19.584 -0.0552 -0.1516  0.0172
  184DOPS   D2A 2202   9.617   6.023  19.720  0.2859  0.1908  0.0508
  184DOPS   C3A 2203   9.576   6.003  20.175  0.1587 -0.5546 -0.0264
  184DOPS   C4A 2204   9.284   5.837  20.512  0.1917 -0.0932 -0.3650
  184DOPS   C1B 2205   9.289   5.440  19.420 -0.0346  0.3917 -0.3101
  184DOPS   D2B 2206   9.390   5.583  19.925  0.1473  0.1178 -0.2088
  184DOPS   C3B 2207   9.113   5.451  20.266  0.1904 -0.0045 -0.0877
  184DOPS   C4B 2208   8.742   5.379  20.584  0.1133  0.0246  0.1025
  185DOPS   CNO 2209  12.406   6.926  15.847  0.2866 -0.1013  0.0531
  185DOPS   PO4 2210  12.229   7.001  16.161  0.0468  0.2943  0.1407
  185DOPS   GL1 2211  12.505   6.776  16.395  0.2493 -0.2895 -0.0277
  185DOPS   GL2 2212  12.274   6.621  16.488 -0.2076  0.2832 -0.2043
  185DOPS   C1A 2213  12.863   6.814  16.579 -0.2590 -0.0054  0.2299
  185DOPS   D2A 2214  13.286   6.920  16.711  0.1680 -0.1393 -0.0531
  185DOPS   C3A 2215  13.680   6.802  16.858 -0.2950 -0.0014  0.1020
  185DOPS   C4A 2216  13.950   6.539  17.192 -0.0746  0.0822 -0.0379
  185DOPS   C1B 2217  12.625   6.429  16.712 -0.0095 -0.3942  0.1177
  185DOPS   D2B 2218  12.998   6.466  16.923  0.1972 -0.0771 -0.0602
  185DOPS   C3B 2219  13.374   6.315  17.093 -0.0145 -0.2628  0.1080
  185DOPS   C4B 2220  13.713   6.107  17.382  0.0108  0.3855  0.1663
  186DOPS   CNO 2221   9.579   4.060  18.323 -0.0027 -0.1670  0.0481
  186DOPS   PO4 2222   9.319   4.105  18.568 -0.0740 -0.0789 -0.0371
  186DOPS   GL1 2223   9.336   4.363  18.880  0.1740  0.2767 -0.3376
  186DOPS   GL2 2224   9.578   4.242  18.969 -0.0635 -0.1380  0.0045
  186DOPS   C1A 2225   9.180   4.289  19.276  0.1847  0.1982 -0.3070
  186DOPS   D2A 2226   9.119   4.107  19.750 -0.2226 -0.1352  0.1438
  186DOPS   C3A 2227   8.761   3.811  19.869 -0.1093 -0.0516 -0.1559
  186DOPS   C4A 2228   8.617   3.322  19.885 -0.0663  0.1184  0.0802
  186DOPS   C1B 2229   9.610   4.112  19.428  0.2841  0.0304 -0.0091
  186DOPS   D2B 2230   9.576   4.038  19.967 -0.2688 -0.2517  0.0698
  186DOPS   C3B 2231   9.229   4.013  20.277 -0.1248  0.2401  0.2883
  186DOPS   C4B 2232   8.803   4.048  20.382  0.2523  0.2149  0.2226
  187DOPS   CNO 2233   6.141   7.126  17.627  0.0782  0.3277 -0.0736
  187DOPS   PO4 2234   5.986   6.869  17.827  0.1142 -0.0080 -0.0052
  187DOPS   GL1 2235   5.977   6.908  18.245 -0.1345 -0.3600  0.2932
  187DOPS   GL2 2236   5.808   7.183  18.186 -0.0738  0.1635 -0.0233
  187DOPS   C1A 2237   5.792   6.595  18.455 -0.0950 -0.2150 -0.2916
  187DOPS   D2A 2238   5.555   6.419  18.838 -0.0553  0.2855  0.0931
  187DOPS   C3A 2239   5.486   6.263  19.293  0.0265 -0.1965 -0.2744
  187DOPS   C4A 2240   5.513   6.034  19.723 -0.0875  0.0235 -0.0773
  187DOPS   C1B 2241   5.504   7.103  18.569  0.2840  0.1245  0.1399
  187DOPS   D2B 2242   5.343   6.904  18.960 -0.1346 -0.0548  0.0235
  187DOPS   C3B 2243   5.528   6.724  19.389 -0.2178  0.1651  0.3064
  187DOPS   C4B 2244   5.416   6.521  19.805  0.2942 -0.0761  0.1516
  188DOPS   CNO 2245  20.794   2.783   9.999  0.3344 -0.1104  0.0428
  188DOPS   PO4 2246  20.786   2.425  10.087  0.1077  0.1492  0.0503
  188DOPS   GL1 2247  20.974   2.421  10.440 -0.2491  0.3271  0.2500
  188DOPS   GL2 2248  20.858   2.715  10.438 -0.1238  0.0628  0.0502
  188DOPS   C1A 2249  20.836   2.161  10.715 -0.0789  0.2216 -0.2629
  188DOPS   D2A 2250  20.828   1.920  11.146  0.3825 -0.2303 -0.0456
  188DOPS   C3A 2251  20.902   1.940  11.598  0.0883 -0.2445 -0.0798
  188DOPS   C4A 2252  20.889   1.878  12.072  0.2432 -0.1494  0.1321
  188DOPS   C1B 2253  20.830   2.767  10.876  0.1126  0.1256 -0.0811
  188DOPS   D2B 2254  20.864   2.899  11.346 -0.2266  0.1879 -0.0377
  188DOPS   C3B 2255  20.522   3.222  11.270  0.0259 -0.0970  0.2425
  188DOPS   C4B 2256  20.049   3.313  11.260  0.0029 -0.0346 -0.0133
  189DOPS   CNO 2257  13.642   5.354  14.501  0.3116  0.0103 -0.0247
  189DOPS   PO4 2258  13.603   5.049  14.709 -0.1203 -0.0734 -0.1487
  189DOPS   GL1 2259  13.523   5.072  15.121  0.0036 -0.4663  0.1428
  189DOPS   GL2 2260  13.564   5.368  15.109 -0.0038  0.0124 -0.3363
  189DOPS   C1A 2261  13.656   4.873  15.512  0.1292 -0.2181  0.1115
  189DOPS   D2A 2262  14.072   4.778  15.713  0.0851 -0.0373 -0.0472
  189DOPS   C3A 2263  14.400   4.969  15.965 -0.2449  0.0846 -0.2256
  189DOPS   C4A 2264  14.768   5.017  16.250  0.1358 -0.2530  0.0206
  189DOPS   C1B 2265  13.825   5.535  15.393  0.1733  0.1955  0.1865
  189DOPS   D2B 2266  13.981   5.785  15.762  0.0616  0.1020  0.0163
  189DOPS   C3B 2267  14.027   6.135  15.522  0.1126 -0.1348  0.0076
  189DOPS   C4B 2268  14.204   6.543  15.295  0.1005  0.2335  0.0320
  190DOPS   CNO 2269   5.245   2.983  15.840 -0.3054 -0.1210 -0.0679
  190DOPS   PO4 2270   4.868   2.903  15.977  0.1021 -0.1495  0.1586
  190DOPS   GL1 2271   4.628   3.026  16.281 -0.0857 -0.0743 -0.0781
  190DOPS   GL2 2272   4.461   2.735  16.256  0.5509 -0.4111  0.2318
  190DOPS   C1A 2273   4.318   3.321  16.284 -0.0246  0.1666 -0.2030
  190DOPS   D2A 2274   3.866   3.590  16.156 -0.2312 -0.2507  0.0786
  190DOPS   C3A 2275   3.614   3.791  16.500 -0.1184 -0.0265 -0.1561
  190DOPS   C4A 2276   3.218   3.600  16.803  0.2559 -0.0880 -0.0050
  190DOPS   C1B 2277   4.012   2.956  16.213 -0.0631  0.1278 -0.3534
  190DOPS   D2B 2278   3.525   3.200  16.122 -0.1371  0.1545  0.0332
  190DOPS   C3B 2279   3.122   2.985  16.349 -0.3430  0.2223  0.1732
  190DOPS   C4B 2280   2.629   3.083  16.299 -0.0061 -0.1113 -0.2982
  191DOPS   CNO 2281   3.160   7.644  13.263  0.0999  0.0974  0.4958
  191DOPS   PO4 2282   3.182   7.411  13.563 -0.0315  0.0479 -0.3593
  191DOPS   GL1 2283   2.919   7.504  13.818  0.3216  0.0634 -0.1057
  191DOPS   GL2 2284   2.914   7.264  13.954 -0.2037 -0.3291  0.1521
  191DOPS   C1A 2285   2.775   7.801  14.153 -0.1417  0.1718  0.3371
  191DOPS   D2A 2286   2.644   8.254  14.370 -0.0145  0.2729  0.0511
  191DOPS   C3A 2287   2.666   8.650  14.143  0.0217  0.2009  0.1617
  191DOPS   C4A 2288   2.721   9.105  14.194  0.0446 -0.0567  0.0323
  191DOPS   C1B 2289   2.489   7.348  14.014  0.0236  0.0362 -0.0021
  191DOPS   D2B 2290   2.325   7.628  14.328  0.3065  0.1772  0.0305
  191DOPS   C3B 2291   2.320   7.927  14.643  0.1328  0.3988  0.0060
  191DOPS   C4B 2292   2.239   8.350  14.929  0.1833  0.1594  0.3840
  192DOPS   CNO 2293  21.029   4.256   9.704 -0.0868 -0.2887  0.1475
  192DOPS   PO4 2294  20.940   4.594   9.907  0.0475  0.0898 -0.1258
  192DOPS   GL1 2295  21.104   4.632  10.255  0.0736  0.2594  0.1342
  192DOPS   GL2 2296  21.229   4.829  10.237 -0.0074  0.0934  0.2538
  192DOPS   C1A 2297  21.030   4.665  10.679 -0.1698 -0.0704 -0.0999
  192DOPS   D2A 2298  20.910   4.659  11.120  0.1456  0.0507 -0.1777
  192DOPS   C3A 2299  21.006   4.765  11.612 -0.1411 -0.0946  0.0487
  192DOPS   C4A 2300  21.182   4.871  12.079 -0.2106 -0.2591 -0.1545
  192DOPS   C1B 2301  21.588   4.889  10.510  0.1251  0.1999  0.0905
  192DOPS   D2B 2302  21.994   5.118  10.689 -0.0327  0.0844 -0.0311
  192DOPS   C3B 2303  21.910   5.003  11.161 -0.3464 -0.0007 -0.0072
  192DOPS   C4B 2304  21.602   4.915  11.523 -0.1262 -0.0338  0.1653
  193DOPS   CNO 2305   0.151   6.542  10.389 -0.0784 -0.0370  0.0146
  193DOPS   PO4 2306  -0.182   6.505  10.594 -0.1164  0.0433  0.0108
  193DOPS   GL1 2307  -0.452   6.872  10.643 -0.0242 -0.2391 -0.0226
  193DOPS   GL2 2308  -0.332   6.858  10.936 -0.3014 -0.1203 -0.3684
  193DOPS   C1A 2309  -0.882   6.989  10.783  0.0108  0.0216  0.0952
  193DOPS   D2A 2310  -1.273   7.155  10.972 -0.1492 -0.0208 -0.0347
  193DOPS   C3A 2311  -1.387   7.410  11.355 -0.2642 -0.0245  0.0875
  193DOPS   C4A 2312  -1.478   7.808  11.646 -0.0764  0.0611 -0.3954
  193DOPS   C1B 2313  -0.721   6.739  11.187  0.1338  0.2387 -0.2965
  193DOPS   D2B 2314  -1.015   6.521  11.537  0.3896  0.1928  0.1972
  193DOPS   C3B 2315  -0.796   6.328  11.909 -0.0603 -0.2392 -0.1867
  193DOPS   C4B 2316  -0.661   6.160  12.387  0.0461  0.1330 -0.0894
  194DOPS   CNO 2317  12.930   5.773  15.178 -0.0196  0.2162  0.1642
  194DOPS   PO4 2318  12.984   5.407  15.236  0.2471 -0.1475  0.1679
  194DOPS   GL1 2319  13.160   5.258  15.558  0.0307 -0.0716  0.4621
  194DOPS   GL2 2320  13.450   5.323  15.568 -0.3538 -0.4067 -0.0099
  194DOPS   C1A 2321  13.099   4.938  15.757 -0.2869  0.1144  0.0018
  194DOPS   D2A 2322  13.056   4.688  16.159 -0.1180  0.2496  0.0152
  194DOPS   C3A 2323  12.934   5.076  16.471  0.1134  0.1200 -0.2445
  194DOPS   C4A 2324  13.033   5.491  16.781  0.0834  0.1177 -0.1773
  194DOPS   C1B 2325  13.514   5.091  15.969  0.1205  0.3080  0.0281
  194DOPS   D2B 2326  13.953   4.915  16.196  0.0632  0.1811  0.3597
  194DOPS   C3B 2327  14.293   5.060  16.436 -0.2024  0.0807 -0.0949
  194DOPS   C4B 2328  14.382   5.339  16.870  0.1671 -0.2747 -0.2463
  195DOPS   CNO 2329  11.351   1.782  17.238  0.0422  0.0695 -0.4462
  195DOPS   PO4 2330  11.268   1.407  17.278  0.2152  0.1453 -0.0758
  195DOPS   GL1 2331  11.648   1.463  17.408  0.0458 -0.0211 -0.2458
  195DOPS   GL2 2332  11.693   1.631  17.602 -0.1581 -0.0261 -0.1053
  195DOPS   C1A 2333  11.999   1.199  17.549 -0.4537  0.2249 -0.1508
  195DOPS   D2A 2334  12.294   0.869  17.669  0.0439 -0.2114 -0.1788
  195DOPS   C3A 2335  12.616   0.807  17.947 -0.1477  0.1015  0.1083
  195DOPS   C4A 2336  12.728   0.732  18.427 -0.1065 -0.1944 -0.0370
  195DOPS   C1B 2337  11.925   1.510  17.976 -0.6917 -0.0731 -0.0031
  195DOPS   D2B 2338  12.208   1.487  18.426  0.1848 -0.0176 -0.1375
  195DOPS   C3B 2339  12.356   1.135  18.658 -0.2791 -0.0214  0.0925
  195DOPS   C4B 2340  12.684   0.835  18.926 -0.2592 -0.0718  0.0644
  196DOPS   CNO 2341   5.201   4.439  15.958 -0.0921  0.1930 -0.0954
  196DOPS   PO4 2342   4.823   4.502  15.909 -0.1835 -0.0004 -0.1806
  196DOPS   GL1 2343   4.497   4.279  16.082 -0.0771 -0.1594 -0.2019
  196DOPS   GL2 2344   4.347   4.364  15.877 -0.2585 -0.2105  0.3029
  196DOPS   C1A 2345   4.325   4.216  16.514 -0.0549  0.1976  0.3983
  196DOPS   D2A 2346   3.993   4.127  16.875  0.1000 -0.4533 -0.0341
  196DOPS   C3A 2347   3.717   4.382  17.062 -0.1231  0.1138 -0.0762
  196DOPS   C4A 2348   3.357   4.408  17.395 -0.4806 -0.1643  0.1930
  196DOPS   C1B 2349   3.987   4.472  15.727 -0.0841 -0.2259  0.1618
  196DOPS   D2B 2350   3.607   4.743  15.623  0.2156  0.1192  0.1135
  196DOPS   C3B 2351   3.307   5.018  15.864 -0.3224 -0.0392  0.0342
  196DOPS   C4B 2352   2.795   5.042  15.860 -0.2336 -0.2574  0.2335
  197DOPS   CNO 2353   7.615   7.081  18.648  0.2030  0.0294  0.0684
  197DOPS   PO4 2354   7.421   7.405  18.573 -0.2810  0.2254 -0.0486
  197DOPS   GL1 2355   7.295   7.475  18.916 -0.0351  0.0574  0.0014
  197DOPS   GL2 2356   7.203   7.224  18.865 -0.1224  0.0017 -0.0123
  197DOPS   C1A 2357   7.510   7.719  19.165 -0.3231  0.0131  0.0176
  197DOPS   D2A 2358   7.931   7.903  19.335 -0.0019 -0.1943 -0.3571
  197DOPS   C3A 2359   7.995   7.892  19.809  0.0811  0.1710  0.1212
  197DOPS   C4A 2360   7.665   7.958  20.186  0.2984  0.0896  0.1716
  197DOPS   C1B 2361   7.458   7.047  19.153  0.2555 -0.0991  0.0265
  197DOPS   D2B 2362   7.468   6.953  19.627  0.1476 -0.1017  0.4584
  197DOPS   C3B 2363   7.012   7.037  19.793 -0.0398 -0.2422 -0.0612
  197DOPS   C4B 2364   6.595   6.892  19.704  0.1574  0.0226  0.0649
  198DOPS   CNO 2365   0.496   0.347  11.077  0.0172  0.1173  0.2044
  198DOPS   PO4 2366   0.225   0.114  11.244  0.0261 -0.1543  0.2679
  198DOPS   GL1 2367  -0.104  -0.133  11.526  0.1654 -0.0690  0.0499
  198DOPS   GL2 2368  -0.196  -0.183  11.219 -0.0482 -0.3545  0.1123
  198DOPS   C1A 2369  -0.505  -0.314  11.698  0.1353  0.0515 -0.0931
  198DOPS   D2A 2370  -0.848  -0.473  12.002  0.0471 -0.0172  0.1406
  198DOPS   C3A 2371  -1.036  -0.498  12.467  0.0302 -0.0302 -0.0593
  198DOPS   C4A 2372  -1.375  -0.316  12.777 -0.1470  0.0998 -0.0622
  198DOPS   C1B 2373  -0.548  -0.374  11.209 -0.1239  0.0262 -0.0206
  198DOPS   D2B 2374  -0.943  -0.549  11.466  0.2004  0.2030  0.0795
  198DOPS   C3B 2375  -1.271  -0.492  11.818 -0.0282  0.0464  0.3376
  198DOPS   C4B 2376  -1.558  -0.321  12.194 -0.2876 -0.0136 -0.0104
  199DOPS   CNO 2377   9.700   3.185  18.561 -0.3021  0.0036 -0.0909
  199DOPS   PO4 2378   9.938   2.903  18.491 -0.2239 -0.0900  0.0662
  199DOPS   GL1 2379  10.126   2.922  18.831  0.0196 -0.2928 -0.0225
  199DOPS   GL2 2380  10.141   2.708  18.990 -0.0522  0.0421 -0.2576
  199DOPS   C1A 2381  10.419   3.039  19.171 -0.0877  0.0312  0.1697
  199DOPS   D2A 2382  10.731   3.320  19.430  0.1825 -0.0538 -0.5330
  199DOPS   C3A 2383  10.949   3.322  19.844  0.2158  0.0041 -0.1594
  199DOPS   C4A 2384  11.082   3.162  20.266  0.0102  0.3044 -0.0601
  199DOPS   C1B 2385  10.100   2.674  19.410  0.1291 -0.0887  0.1325
  199DOPS   D2B 2386  10.279   2.589  19.873 -0.0733 -0.1999  0.1223
  199DOPS   C3B 2387  10.128   2.696  20.270  0.2469  0.1182  0.1270
  199DOPS   C4B 2388   9.998   2.720  20.701  0.2654  0.1655 -0.3632
  200DOPS   CNO 2389  14.685   7.576  13.306 -0.0792 -0.0958  0.1195
  200DOPS   PO4 2390  14.952   7.851  13.319 -0.0007 -0.2757  0.0589
  200DOPS   GL1 2391  15.266   7.740  13.500 -0.0619 -0.1521  0.0620
  200DOPS   GL2 2392  15.228   7.978  13.702 -0.1093 -0.0490 -0.1802
  200DOPS   C1A 2393  15.685   7.685  13.733  0.1652 -0.0553  0.1766
  200DOPS   D2A 2394  16.165   7.561  13.743  0.0265 -0.3483 -0.1811
  200DOPS   C3A 2395  16.553   7.435  14.019  0.2450 -0.1586 -0.0283
  200DOPS   C4A 2396  16.963   7.213  14.179 -0.0233 -0.1625  0.2839
  200DOPS   C1B 2397  15.642   8.129  13.883  0.0186 -0.3341  0.1522
  200DOPS   D2B 2398  15.975   8.190  14.236 -0.0085 -0.0732 -0.2223
  200DOPS   C3B 2399  16.366   8.302  14.368  0.0170  0.0957  0.0063
  200DOPS   C4B 2400  16.789   8.149  14.595  0.0330 -0.0271 -0.2951
  201W        W 2401   2.747   1.054  25.342  0.0790 -0.1675 -0.3013
  202W        W 2402   5.540   1.144  26.196  0.0029 -0.0646 -0.0160
  203W        W 2403  12.580   0.351   2.045  0.1078  0.1641 -0.0176
  204W        W 2404  23.629   0.388  29.641 -0.1801  0.1361  0.1351
  205W        W 2405   4.157   4.607  12.166  0.2453 -0.1659 -0.1861
  206W        W 2406   8.023   5.471  26.177 -0.0241  0.0694 -0.2522
  207W        W 2407   5.911   2.702  32.146 -0.1390 -0.1046  0.0129
  208W        W 2408  21.967   5.953  20.348  0.1711 -0.0088  0.1087
  209W        W 2409  13.348   2.973  26.104  0.0693 -0.0278  0.2203
  210W        W 2410   7.984   3.833  10.679 -0.1936  0.0526  0.0985
  211W        W 2411  19.716   4.689  23.839 -0.1650  0.0985 -0.0042
  212W        W 2412  21.900   3.449  29.613  0.1194 -0.1150 -0.1426
  213W        W 2413   7.405   6.695   3.524 -0.2199  0.1628  0.0851
  214W        W 2414  19.784   3.269  28.641 -0.2335 -0.0920 -0.1326
  215W        W 2415   1.108   5.280   0.298  0.0844  0.2633 -0.1038
  216W        W 2416  13.098   5.663   2.827 -0.1396  0.0355 -0.0581
  217W        W 2417  11.212   4.511  12.448 -0.0619  0.0926 -0.1330
  218W        W 2418  18.962   0.401   2.460 -0.0187 -0.0381 -0.2645
  219W        W 2419  21.720   1.898   5.977 -0.1969  0.1461 -0.2728
  220W        W 2420   6.405   0.452   7.988  0.0645 -0.2131  0.1715
  221W        W 2421  14.988   4.786   7.367 -0.2199 -0.1222 -0.0609
  222W        W 2422  12.346   6.095   4.391 -0.0665 -0.0038 -0.0320
  223W        W 2423  16.476   4.327  27.513 -0.0405  0.2319  0.0075
  224W        W 2424  17.941   2.911  32.548  0.1800 -0.0923 -0.2494
  225W        W 2425  19.664   3.720  28.217  0.0443 -0.1756  0.0853
  226W        W 2426  18.337   0.675   1.980  0.1748  0.2530  0.1125
  227W        W 2427   7.147   1.639   2.355 -0.0434 -0.1242 -0.0700
  228W        W 2428  12.743   6.050   7.793  0.0915  0.0468  0.1609
  229W        W 2429  22.646   2.043   3.158 -0.1710  0.1453  0.1232
  230W        W 2430   2.522   3.056  28.040  0.0461  0.1434  0.0679
  231W        W 2431  11.325   2.600  28.481  0.0795 -0.1757 -0.0678
  232W        W 2432   1.682   2.608  27.259  0.0963 -0.1793 -0.0583
  233W        W 2433  16.869   6.850  28.582 -0.0530 -0.1362  0.0379
  234W        W 2434  18.837   5.486  23.669 -0.1300 -0.0705  0.0130
  235W        W 2435   4.865   6.259  29.686 -0.1459 -0.2731 -0.1299
  236W        W 2436  24.889   3.315  27.341 -0.0385  0.1070  0.0936
  237W        W 2437   9.356   2.164   2.593  0.0652 -0.1402  0.2196
  238W        W 2438  13.548   2.071   9.513 -0.1560  0.0379  0.2519
  239W        W 2439   0.483   2.188   3.899 -0.2716 -0.4158  0.1653
  240W        W 2440  24.425   5.843  22.714  0.1018 -0.1770  0.1429
  241W        W 2441  17.724   1.265  25.759  0.0246  0.0601  0.0927
  242W        W 2442   5.348   0.325  15.437 -0.1608  0.0005  0.0093
  243W        W 2443  22.534   5.240  26.417  0.0252  0.2033  0.3573
  244W        W 2444  23.001   5.030   4.788  0.0847  0.0989 -0.0538
  245W        W 2445   9.333   7.295  28.153 -0.2120  0.0657 -0.0059
  246W        W 2446   0.593   2.471   0.995 -0.2997 -0.1307  0.0164
  247W        W 2447   2.597   2.771  19.818 -0.2201 -0.0290  0.0789
  248W        W 2448  14.855   4.395   8.108 -0.0780  0.0265  0.2123
  249W        W 2449  13.600   0.969  30.961 -0.0340  0.0186 -0.0579
  250W        W 2450   5.987   2.526  10.505 -0.1623 -0.2856 -0.1317
  251W        W 2451  14.134   1.526  21.978  0.0177 -0.0692 -0.3031
  252W        W 2452  10.317   4.167   6.897 -0.1632  0.2222 -0.1255
  253W        W 2453  15.491   1.112  23.022 -0.1599 -0.1217 -0.1680
  254W        W 2454  11.748   1.796   6.173  0.4330  0.0583  0.0653
  255W        W 2455  11.690   3.692  28.113 -0.0086  0.1451  0.2127
  256W        W 2456  22.977   6.004  24.944  0.2114  0.0890  0.1400
  257W        W 2457  13.097   2.825  10.001 -0.1901  0.1854 -0.0150
  258W        W 2458  22.611   5.433  18.026 -0.0889 -0.0823  0.3570
  259W        W 2459  10.970   2.309  31.214 -0.1478 -0.1289  0.2734
  260W        W 2460  16.462   1.488  18.121  0.0925  0.1517 -0.2782
  261W        W 2461  20.173   5.763  19.946  0.2733 -0.1345 -0.1855
  262W        W 2462   9.664   2.896   4.910 -0.3575  0.1755  0.0658
  263W        W 2463   6.441   3.247  30.224 -0.1024 -0.3012 -0.4812
  264W        W 2464  20.789   1.773  29.931 -0.1917  0.1335 -0.0096
  265W        W 2465   1.339   4.403  22.460 -0.1861 -0.1701 -0.0162
  266W        W 2466  11.953   7.203  28.478  0.2868  0.1797  0.1317
  267W        W 2467  18.167   7.012  27.173 -0.0130  0.0572  0.1797
  268W        W 2468  19.978   2.180  14.762  0.0429 -0.2185 -0.1919
  269W        W 2469  18.231   5.899   4.282 -0.1790 -0.0992 -0.3333
  270W        W 2470   0.927   7.243  29.661  0.2373 -0.0430 -0.0606
  271W        W 2471  13.437   1.710  31.759  0.0962  0.0215 -0.0056
  272W        W 2472  18.784   4.301  18.756  0.0057 -0.0680  0.0501
  273W        W 2473   2.022   1.247  20.313  0.2180  0.1292  0.0415
  274W        W 2474   3.325   1.984   6.647  0.0119 -0.3917 -0.3983
  275W        W 2475  21.464   4.313   9.305  0.1248 -0.2151  0.1509
  276W        W 2476  12.017   4.085   7.572  0.0703 -0.0796  0.1137
  277W        W 2477  10.506   7.710   9.301 -0.0797  0.1917 -0.1084
  278W        W 2478  18.973   5.717   1.203 -0.2370 -0.2346  0.0017
  279W        W 2479  21.678   1.487  20.969 -0.0148  0.0151  0.3977
  280W        W 2480  14.554   5.159   9.607  0.1125 -0.2316  0.0669
  281W        W 2481  16.937   0.631  25.940 -0.2437  0.0688  0.0085
  282W        W 2482  21.381   5.010   5.199  0.0177  0.2056 -0.2174
  283W        W 2483  10.590   6.925  11.729 -0.1554  0.0530  0.2024
  284W        W 2484  16.258   1.543  10.938 -0.1165 -0.4718  0.3031
  285W        W 2485   5.629   6.933  23.779 -0.0310 -0.1952 -0.1946
  286W        W 2486   6.670   2.474   9.791 -0.0425 -0.2913  0.1900
  287W        W 2487  14.759   4.845  21.473 -0.0453 -0.0281 -0.3466
  288W        W 2488   6.106   2.942   8.131  0.2058  0.2514 -0.1084
  289W        W 2489   2.397   5.679  21.238  0.1134  0.1594 -0.2632
  290W        W 2490  14.530   1.126   9.071 -0.3724  0.2536  0.1692
  291W        W 2491   3.318   5.662   2.460  0.0777  0.0949 -0.0337
  292W        W 2492   7.697   1.894  14.799  0.1741 -0.2287 -0.3296
  293W        W 2493   0.095   0.652   9.560  0.0757  0.2560 -0.1259
  294W        W 2494  17.557   3.310  23.410  0.2614  0.0449 -0.0009
  295W        W 2495  19.641   7.102   5.983  0.1185  0.0265 -0.1090
  296W        W 2496   4.301   0.718  24.289 -0.3558  0.1061 -0.1802
  297W        W 2497  16.777   0.802   4.141 -0.0342  0.0816  0.2090
  298W        W 2498  20.812   0.966  27.792 -0.0358  0.0343 -0.0681
  299W        W 2499  13.636   4.714   6.077 -0.1427  0.0974  0.1283
  300W        W 2500  11.062   6.803  11.494  0.0018 -0.1557  0.1634
  301W        W 2501  17.194   0.852   7.017  0.2174 -0.0471 -0.5047
  302W        W 2502   0.586   6.106  11.235  0.1960 -0.0665  0.3171
  303W        W 2503  21.114   2.035  30.201  0.0425 -0.0324 -0.1769
  304W        W 2504   4.142   5.433  28.822  0.1122  0.1407  0.0454
  305W        W 2505  20.089   1.904   3.327  0.0326  0.0896  0.2191
  306W        W 2506   7.057   5.830  28.560  0.1209 -0.0396  0.0353
  307W        W 2507  22.548   5.184   3.570 -0.0251  0.0495  0.2029
  308W        W 2508   7.600   1.112   0.458 -0.1964  0.1276 -0.2837
  309W        W 2509  21.388   2.949   5.036 -0.1003 -0.4125  0.1517
  310W        W 2510   3.347   2.353   0.527  0.2611 -0.3363  0.0624
  311W        W 2511   5.901   0.247   1.984 -0.1160 -0.0188 -0.0164
  312W        W 2512   6.334   4.050   2.707 -0.0224  0.0581  0.0178
  313W        W 2513  10.305   5.862  14.396  0.2296  0.0033  0.0202
  314W        W 2514  14.846   6.113  31.230  0.0112 -0.1642 -0.0084
  315W        W 2515  19.845   5.609  21.500  0.0605 -0.1954 -0.2549
  316W        W 2516  17.819   0.265   6.406  0.1631  0.1248  0.0751
  317W        W 2517   0.643   1.763  32.075 -0.1192  0.1336  0.3103
  318W        W 2518  14.316   4.347  21.924 -0.0653  0.2179 -0.1542
  319W        W 2519  17.449   4.847  30.727  0.0220 -0.0478  0.0025
  320W        W 2520  21.368   2.790  21.522  0.0333 -0.1897 -0.2468
  321W        W 2521  11.245   7.572  28.541  0.0007  0.1788 -0.0449
  322W        W 2522  25.038   5.071  19.396  0.1153  0.1943 -0.1881
  323W        W 2523  14.655   3.480  12.133 -0.1554 -0.0096  0.1220
  324W        W 2524  15.888   4.480  19.029 -0.3533 -0.0499  0.0139
  325W        W 2525  20.792   3.590  14.757 -0.2136  0.0684  0.0365
  326W        W 2526  12.816   3.585  14.542 -0.0036  0.0372 -0.1343
  327W        W 2527   3.141   5.828  32.263  0.4095 -0.1416  0.2476
  328W        W 2528  23.254   6.846   1.035 -0.1591 -0.1054  0.1825
  329W        W 2529  22.330   5.047   3.987 -0.0266 -0.2234 -0.0196
  330W        W 2530   2.916   3.835   8.439 -0.0232 -0.0614 -0.2202
  331W        W 2531   5.004   0.703  11.897 -0.2549  0.0573 -0.0279
  332W        W 2532  11.585   2.051   1.806 -0.0789 -0.0871 -0.0512
  333W        W 2533  16.967   6.316  20.773 -0.1418  0.0346  0.0343
  334W        W 2534   0.176   3.313  25.044 -0.1759 -0.1297 -0.2731
  335W        W 2535  24.731   6.983   9.763 -0.1682 -0.1991  0.2281
  336W        W 2536  24.544   2.794  24.992  0.0266 -0.1031  0.2386
  337W        W 2537   8.833   6.704   4.419  0.0481 -0.2250  0.1484
  338W        W 2538   5.274   3.131   8.699  0.1991  0.0454 -0.2731
  339W        W 2539   3.030   2.673  27.468 -0.1071 -0.2951 -0.0976
  340W        W 2540  20.967   3.352  29.823  0.1295  0.0384 -0.2509
  341W        W 2541  18.043   5.440  30.611  0.1233  0.2292  0.1148
  342W        W 2542  14.218   6.699   4.385 -0.1416 -0.0654 -0.1672
  343W        W 2543  22.890   0.094  26.117 -0.2076  0.3361  0.0392
  344W        W 2544  16.125   7.813  20.226  0.0442  0.1298  0.0152
  345W        W 2545   7.440   4.661  12.757 -0.1232 -0.0113 -0.1793
  346W        W 2546   7.290   1.028  26.333 -0.0359 -0.0905  0.2547
  347W        W 2547  13.390   6.267   2.996 -0.1043  0.1557  0.1178
  348W        W 2548   2.358   5.012  27.040  0.0284 -0.1122  0.0029
  349W        W 2549  10.152   2.480  26.089 -0.1589  0.0563 -0.0162
  350W        W 2550  18.966   2.652  21.287  0.1527  0.0597 -0.0827
  351W        W 2551  12.204   5.732   2.785 -0.3095 -0.0601 -0.0078
  352W        W 2552   3.040   4.521   2.503 -0.0463 -0.0296  0.0045
  353W        W 2553  17.872   4.962   8.104  0.0207 -0.1305 -0.3241
  354W        W 2554  14.993   3.431   3.119  0.1499  0.3923 -0.1782
  355W        W 2555  14.359   7.196   2.053 -0.0406  0.1755  0.1115
  356W        W 2556   7.160   7.751   8.612 -0.1044 -0.1196  0.4362
  357W        W 2557   8.516   3.048  15.188  0.0817 -0.1431 -0.2499
  358W        W 2558  21.286   0.069   1.144 -0.1552 -0.4134  0.4721
  359W        W 2559  23.045   0.700  27.013 -0.1374 -0.0818  0.5701
  360W        W 2560   6.610   2.693  31.655  0.3735 -0.1671  0.0544
  361W        W 2561  24.998   6.991  28.610  0.0546  0.1266 -0.1370
  362W        W 2562  21.298   0.931  24.013 -0.1849  0.0189 -0.3662
  363W        W 2563  11.898   1.174   7.733 -0.1558  0.2263 -0.0964
  364W        W 2564  22.460   1.836  19.152 -0.0972  0.0467 -0.1490
  365W        W 2565   6.700   0.592  29.328  0.0313  0.0444 -0.0022
  366W        W 2566  21.691   4.366  15.474  0.0936  0.1926  0.2906
  367W        W 2567   4.440   4.337  25.065 -0.3191  0.3011 -0.0664
  368W        W 2568  13.742   4.375   3.513  0.0334  0.0758  0.0781
  369W        W 2569   6.504   7.499  15.170  0.2070  0.1522  0.0995
  370W        W 2570   9.453   0.554   2.382  0.0362 -0.1239 -0.0375
  371W        W 2571  19.407   4.291   4.398  0.0354 -0.1389  0.2221
  372W        W 2572  18.166   2.517  23.083  0.0333 -0.1990 -0.2907
  373W        W 2573  12.999   7.694   4.288 -0.0454 -0.1522  0.1886
  374W        W 2574   4.630   4.553  26.691  0.0476 -0.1036 -0.1546
  375W        W 2575  14.838   3.845  20.580  0.1628 -0.1806 -0.2047
  376W        W 2576  23.770   5.255   6.055 -0.1318 -0.0411  0.0848
  377W        W 2577   8.609   0.672   2.928  0.0411  0.1264 -0.2045
  378W        W 2578   3.353   0.373   8.276  0.1475  0.1296  0.0561
  379W        W 2579  15.438   3.463  24.207 -0.0294  0.1254  0.0746
  380W        W 2580   0.828   5.883  21.548 -0.0244 -0.1572 -0.0786
  381W        W 2581   5.555   5.958  12.503 -0.0258 -0.3897 -0.1040
  382W        W 2582   1.605   3.239  23.724 -0.1607 -0.1750  0.0456
  383W        W 2583  10.940   4.757   9.174  0.0619  0.2291 -0.2774
  384W        W 2584  14.235   7.585   0.395 -0.0109 -0.2095  0.0940
  385W        W 2585   7.256   3.781  25.659 -0.0220 -0.1066  0.0536
  386W        W 2586  17.427   0.632  30.404  0.1518  0.1511  0.2816
  387W        W 2587  12.410   0.303  24.898  0.1629  0.3563 -0.0371
  388W        W 2588  17.475   7.528   5.242 -0.2755  0.1710 -0.3319
  389W        W 2589   2.807   5.841   7.791 -0.0250 -0.3546  0.1796
  390W        W 2590  16.933   4.484  10.312  0.0049  0.0643 -0.2104
  391W        W 2591   5.014   2.004  27.553 -0.2122  0.0425 -0.3466
  392W        W 2592  21.663   1.065  25.379  0.3325 -0.1507  0.1029
  393W        W 2593   2.587   1.045   7.211  0.0599 -0.1108  0.4033
  394W        W 2594  18.694   5.395  19.154  0.0005 -0.1563  0.0976
  395W        W 2595  22.330   0.098   2.058 -0.0293 -0.0714  0.1079
  396W        W 2596   6.178   6.960   6.197  0.0040 -0.1543  0.3710
  397W        W 2597   0.753   1.911  28.722  0.0255  0.0334  0.2576
  398W        W 2598   7.663   3.143   9.269  0.0560  0.4264  0.0818
  399W        W 2599  20.434   3.128  24.646  0.2825  0.1226  0.1436
  400W        W 2600  15.116   2.254  24.604  0.1712  0.1576 -0.2200
  401W        W 2601  20.213   2.689   1.972 -0.0527 -0.2397  0.2161
  402W        W 2602   2.001   5.234  20.805  0.4036 -0.3303 -0.1728
  403W        W 2603   1.793   4.835   0.786  0.4086 -0.1270 -0.2478
  404W        W 2604  15.093   6.748   9.869 -0.0724  0.0646  0.1825
  405W        W 2605  17.934   1.575   1.529  0.0575 -0.0783 -0.1530
  406W        W 2606   2.116   0.733   5.357 -0.2921  0.1865  0.0440
  407W        W 2607  11.837   7.584   0.765  0.0559 -0.0767 -0.1593
  408W        W 2608  19.924   2.854   4.470  0.0579 -0.1749 -0.0560
  409W        W 2609  10.556   3.887  16.193  0.0650 -0.0801 -0.1938
  410W        W 2610  12.730   5.886  29.109  0.1980 -0.1964  0.2755
  411W        W 2611   7.535   6.805   9.892 -0.0046  0.1547  0.2391
  412W        W 2612  11.970   4.555  23.702  0.1628 -0.0821 -0.0767
  413W        W 2613  23.077   2.231   4.838 -0.1329  0.0039 -0.1112
  414W        W 2614   5.222   7.199  30.790 -0.1885 -0.0013  0.2154
  415W        W 2615  12.036   2.761  29.871 -0.0102  0.2565  0.2628
  416W        W 2616  13.434   0.663   9.678 -0.0809 -0.0470 -0.1367
  417W        W 2617   8.211   5.811   1.414 -0.4730 -0.1825 -0.3629
  418W        W 2618  21.393   0.445  25.607 -0.0620 -0.0944 -0.3101
  419W        W 2619   9.406   7.276   5.894  0.0661 -0.1327 -0.4180
  420W        W 2620  13.529   7.391  26.798 -0.2018  0.0706  0.0455
  421W        W 2621   7.472   4.635   0.928  0.1187  0.2451  0.0163
  422W        W 2622  16.279   5.854   1.703 -0.0366  0.2874 -0.0459
  423W        W 2623   7.352   1.012   7.689 -0.3191  0.1832  0.0756
  424W        W 2624  16.751   3.006   8.227  0.1218  0.1076  0.0916
  425W        W 2625   8.969   6.172  12.311  0.1764  0.0479 -0.1285
  426W        W 2626   3.417   5.155  26.931 -0.2740 -0.0894  0.1117
  427W        W 2627   9.621   7.430   3.332 -0.1775  0.0672 -0.1109
  428W        W 2628  13.641   1.830  27.535 -0.2215 -0.3196 -0.2199
  429W        W 2629   5.056   3.195  26.578  0.1897  0.3888  0.1661
  430W        W 2630  21.956   6.371   4.894 -0.1215  0.3259  0.2045
  431W        W 2631  18.616   1.203   2.032  0.0136  0.2178 -0.0360
  432W        W 2632  22.103   4.556  31.569 -0.2952  0.1200 -0.0710
  433W        W 2633  13.744   3.684  23.032 -0.2179  0.3124  0.1842
  434W        W 2634   6.998   1.212   2.191  0.0239 -0.3694  0.2396
  435W        W 2635   2.298   7.438  10.220  0.1225  0.0788  0.2504
  436W        W 2636   2.567   2.522  27.402  0.0431  0.2780  0.0445
  437W        W 2637   8.801   5.279   1.902 -0.1985 -0.0149 -0.0089
  438W        W 2638  11.346   4.969   4.729 -0.3890  0.0031  0.0173
  439W        W 2639  17.129   0.982  30.228  0.0012 -0.1542  0.0203
  440W        W 2640   4.793   3.790  26.495 -0.0453  0.2644  0.0287
  441W        W 2641   9.910   0.799  12.598 -0.0214 -0.2593 -0.1250
  442W        W 2642  20.918   5.396   2.182 -0.1552 -0.0678 -0.0384
  443W        W 2643   3.296   0.543  25.906  0.1862  0.1018 -0.0766
  444W        W 2644   2.361   4.827  30.838 -0.1159  0.0345 -0.0789
  445W        W 2645   0.923   2.849  20.494  0.1941  0.0396 -0.0139
  446W        W 2646  19.773   0.027   3.348  0.3117  0.0426 -0.1288
  447W        W 2647   7.476   3.689  28.133  0.1066  0.0177 -0.0211
  448W        W 2648  24.262   1.755  31.130  0.4630  0.2037  0.1652
  449W        W 2649   0.828   2.360  27.196 -0.1864 -0.2640 -0.1225
  450W        W 2650   6.318   1.393   6.009  0.2050 -0.4588 -0.0044
  451W        W 2651  18.443   5.833  19.307  0.0058 -0.2364  0.1871
  452W        W 2652   0.580   3.269  30.659  0.2093 -0.0839 -0.0475
  453W        W 2653   1.737   5.704   7.141  0.2098 -0.2364  0.1124
  454W        W 2654   7.848   1.540  31.544 -0.1069  0.1818  0.0659
  455W        W 2655  16.968   1.284   6.470 -0.1719  0.0172  0.1868
  456W        W 2656  17.861   3.950  31.032 -0.1824  0.2260  0.0152
  457W        W 2657   2.977   5.065   6.596 -0.0670 -0.2468  0.1872
  458W        W 2658  22.339   0.839  29.655 -0.0174 -0.1461  0.1529
  459W        W 2659  22.620   3.457   8.447 -0.1166  0.1808  0.1307
  460W        W 2660  12.522   4.319  14.848 -0.1815 -0.1863  0.2392
  461W        W 2661  19.717   5.190  23.936  0.0406  0.0418 -0.0176
  462W        W 2662  15.739   3.254   6.395  0.0794 -0.1040 -0.0659
  463W        W 2663   7.321   5.817   6.676 -0.0103 -0.0854  0.1001
  464W        W 2664   9.737   1.575  32.114  0.1653 -0.1054 -0.2222
  465W        W 2665   9.640   1.998  31.691  0.1097 -0.2124 -0.1048
  466W        W 2666  11.517   6.442  14.689  0.2769  0.1786  0.1911
  467W        W 2667  23.058   6.650  28.732  0.1283 -0.0141 -0.0960
  468W        W 2668  12.742   4.375   3.825 -0.0800 -0.2166  0.2995
  469W        W 2669   7.898   3.592  10.242  0.1407 -0.2222  0.0046
  470W        W 2670   2.407   5.821  29.346  0.0960  0.0387  0.4465
  471W        W 2671  11.231   5.740  11.663  0.1708  0.0969 -0.1189
  472W        W 2672   1.485   2.574   1.758 -0.1712  0.2522  0.0419
  473W        W 2673   1.772   7.180   6.745  0.0301  0.0582  0.2416
  474W        W 2674  12.482   7.716  30.208  0.3141 -0.1688 -0.3420
  475W        W 2675  15.252   0.376  32.697 -0.1500  0.1057  0.0443
  476W        W 2676   8.903   5.807   9.179 -0.1697  0.2791  0.2352
  477W        W 2677  24.195   5.143  11.333  0.2212  0.1854 -0.0121
  478W        W 2678  17.874   5.220  21.273 -0.3714 -0.1407 -0.1380
  479W        W 2679   9.118   4.825  16.352  0.0531  0.2460  0.2340
  480W        W 2680   9.104   5.682  23.466  0.0373  0.0232  0.2195
  481W        W 2681  15.943   5.797   9.860 -0.2697  0.0427 -0.1812
  482W        W 2682   1.668   1.368  10.396 -0.1633  0.2199 -0.3459
  483W        W 2683  12.060   3.538  10.396  0.1013 -0.1010  0.4571
  484W        W 2684  22.831   3.638   1.688 -0.0096 -0.2345  0.4678
  485W        W 2685  23.633   5.996  24.080  0.0986 -0.3688  0.0096
  486W        W 2686  18.407   0.028  21.625 -0.1107 -0.1021  0.1187
  487W        W 2687  18.122   2.741  20.723 -0.0880  0.0411  0.1172
  488W        W 2688   9.679   6.132   8.904  0.1379  0.1148  0.1432
  489W        W 2689  18.313   0.411  28.471 -0.1450 -0.1089  0.2394
  490W        W 2690   3.482   1.795   2.067  0.4826  0.0771  0.2512
  491W        W 2691  20.666   5.994   6.272  0.3427 -0.0804 -0.3613
  492W        W 2692  20.299   3.250   5.807 -0.0322 -0.3011 -0.1242
  493W        W 2693  11.057   2.417  14.811 -0.0406 -0.4095 -0.2161
  494W        W 2694  25.019   2.831  31.966 -0.1502  0.0009  0.0848
  495W        W 2695   8.329   4.622  15.698  0.0804 -0.0163 -0.2920
  496W        W 2696  14.111   1.537   8.266  0.0270 -0.3069 -0.1551
  497W        W 2697  22.231   0.276  10.404 -0.0237 -0.4052 -0.2112
  498W        W 2698  13.905   0.069   7.514  0.2931  0.1097  0.1087
  499W        W 2699   0.104   2.925  11.606 -0.1550  0.0855  0.1771
  500W        W 2700  12.513   4.940   6.066 -0.2475 -0.0985 -0.0392
  501W        W 2701   5.705   6.424  31.116  0.0909 -0.1768 -0.0811
  502W        W 2702  13.427   3.697   3.812  0.0379 -0.0534  0.0638
  503W        W 2703   7.895   2.093  16.584 -0.0036 -0.1811 -0.2770
  504W        W 2704   3.741   6.907  24.909  0.0129  0.0266  0.1413
  505W        W 2705   1.646   5.816  19.495  0.0374  0.1715  0.2481
  506W        W 2706   9.884   1.280  26.730  0.0446 -0.0476  0.0317
  507W        W 2707  18.630   4.539  30.426  0.0836 -0.1139  0.0152
  508W        W 2708  10.103   4.994   0.760 -0.1433 -0.2772  0.0521
  509W        W 2709  23.751   7.268  23.677 -0.1034 -0.0503  0.0831
  510W        W 2710   6.662   7.506  12.501 -0.0383 -0.1026  0.1765
  511W        W 2711  14.130   0.143  24.295  0.1554 -0.1112  0.1648
  512W        W 2712  11.551   5.262  24.520 -0.0939 -0.2602 -0.3235
  513W        W 2713  22.071   2.397  32.153 -0.0043  0.2636  0.0844
  514W        W 2714  11.813   5.404   5.744 -0.0695  0.2089  0.2195
  515W        W 2715   0.340   5.781  28.685  0.0429 -0.0870  0.2741
  516W        W 2716   0.226   4.279   2.674  0.2049 -0.1976  0.5444
  517W        W 2717   4.642   1.245  13.835 -0.1909 -0.2037 -0.0140
  518W        W 2718   9.305   6.357  31.940 -0.1196  0.3579  0.3184
  519W        W 2719   2.937   3.873  25.935  0.0820 -0.0487 -0.0397
  520W        W 2720   6.577   0.496  23.487 -0.2018  0.4717 -0.1014
  521W        W 2721   3.486   4.280  11.479  0.0981  0.0673 -0.0734
  522W        W 2722   1.545   4.236  28.203  0.1069  0.0526  0.1789
  523W        W 2723   2.733   0.743   4.666 -0.3577 -0.2132  0.3271
  524W        W 2724   3.345   7.809  27.020  0.3143  0.0038 -0.3263
  525W        W 2725  11.184   0.422   1.148  0.0236  0.1035  0.0909
  526W        W 2726  18.798   4.125  17.727 -0.2296  0.0351  0.2589
  527W        W 2727   2.067   1.677  10.098  0.0707 -0.1266  0.1021
  528W        W 2728  16.111   6.732  25.650  0.0068 -0.1849 -0.0705
  529W        W 2729  17.761   7.549  30.270  0.1104 -0.0880 -0.2418
  530W        W 2730   8.551   4.923  27.343 -0.1084 -0.2374 -0.0093
  531W        W 2731  20.330   1.615  18.226 -0.0299  0.2391 -0.0635
  532W        W 2732  11.439   1.512   3.928 -0.0584 -0.1950  0.0835
  533W        W 2733  16.652   6.669  25.324  0.0106  0.2477 -0.0240
  534W        W 2734   3.510   0.808   3.628 -0.0636 -0.1421  0.5496
  535W        W 2735  11.024   0.962  13.734  0.1365 -0.1063  0.0542
  536W        W 2736  20.215   6.816   6.562 -0.0370  0.2566  0.2376
  537W        W 2737  22.711   4.760  17.404  0.0113 -0.0702  0.2034
  538W        W 2738   9.622   7.125  27.782 -0.1589 -0.2011 -0.3274
  539W        W 2739  21.810   7.193   7.544  0.1592  0.1864  0.3492
  540W        W 2740  19.679   4.741   5.721  0.1170 -0.0520 -0.0834
  541W        W 2741  17.375   3.370  30.664  0.1028  0.1850  0.0117
  542W        W 2742   9.591   4.970   0.897  0.2521 -0.3673  0.3754
  543W        W 2743   5.043   7.168  13.671  0.0575 -0.0260 -0.1422
  544W        W 2744   8.690   4.142  31.404 -0.1408  0.0850 -0.2175
  545W        W 2745   5.519   3.346  16.042  0.1337  0.4694 -0.1910
  546W        W 2746   0.377   2.330  25.258  0.2338 -0.1149  0.0164
  547W        W 2747  11.720   2.198  12.923 -0.1126  0.1700 -0.3871
  548W        W 2748   0.355   2.639   0.560 -0.0660  0.1866 -0.0440
  549W        W 2749   4.873   1.109   0.967  0.0651  0.1220  0.0531
  550W        W 2750  11.787   0.153   8.886  0.2949  0.0342 -0.4347
  551W        W 2751  14.027   2.271  21.306 -0.2532 -0.1000  0.0155
  552W        W 2752   0.984   7.756  24.552  0.0327  0.0909  0.3078
  553W        W 2753   3.983   5.532  23.115 -0.0322 -0.1757  0.0815
  554W        W 2754   4.305   0.571  29.094 -0.0222  0.5529 -0.0668
  555W        W 2755  11.808   7.820   2.866  0.2274 -0.2797  0.0772
  556W        W 2756  12.544   5.473   7.525 -0.1293 -0.0901  0.0026
  557W        W 2757  15.382   1.236  19.156  0.1512 -0.0856 -0.4704
  558W        W 2758  16.511   5.234  27.901  0.0524  0.1365 -0.1812
  559W        W 2759  18.536   4.031  24.058  0.1055  0.0907 -0.1894
  560W        W 2760   8.175   5.425  12.816 -0.1510  0.1162  0.2395
  561W        W 2761  20.494   5.014   4.671  0.2168 -0.2395  0.2958
  562W        W 2762  14.947   2.646  30.513  0.1429  0.0671  0.2066
  563W        W 2763   3.061   1.316  11.055  0.1711 -0.1264 -0.3468
  564W        W 2764   2.203   0.764  31.359  0.1177  0.0607  0.0649
  565W        W 2765   6.063   4.884   2.943  0.2404 -0.0573 -0.1658
  566W        W 2766   0.852   2.354  23.506 -0.2050 -0.2737 -0.2069
  567W        W 2767   1.284   4.019   7.991  0.2639  0.2136  0.1587
  568W        W 2768  12.933   2.335   7.793 -0.1252  0.1501  0.3205
  569W        W 2769   4.519   3.120  14.325 -0.2640  0.1316  0.0242
  570W        W 2770   2.394   5.799  28.833  0.0114 -0.0702  0.1321
  571W        W 2771  16.342   7.077  24.810 -0.0343  0.2249 -0.1786
  572W        W 2772  18.338   5.122  18.026  0.1560  0.0140  0.0507
  573W        W 2773  14.433   3.208   7.404 -0.3821 -0.0237 -0.0001
  574W        W 2774   0.057   0.918   2.966  0.0326  0.0879  0.5514
  575W        W 2775  19.977   4.784  27.905 -0.0990 -0.0134 -0.0491
  576W        W 2776  12.913   0.187  29.826  0.2407  0.0282 -0.0081
  577W        W 2777  11.937   5.163  15.513  0.0744 -0.1489 -0.0919
  578W        W 2778   3.635   7.466  29.771  0.1085 -0.1782  0.1220
  579W        W 2779  10.791   6.810  13.577 -0.2687 -0.3081  0.0434
  580W        W 2780   5.563   4.396  22.703  0.0162 -0.2732  0.1827
  581W        W 2781  14.347   2.754   0.651 -0.0234  0.0073  0.0208
  582W        W 2782  12.384   5.139  11.363  0.1068 -0.0211  0.0379
  583W        W 2783  20.043   4.370  20.701  0.2028 -0.1637  0.0790
  584W        W 2784   0.155   4.218   1.628  0.2146 -0.3559 -0.2762
  585W        W 2785  15.941   3.256  28.473  0.2097 -0.2018 -0.1443
  586W        W 2786   4.017   6.424  15.582  0.1054 -0.0027 -0.2509
  587W        W 2787  11.003   0.191   3.792  0.2750 -0.3184  0.1186
  588W        W 2788  23.729   3.259  16.244  0.1115  0.1324  0.2167
  589W        W 2789   7.718   4.572  32.282  0.0422  0.5397 -0.0766
  590W        W 2790   6.939   5.327  22.315  0.1022  0.2261 -0.1793
  591W        W 2791  24.878   2.377  23.693  0.0183  0.1805 -0.1112
  592W        W 2792  21.628   4.929   2.314  0.0871 -0.3477  0.2137
  593W        W 2793  21.993   0.960   2.236  0.3727  0.1316 -0.0292
  594W        W 2794   1.083   6.150  30.408 -0.2070 -0.2142  0.0165
  595W        W 2795  10.940   7.428   9.671  0.1556 -0.0754 -0.1340
  596W        W 2796  22.794   0.709  15.979  0.2367 -0.1551 -0.3953
  597W        W 2797  18.041   2.057  18.623  0.3931  0.1733 -0.2490
  598W        W 2798  12.361   0.615   6.244  0.0316  0.0207 -0.2880
  599W        W 2799  24.202   6.981  16.264  0.1590 -0.0240  0.0206
  600W        W 2800   2.099   2.864  21.629 -0.0730  0.1579 -0.1601
  601W        W 2801  11.508   6.868   8.559  0.0222 -0.0908  0.0439
  602W        W 2802  17.718   2.197   4.057  0.0409 -0.0533  0.1746
  603W        W 2803   8.685   3.583   0.704 -0.1145 -0.2937 -0.0754
  604W        W 2804  21.874   3.121   2.244 -0.1039 -0.2060  0.1574
  605W        W 2805   6.160   2.718  28.988 -0.1268  0.0954 -0.1620
  606W        W 2806  13.330   6.948  29.229 -0.2376 -0.2044  0.2156
  607W        W 2807  16.488   5.360   2.970  0.1618 -0.1008  0.5116
  608W        W 2808   3.839   7.639  12.745 -0.2999  0.2608 -0.1074
  609W        W 2809  17.760   3.205  17.642  0.0540 -0.0674 -0.0262
  610W        W 2810   8.185   5.199  13.862  0.2086 -0.1408 -0.1984
  611W        W 2811  11.865   4.799  27.616  0.0919  0.2692  0.1391
  612W        W 2812  13.606   2.019  11.557  0.1953 -0.0006  0.3538
  613W        W 2813  11.547   7.519  13.784 -0.4944  0.1318  0.3298
  614W        W 2814  17.705   6.473  19.469  0.0066  0.3055  0.3884
  615W        W 2815  22.723   7.729   8.923 -0.0319 -0.3456 -0.0167
  616W        W 2816  21.351   6.978  13.956  0.0498  0.0213  0.1985
  617W        W 2817  23.768   4.112   0.208 -0.1346  0.2967  0.1846
  618W        W 2818   7.791   5.120  29.256 -0.0508  0.2106 -0.3111
  619W        W 2819   0.121   0.190  17.965 -0.1449 -0.0312 -0.0661
  620W        W 2820  24.965   0.013  21.628  0.1687 -0.0867  0.1169
  621W        W 2821  18.473   3.951  15.838 -0.1054  0.1356  0.2273
  622W        W 2822  13.538   4.803   3.343  0.3148  0.2309 -0.3890
  623W        W 2823  21.232   4.111  15.667 -0.0453 -0.0706  0.3914
  624W        W 2824  14.978   0.528  22.545  0.2053  0.0767 -0.0281
  625W        W 2825   8.716   4.150  23.115  0.3904  0.3477 -0.1102
  626W        W 2826   6.963   4.747  28.062  0.0030  0.2695 -0.0953
  627W        W 2827  18.080   0.951  29.613 -0.0597  0.2332  0.1769
  628W        W 2828   2.070   7.313   9.070  0.0017  0.0506  0.3279
  629W        W 2829  13.868   2.942  31.585  0.0915 -0.1007 -0.2667
  630W        W 2830  13.531   5.708  26.196 -0.2380 -0.2152 -0.1048
  631W        W 2831  22.110   7.031  17.278 -0.1082 -0.0020 -0.0154
  632W        W 2832   8.900   0.070   0.021 -0.1012  0.0563 -0.1991
  633W        W 2833   4.319   6.156   5.203 -0.0412 -0.1569 -0.1279
  634W        W 2834  20.117   6.634   3.408  0.4490 -0.1550 -0.2175
  635W        W 2835   3.308   7.379  20.617 -0.1939  0.0408  0.3718
  636W        W 2836  10.729   1.963  32.447 -0.0444 -0.0262 -0.1159
  637W        W 2837  10.734   1.995  12.726  0.0596 -0.2231 -0.2867
  638W        W 2838   2.889   7.505   5.198  0.1769 -0.0135  0.2982
  639W        W 2839  16.004   6.746  29.892  0.0380 -0.3499  0.0025
  640W        W 2840   3.947   7.314  24.191 -0.3612  0.0507  0.1683
  641W        W 2841   6.301   2.716  12.979  0.1927  0.1882  0.0591
  642W        W 2842  14.882   6.769   6.676  0.0818 -0.1931 -0.1197
  643W        W 2843  19.551   6.827  31.564 -0.0315  0.2098  0.1836
  644W        W 2844  23.208   7.415  30.600 -0.0229  0.1204  0.3452
  645W        W 2845   9.337   2.282  18.696 -0.1073 -0.2597  0.0577
  646W        W 2846  10.510   7.556  16.265 -0.2645  0.2182  0.0722
  647W        W 2847  17.908   2.691   6.100 -0.4249  0.1252  0.2763
  648W        W 2848   9.715   5.280   5.626 -0.0063  0.0898 -0.0379
  649W        W 2849   8.916   6.210   8.027 -0.0561  0.0491  0.1021
  650W        W 2850  18.110   5.692  24.896  0.0480  0.0311 -0.0024
  651W        W 2851  19.319   6.558   4.450  0.1344  0.1958  0.2980
  652W        W 2852   3.593   5.158   0.592  0.0852  0.0567 -0.0867
  653W        W 2853  13.424   5.754  29.849 -0.0646  0.0590 -0.0433
  654W        W 2854  10.624   0.386   3.412 -0.0471 -0.2402  0.0099
  655W        W 2855   6.438   5.677  22.415 -0.1163 -0.1268 -0.2458
  656W        W 2856   6.769   1.047   1.592  0.0741 -0.1196 -0.0098
  657W        W 2857  24.094   4.696  32.281  0.2733 -0.3810  0.1231
  658W        W 2858  21.184   1.422  20.788  0.1951 -0.0682 -0.3076
  659W        W 2859   5.939   6.459   1.513 -0.3321  0.3150  0.0035
  660W        W 2860   2.461   5.536  27.775 -0.2497  0.5707 -0.1105
  661W        W 2861   2.348   6.053  23.942 -0.0306 -0.0745  0.3168
  662W        W 2862   4.879   2.780   3.736 -0.4005  0.0263 -0.3595
  663W        W 2863  22.701   4.966   3.120  0.1038  0.4219  0.1529
  664W        W 2864   3.387   4.115  31.337  0.2687  0.0491  0.2039
  665W        W 2865   4.105   0.365   6.458 -0.0377 -0.2293  0.4734
  666W        W 2866  15.732   1.706   9.389  0.1876  0.0265  0.1264
  667W        W 2867   9.073   3.253  24.777 -0.3476 -0.0806  0.1102
  668W        W 2868  24.826   7.519  32.496  0.0156 -0.1786 -0.0717
  669W        W 2869   1.008   0.299  20.911 -0.1342  0.0927 -0.0884
  670W        W 2870   1.144   3.421   1.381  0.3758 -0.1031  0.0377
  671W        W 2871   1.649   1.640   1.496 -0.1168 -0.1196 -0.2395
  672W        W 2872   7.659   5.516   0.383  0.2069 -0.1940  0.1055
  673W        W 2873   2.524   6.338  31.276 -0.0847 -0.0308 -0.0242
  674W        W 2874   5.552   6.916   7.009  0.0185  0.1378  0.0097
  675W        W 2875  13.458   7.407  12.235  0.0962  0.0522  0.2964
  676W        W 2876  14.212   6.556   8.230  0.0303  0.1028 -0.1536
  677W        W 2877   6.903   0.286  10.223  0.0142  0.0261 -0.0331
  678W        W 2878  23.001   5.845  17.297 -0.1710  0.1491 -0.0134
  679W        W 2879  14.200   0.308  10.849  0.1128 -0.1157  0.1519
  680W        W 2880  19.746   7.558  15.857  0.0084 -0.3066  0.1277
  681W        W 2881   5.763   3.533  26.644 -0.0138 -0.0325  0.0885
  682W        W 2882  21.951   7.044   9.646  0.2104  0.0302  0.1049
  683W        W 2883  24.047   7.161  29.382 -0.2198 -0.0489  0.3510
  684W        W 2884  20.042   6.722  18.185  0.0086 -0.2614 -0.1291
  685W        W 2885  12.037   3.367   7.208  0.5206  0.0272 -0.0524
  686W        W 2886   9.091   1.934  14.807  0.3346  0.2464 -0.2184
  687W        W 2887  14.519   6.474  26.357 -0.1445  0.0752 -0.5502
  688W        W 2888   6.641   1.948   6.713 -0.0388  0.0427  0.0848
  689W        W 2889  19.211   6.660  16.075  0.0186 -0.3376  0.1687
  690W        W 2890  23.200   1.845   0.673  0.1124 -0.0172  0.0248
  691W        W 2891   0.491   1.430  24.916  0.2793  0.0521 -0.1383
  692W        W 2892  10.901   5.185   4.648 -0.0554  0.0286 -0.0598
  693W        W 2893   1.436   6.517   9.383  0.2667  0.3586 -0.0378
  694W        W 2894  14.035   0.205   4.271  0.0652 -0.0803 -0.1387
  695W        W 2895  24.344   2.131   0.078 -0.0627  0.2254 -0.1931
  696W        W 2896  15.206   6.777   8.310  0.1945  0.0956 -0.1874
  697W        W 2897   7.461   7.682  15.527  0.1444 -0.1122  0.1325
  698W        W 2898   1.846   1.502  21.344  0.0110 -0.0544 -0.0862
  699W        W 2899  22.035   5.493  17.838 -0.1635  0.3283  0.0874
  700W        W 2900   6.282   1.515  26.228  0.1148 -0.0526 -0.0436
  701W        W 2901   6.098   0.134  25.644  0.1082 -0.0663  0.1500
  702W        W 2902   5.456   2.407   5.647 -0.0135  0.0321  0.1576
  703W        W 2903  24.536   6.676   4.950 -0.0730  0.0525  0.0122
  704W        W 2904   5.019   2.928   9.085  0.0245 -0.1431  0.2001
  705W        W 2905  10.986   2.708  27.200  0.1169 -0.0137  0.2479
  706W        W 2906  10.918   6.239   9.477  0.0187 -0.0171  0.2184
  707W        W 2907  25.044   6.342  24.906 -0.0431  0.0768 -0.2903
  708W        W 2908  18.751   4.753   0.399 -0.0342 -0.0499 -0.0571
  709W        W 2909  22.596   2.290   5.154  0.0266  0.0735 -0.3468
  710W        W 2910   9.804   4.744   8.560 -0.0954 -0.2144  0.0981
  711W        W 2911  14.957   3.470   8.159 -0.2081  0.0396 -0.1382
  712W        W 2912  14.977   4.792   9.406  0.0149 -0.0921  0.0380
  713W        W 2913  10.020   3.641   4.490 -0.4697  0.0555 -0.0248
  714W        W 2914   1.719   1.662  30.480 -0.2663 -0.2309  0.2476
  715W        W 2915   4.075   2.816   1.985 -0.0644  0.0868  0.2881
  716W        W 2916   6.353   0.956   7.654 -0.0795 -0.1638 -0.0427
  717W        W 2917  23.142   6.774  10.334  0.1073 -0.0659 -0.4148
  718W        W 2918  13.985   4.062  31.389  0.3505  0.0735 -0.3185
  719W        W 2919  24.923   7.699  27.294  0.4663 -0.2486 -0.0219
  720W        W 2920  19.088   7.763  31.379  0.2303  0.0068  0.1938
  721W        W 2921  12.821   7.147  11.488  0.0782 -0.1818  0.0197
  722W        W 2922  14.585   6.833   6.242 -0.1063  0.2215  0.0206
  723W        W 2923  24.659   7.659  24.425 -0.2171  0.0027 -0.0524
  724W        W 2924  22.387   6.946  27.990  0.1267  0.0376 -0.0959
  725W        W 2925  18.002   0.614   5.246  0.0718  0.1586  0.0475
  726W        W 2926  14.158   5.292  10.285  0.0812 -0.1372  0.0105
  727W        W 2927  14.000   0.667  26.870  0.3546 -0.1833  0.2408
  728W        W 2928  13.626   0.881   5.797  0.0183 -0.1579 -0.1553
  729W        W 2929  13.270   0.548   5.453  0.2412 -0.2783 -0.0334
  730W        W 2930  16.460   4.651   9.356  0.3303 -0.1740  0.1872
  731W        W 2931  11.340   3.259  10.823  0.1907 -0.3265  0.0806
  732W        W 2932  17.116   2.232   3.514 -0.3218  0.2784 -0.0735
  733W        W 2933  17.173   7.225   4.533 -0.0853  0.2175 -0.1260
  734W        W 2934  20.022   6.648  16.725  0.0361 -0.1762  0.0024
  735W        W 2935  14.462   6.193  24.526 -0.0106  0.1872 -0.0714
  736W        W 2936  19.453   5.810  22.038  0.0001 -0.1364 -0.0549
  737W        W 2937   6.032   1.232  22.025 -0.2125  0.0579 -0.2963
  738W        W 2938  11.699   1.610   7.538  0.0767  0.1899 -0.0229
  739W        W 2939   4.045   7.653  13.552  0.3412 -0.0483  0.1530
  740W        W 2940  21.870   3.128  19.431  0.1208 -0.1254  0.3335
  741W        W 2941  16.634   0.253  30.364 -0.4464  0.0269  0.0823
  742W        W 2942  18.233   6.843   1.258 -0.0189 -0.1293  0.0253
  743W        W 2943  11.085   5.964   9.864 -0.1688  0.1467 -0.0791
  744W        W 2944   6.115   6.977  15.889 -0.0069  0.1850  0.0573
  745W        W 2945   5.629   6.068  29.965  0.1789  0.0106  0.2528
  746W        W 2946  22.621   1.911   7.197 -0.1180 -0.1878 -0.2078
  747W        W 2947   9.330   7.241  15.944  0.1223 -0.0459 -0.0561
  748W        W 2948  11.277   5.978   6.814 -0.0082 -0.0313  0.0013
  749W        W 2949  14.965   3.464  21.437 -0.0455 -0.1414  0.0517
  750W        W 2950  20.905   0.946   6.156  0.0169  0.2238 -0.1636
  751W        W 2951  16.682   6.636  20.514 -0.3271  0.1927  0.2283
  752W        W 2952  18.324   0.076  18.833 -0.0168  0.0400 -0.1687
  753W        W 2953   5.955   7.560  10.474  0.0519  0.2827  0.0652
  754W        W 2954   8.907   3.082  25.569  0.1079 -0.1883 -0.0268
  755W        W 2955  14.295   7.271  30.264  0.1400 -0.2888 -0.0815
  756W        W 2956   2.675   3.224   9.658  0.0279  0.2320 -0.3002
  757W        W 2957  12.697   4.618   4.310 -0.0200  0.0986 -0.1089
  758W        W 2958  11.148   3.693  12.508 -0.0105 -0.3086  0.1189
  759W        W 2959  21.837   1.393  15.620 -0.1890  0.2814  0.1888
  760W        W 2960  16.414   1.829  26.901 -0.0035 -0.1476  0.2052
  761W        W 2961   5.859   1.921   1.386  0.3043 -0.2118 -0.0642
  762W        W 2962  10.166   2.107  11.481  0.0880  0.1843  0.0586
  763W        W 2963   8.140   3.846  24.522  0.0403 -0.4212 -0.3467
  764W        W 2964  20.471   2.399   6.840  0.0446  0.0421 -0.0667
  765W        W 2965  21.910   1.837   3.961  0.1856 -0.0389  0.0275
  766W        W 2966  10.008   1.809  28.875 -0.1123 -0.1442  0.1613
  767W        W 2967  11.640   1.442  31.953  0.3240  0.5362 -0.1193
  768W        W 2968  13.603   1.466  25.405 -0.0062 -0.0939  0.3175
  769W        W 2969  15.528   4.736  25.346  0.1948  0.1129  0.1269
  770W        W 2970  16.049   2.706  20.755 -0.2365 -0.0312 -0.0014
  771W        W 2971  16.779   7.359   3.245  0.0502 -0.1216  0.3725
  772W        W 2972  14.359   5.301  26.099 -0.4027 -0.0342 -0.0503
  773W        W 2973  16.853   2.936  19.187  0.2744 -0.2603 -0.1608
  774W        W 2974   2.089   1.185  32.376  0.0176 -0.3579 -0.0197
  775W        W 2975   4.644   3.697  11.843 -0.0954  0.0567 -0.0717
  776W        W 2976   6.588   4.238   6.949  0.4034  0.0205 -0.2155
  777W        W 2977  17.708   5.344  27.645  0.2263 -0.1626  0.0037
  778W        W 2978  15.917   5.506   3.117  0.0089  0.0280 -0.2573
  779W        W 2979   2.878   5.555  24.486  0.1160 -0.3115 -0.0452
  780W        W 2980  24.987   0.896  25.661  0.0203 -0.0923  0.1724
  781W        W 2981  17.374   4.383  25.504  0.1536  0.5524  0.0486
  782W        W 2982  11.067   1.116  14.229 -0.0742 -0.1732 -0.0901
  783W        W 2983  18.331   5.761   9.587 -0.0487  0.0246 -0.2539
  784W        W 2984  21.180   1.894  27.560  0.1515 -0.3855 -0.2223
  785W        W 2985  13.604   1.075  25.057  0.0191  0.2310  0.0017
  786W        W 2986  10.473   5.027   4.351  0.2822  0.0474 -0.1250
  787W        W 2987   7.448   3.865  12.861 -0.0184 -0.2933 -0.0486
  788W        W 2988   7.076   4.007   5.455 -0.0812  0.1450  0.2753
  789W        W 2989  16.217   6.476   9.039 -0.2850  0.1200 -0.1171
  790W        W 2990  17.195   7.813  30.194 -0.2072  0.0675 -0.1437
  791W        W 2991   3.692   5.906   4.708 -0.1794  0.1062  0.0218
  792W        W 2992   5.445   7.609  28.081 -0.0456 -0.0282  0.0582
  793W        W 2993  14.535   7.257  12.343  0.1482  0.1766 -0.1147
  794W        W 2994  13.073   0.466  14.420 -0.1892  0.1300 -0.0116
  795W        W 2995   5.309   1.509  32.190 -0.3327 -0.0926  0.0511
  796W        W 2996   1.571   4.097  32.415  0.0435 -0.1220 -0.0575
  797W        W 2997  16.131   3.516   5.080  0.0708 -0.1840  0.0536
  798W        W 2998  20.578   6.809   1.453  0.2051  0.1984  0.0577
  799W        W 2999   9.750   3.100   1.239 -0.1114  0.2057  0.1740
  800W        W 3000  11.547   1.971   3.597  0.0702 -0.1220  0.2746
  801W        W 3001  19.021   5.770  31.661  0.5432 -0.0346  0.2103
  802W        W 3002   9.067   6.263   2.043  0.1061  0.1504  0.1206
  803W        W 3003  18.348   3.820  23.332 -0.0143  0.0419 -0.1221
  804W        W 3004  23.719   1.082   2.956 -0.0133  0.0694 -0.2506
  805W        W 3005   1.929   2.513   9.762  0.0028 -0.2695  0.2239
  806W        W 3006   6.002   5.633  18.351  0.0765 -0.0647 -0.0303
  807W        W 3007   3.633   6.458   8.211 -0.1803 -0.0254 -0.1099
  808W        W 3008  23.339   6.564  20.764 -0.0121 -0.1457  0.0965
  809W        W 3009  11.005   3.933  25.455  0.0899  0.0113  0.0862
  810W        W 3010   8.888   3.845   3.981  0.1882  0.1149  0.0277
  811W        W 3011   9.335   6.221   6.552 -0.1499 -0.2014 -0.2973
  812W        W 3012  12.487   4.263   2.578  0.0040  0.0937 -0.1994
  813W        W 3013  22.871   6.511  29.584  0.1716  0.1201  0.1164
  814W        W 3014  14.921   2.994  11.314  0.0651 -0.0618  0.4209
  815W        W 3015   0.156   1.857   3.753 -0.1822  0.0410  0.0957
  816W        W 3016  11.183   5.735  25.780  0.1389  0.0228 -0.1076
  817W        W 3017  10.100   6.982   9.919  0.0711  0.0155 -0.2688
  818W        W 3018  14.739   0.714  26.541  0.0494 -0.0992 -0.1982
  819W        W 3019   9.695   4.442  16.860  0.1024  0.0425  0.0673
  820W        W 3020   6.062   5.320  12.829  0.0044  0.1329  0.1823
  821W        W 3021   9.688   2.233  15.553 -0.1342  0.4346 -0.2383
  822W        W 3022  13.300   5.330  13.995  0.1274  0.1351 -0.4448
  823W        W 3023   5.474   6.548   1.258 -0.1238 -0.2611 -0.3016
  824W        W 3024   8.976   4.893  27.523 -0.2039 -0.3323  0.1761
  825W        W 3025   7.319   6.240   2.336 -0.0109 -0.0322 -0.4297
  826W        W 3026   4.689   6.129   2.080  0.1796 -0.1866  0.1243
  827W        W 3027  15.033   2.515  30.990  0.0266  0.1205  0.0532
  828W        W 3028   0.981   7.051  19.400  0.1710 -0.1968  0.2069
  829W        W 3029  20.088   4.852  24.153 -0.0966  0.1913  0.0552
  830W        W 3030   8.193   1.862   9.997  0.0905 -0.0076 -0.3150
  831W        W 3031   4.701   7.468  15.540 -0.0114 -0.2150  0.1109
  832W        W 3032  16.098   3.302  11.282  0.1414 -0.1084 -0.2414
  833W        W 3033  24.485   1.743   1.065  0.1417 -0.0236 -0.0996
  834W        W 3034  20.778   5.239  25.163  0.2685 -0.0304  0.1179
  835W        W 3035  22.427   7.135  14.705 -0.2766  0.1007  0.0102
  836W        W 3036   2.723   0.436   4.206 -0.0076  0.0247 -0.3713
  837W        W 3037  20.117   4.627  32.109 -0.0154  0.3554 -0.0118
  838W        W 3038   4.878   3.943  24.259  0.0198  0.0848  0.0545
  839W        W 3039   0.278   4.047   5.820  0.1556 -0.3307 -0.1475
  840W        W 3040  19.989   6.528   8.294 -0.0535  0.0935  0.2359
  841W        W 3041   8.841   1.559  16.261 -0.2198  0.0987 -0.3848
  842W        W 3042   8.887   5.762   2.518 -0.1975  0.0550  0.1066
  843W        W 3043  16.599   1.733   5.991  0.0037  0.1135 -0.0621
  844W        W 3044  11.654   3.192   6.401 -0.3627  0.0825  0.3841
  845W        W 3045   6.188   0.272   4.682 -0.0359  0.0936 -0.0323
  846W        W 3046  18.037   6.354  24.245 -0.1399  0.1196  0.0194
  847W        W 3047  18.606   1.115   2.867 -0.1086  0.2504  0.1229
  848W        W 3048  18.077   5.918   5.055 -0.0574  0.0082  0.1446
  849W        W 3049  18.179   5.571  28.798  0.0442  0.1965  0.3537
  850W        W 3050   7.086   2.648  13.390 -0.2555 -0.1392  0.1461
  851W        W 3051  12.666   2.502   9.804 -0.2261 -0.0301 -0.0894
  852W        W 3052   8.200   2.385  31.536  0.1818  0.0549 -0.1488
  853W        W 3053  23.009   4.286  16.698  0.2098 -0.2700 -0.0416
  854W        W 3054   3.508   1.228  23.368  0.1359  0.4247 -0.0771
  855W        W 3055   8.617   6.136  15.374 -0.0199 -0.1405  0.0717
  856W        W 3056   6.192   3.262   0.574  0.0145 -0.1683 -0.3423
  857W        W 3057  10.865   2.865  23.184  0.1355 -0.0258 -0.1845
  858W        W 3058  23.699   0.742  18.785 -0.1106 -0.0054  0.4512
  859W        W 3059  10.511   0.708  28.753 -0.3353 -0.0327 -0.1183
  860W        W 3060  21.490   2.432  19.824 -0.2430 -0.2100  0.1821
  861W        W 3061  16.132   6.624  19.131 -0.2062 -0.1134  0.1114
  862W        W 3062   1.709   0.389  30.501  0.0826 -0.0252  0.1501
  863W        W 3063  13.284   3.363   9.887 -0.2645  0.1356 -0.0014
  864W        W 3064  22.190   5.186   1.366  0.1657 -0.1486 -0.0449
  865W        W 3065  23.369   2.869  27.522 -0.0434 -0.1889 -0.3457
  866W        W 3066  14.436   0.307  19.641 -0.1609 -0.2344  0.0890
  867W        W 3067  21.864   2.482   4.416  0.2845 -0.0562 -0.0270
  868W        W 3068  23.889   4.368   1.960 -0.4041 -0.2317  0.0545
  869W        W 3069  20.535   4.532   7.321 -0.1065  0.0573 -0.1054
  870W        W 3070  10.977   6.650  25.783 -0.0159 -0.0942  0.1109
  871W        W 3071   4.025   6.207  29.449  0.2859 -0.1655 -0.2145
  872W        W 3072  17.592   3.474  10.164  0.0159  0.1459  0.0428
  873W        W 3073  23.570   3.428  26.404 -0.0856  0.0209 -0.1804
  874W        W 3074   8.484   5.216  15.111  0.1308 -0.4250 -0.1899
  875W        W 3075   7.208   1.775   5.007 -0.1235  0.1799 -0.2005
  876W        W 3076  23.525   3.882  31.589 -0.2567  0.1547  0.1569
  877W        W 3077   1.837   2.565  17.644  0.1067 -0.0315 -0.2098
  878W        W 3078   4.954   5.724  13.350  0.3772 -0.0581  0.1800
  879W        W 3079  15.996   5.856  30.167  0.3151  0.3670 -0.1591
  880W        W 3080   0.018   4.540  27.593 -0.1226 -0.2123 -0.0330
  881W        W 3081   2.449   2.030  11.045 -0.2034 -0.0405 -0.0253
  882W        W 3082  10.046   0.678  28.041 -0.1234  0.2405  0.0487
  883W        W 3083  16.602   0.274  18.174 -0.1289 -0.1076 -0.1958
  884W        W 3084   3.750   2.895   0.979 -0.2026 -0.1518  0.0654
  885W        W 3085  20.476   5.346  14.858  0.1042 -0.0636 -0.1743
  886W        W 3086   2.372   5.392  21.714  0.2553 -0.0907 -0.1089
  887W        W 3087   0.166   0.201  24.331  0.1905  0.0694  0.2022
  888W        W 3088   5.399   5.539  24.265  0.0960  0.0818  0.4007
  889W        W 3089  22.416   7.496  17.681  0.3488  0.1194 -0.1155
  890W        W 3090  22.750   2.433   4.010  0.2429 -0.3256 -0.1034
  891W        W 3091   4.830   6.515  10.343  0.0712  0.1462 -0.4043
  892W        W 3092  20.698   5.434   1.765 -0.0421 -0.1299  0.1353
  893W        W 3093  21.642   0.266  24.780  0.1107  0.0305  0.0082
  894W        W 3094  17.269   0.830  26.455 -0.0764  0.3409 -0.1069
  895W        W 3095   0.835   6.038  31.792 -0.1304  0.2085  0.1448
  896W        W 3096   4.813   1.906   8.259  0.1214 -0.1567  0.1584
  897W        W 3097   4.604   3.961  31.603  0.3485  0.2045  0.1677
  898W        W 3098  21.088   2.659  23.779  0.0968 -0.1023 -0.0924
  899W        W 3099   4.203   1.027   1.418 -0.1589 -0.0069 -0.2029
  900W        W 3100  16.183   6.989  31.736  0.0912 -0.0294 -0.0459
  901W        W 3101   1.545   0.893  25.863 -0.0252 -0.1526 -0.0928
  902W        W 3102  20.524   5.212  21.744  0.0217  0.2011  0.3323
  903W        W 3103  13.077   1.206  24.084  0.1052  0.2068  0.0320
  904W        W 3104  14.011   0.198  22.324  0.1317  0.2478  0.1310
  905W        W 3105  18.309   4.258  16.903  0.0590  0.0658 -0.2934
  906W        W 3106   6.835   2.280   8.482  0.1900  0.0041  0.3104
  907W        W 3107  12.946   2.380  30.241  0.1780  0.0688  0.1759
  908W        W 3108  16.020   4.544  22.396 -0.0699  0.0615  0.0593
  909W        W 3109  22.881   7.700  23.250  0.1762 -0.1233 -0.0034
  910W        W 3110   8.809   0.948   2.547 -0.0708  0.2834 -0.1845
  911W        W 3111   7.468   0.795  30.490 -0.0653  0.1858  0.2140
  912W        W 3112  12.198   5.285  24.086 -0.0481  0.0173  0.0729
  913W        W 3113  17.024   3.484  27.801 -0.1926 -0.0881  0.0585
  914W        W 3114  13.067   6.577  10.815  0.1710  0.2389 -0.0978
  915W        W 3115  23.364   7.095  20.421  0.1320  0.0681 -0.4631
  916W        W 3116  18.497   6.258  21.546  0.0956  0.2652 -0.0815
  917W        W 3117   8.118   7.128   4.945  0.3571 -0.0631 -0.0183
  918W        W 3118   3.497   4.676  13.227 -0.0553  0.0843  0.1228
  919W        W 3119  23.937   0.873  31.183 -0.0101 -0.0802  0.1064
  920W        W 3120  20.085   6.818   7.834  0.1797 -0.2150  0.3498
  921W        W 3121  11.660   6.636  23.656 -0.2290 -0.0499  0.2154
  922W        W 3122  15.269   6.654  30.563  0.4054 -0.2217  0.0166
  923W        W 3123   9.491   5.924  25.468 -0.0112 -0.2151 -0.2548
  924W        W 3124  12.961   7.653  12.218  0.2172  0.0163 -0.1511
  925W        W 3125  25.016   1.018   0.263  0.0873  0.4603  0.0244
  926W        W 3126   2.901   7.187  20.841 -0.1390  0.3531 -0.0467
  927W        W 3127   2.465   2.239  12.583  0.2973 -0.0586 -0.1893
  928W        W 3128  23.372   1.711   8.216  0.0392  0.1739  0.1139
  929W        W 3129   6.846   3.249   4.423  0.0377  0.3100 -0.1170
  930W        W 3130  11.882   0.405  25.919  0.1206 -0.0067 -0.2364
  931W        W 3131  10.151   6.735  24.505  0.1112 -0.1404  0.0201
  932W        W 3132   2.191   0.898   6.953  0.0045 -0.0255  0.0668
  933W        W 3133  24.447   5.082  23.655 -0.1522 -0.1567  0.0332
  934W        W 3134   4.924   2.509  29.764 -0.1871  0.3988  0.0071
  935W        W 3135  11.051   2.065  29.742  0.1558  0.1307 -0.0155
  936W        W 3136   8.856   4.626  12.427 -0.0932 -0.0016 -0.1108
  937W        W 3137  21.365   5.443   1.222  0.0598  0.1687 -0.0350
  938W        W 3138  12.871   1.773  25.407 -0.3686  0.1460  0.2084
  939W        W 3139  11.782   4.482   5.871  0.2913  0.0350  0.1310
  940W        W 3140   7.622   4.341   7.283  0.2227  0.1015  0.0407
  941W        W 3141   1.296   5.225  22.112 -0.2533  0.1057  0.2536
  942W        W 3142   0.793   6.065  22.095 -0.2995  0.0970  0.2749
  943W        W 3143   7.240   3.919  23.857 -0.1506  0.2650 -0.2282
  944W        W 3144  11.581   6.285  16.360 -0.1748  0.0358 -0.1663
  945W        W 3145   5.659   6.440  23.154  0.0814  0.0897  0.2200
  946W        W 3146  24.382   3.103   9.012 -0.0792 -0.2000 -0.1494
  947W        W 3147  13.284   2.767  10.561 -0.0951 -0.2078  0.1352
  948W        W 3148  11.772   0.869   9.967 -0.0668  0.0216  0.1845
  949W        W 3149  18.782   2.449   0.130  0.3555 -0.1737  0.3248
  950W        W 3150   2.247   4.068  24.869  0.1025  0.0709  0.1361
  951W        W 3151  20.125   5.201  17.990  0.0859  0.0038  0.0556
  952W        W 3152   7.021   3.766   8.668 -0.1040 -0.0987 -0.0156
  953W        W 3153  18.713   2.156  17.396 -0.0295 -0.2842 -0.0276
  954W        W 3154  17.586   1.431   8.721 -0.0024  0.2089  0.0194
  955W        W 3155  13.470   7.178   4.232  0.0611 -0.1369  0.0387
  956W        W 3156   4.386   5.555  27.976 -0.1066 -0.1529 -0.2303
  957W        W 3157  12.223   7.510   4.160  0.1030 -0.2191 -0.0115
  958W        W 3158  17.422   6.325   1.723 -0.0593  0.2017  0.0033
  959W        W 3159   9.881   3.737   8.198  0.0200  0.2758 -0.1405
  960W        W 3160  18.088   1.337   9.253 -0.1890 -0.0158  0.2031
  961W        W 3161  11.713   6.807  10.308 -0.0996  0.1261 -0.0345
  962W        W 3162  11.292   5.411  24.898  0.0717  0.2388 -0.4584
  963W        W 3163  17.795   0.620   5.737 -0.0419  0.2264 -0.0693
  964W        W 3164  20.339   6.703  15.903 -0.1786  0.1567  0.1677
  965W        W 3165   5.112   6.844   6.811 -0.1592 -0.1566  0.0450
  966W        W 3166  22.543   3.856  24.130 -0.2508  0.2041  0.2010
  967W        W 3167   3.126   6.653   5.974  0.2463  0.0870  0.1168
  968W        W 3168   5.371   5.673  15.962 -0.0337 -0.1224  0.1639
  969W        W 3169   1.342   4.658  11.986 -0.0872 -0.2996 -0.2279
  970W        W 3170   4.457   0.459   5.671 -0.4466  0.1852 -0.2368
  971W        W 3171   0.538   1.993  27.917  0.1357 -0.2712  0.3568
  972W        W 3172   4.555   4.128   7.222 -0.0358 -0.2508  0.0300
  973W        W 3173   0.221   5.869   9.822 -0.2398 -0.1567  0.2522
  974W        W 3174  17.668   5.178  15.821 -0.0998  0.1224  0.0912
  975W        W 3175  19.723   0.337   4.684  0.1869 -0.3177 -0.2071
  976W        W 3176  15.102   6.280   9.994  0.2531 -0.0534  0.3678
  977W        W 3177  11.097   5.942   1.837  0.0190  0.1904 -0.2636
  978W        W 3178  20.233   1.179  14.906 -0.0165 -0.0457 -0.6643
  979W        W 3179  20.388   6.612  23.852 -0.3287  0.1695 -0.0244
  980W        W 3180  19.401   1.204  31.737  0.0191  0.1546  0.0979
  981W        W 3181  18.258   5.624  20.975 -0.1448  0.2464 -0.1781
  982W        W 3182  22.127   7.597   6.731 -0.1333  0.1093  0.0309
  983W        W 3183  15.323   4.857  21.600 -0.5497  0.1129  0.1728
  984W        W 3184  23.004   2.150   6.193 -0.1296 -0.0954  0.1556
  985W        W 3185   7.724   2.116   7.933  0.1639  0.0026  0.1286
  986W        W 3186   5.887   2.749  29.907 -0.2013 -0.1148  0.0757
  987W        W 3187  11.408   4.820  11.411  0.3426  0.2396  0.0976
  988W        W 3188  15.869   2.124   2.669 -0.0292  0.0668  0.2077
  989W        W 3189  24.469   4.950  21.226 -0.1302  0.2827 -0.1307
  990W        W 3190  22.574   0.621  24.444 -0.0581  0.0857  0.1657
  991W        W 3191   3.373   4.103  31.885  0.1846  0.0757 -0.0741
  992W        W 3192  20.906   0.890  31.716 -0.1252 -0.0438  0.1799
  993W        W 3193  23.509   3.905  29.314 -0.0075 -0.3213  0.0837
  994W        W 3194  14.567   5.076   3.692  0.3256  0.2275 -0.3114
  995W        W 3195   5.835   6.435  17.998 -0.1480 -0.1778 -0.0083
  996W        W 3196   3.964   5.163  15.006 -0.0590  0.0375  0.1804
  997W        W 3197   7.218   4.557   7.950  0.1484  0.2151 -0.0864
  998W        W 3198  21.804   6.858  19.744 -0.2921  0.0358  0.1495
  999W        W 3199  19.669   4.093  17.104 -0.0223  0.3016  0.1694
 1000W        W 3200  21.112   5.679  17.103  0.1376 -0.0698 -0.4252
 1001W        W 3201  21.700   7.739  18.452  0.1816  0.1141 -0.0745
 1002W        W 3202  17.429   7.172  32.073  0.0180 -0.2520 -0.1502
 1003W        W 3203   0.648   7.418   5.033  0.0782  0.0753 -0.0075
 1004W        W 3204  21.654   1.236  30.120 -0.0961 -0.0357 -0.2835
 1005W        W 3205   4.511   4.633   7.406 -0.0572 -0.0757  0.0891
 1006W        W 3206  12.634   1.171   2.915 -0.1537  0.2201  0.0494
 1007W        W 3207   5.133   0.909  28.763 -0.1079  0.1078  0.0615
 1008W        W 3208   9.912   3.404  12.821  0.4316 -0.0683  0.1194
 1009W        W 3209  18.530   3.796  16.840  0.0130 -0.0359 -0.3682
 1010W        W 3210  14.525   0.267  23.811  0.3162  0.0885  0.1558
 1011W        W 3211  11.547   4.112   9.655  0.1715  0.2258 -0.0135
 1012W        W 3212  24.744   1.257   4.257 -0.5333  0.0730  0.3770
 1013W        W 3213  24.777   2.138   4.694 -0.0988 -0.0638  0.1896
 1014W        W 3214  10.826   3.581  29.785 -0.2549 -0.0882 -0.0640
 1015W        W 3215   9.520   1.797  30.878  0.0759 -0.2908 -0.0840
 1016W        W 3216  17.202   5.395  20.514 -0.3081  0.2390  0.2518
 1017W        W 3217  11.894   1.711  25.120 -0.2898 -0.0967  0.0588
 1018W        W 3218  22.688   5.019  27.931  0.1030  0.1624 -0.1474
 1019W        W 3219  17.898   4.126  16.421  0.1217 -0.0214 -0.0654
 1020W        W 3220  17.959   7.503  20.700 -0.0545  0.0534 -0.0186
 1021W        W 3221   3.348   5.164   8.184  0.1180  0.3743 -0.3230
 1022W        W 3222  23.881   0.159   5.766  0.1857  0.0549  0.1362
 1023W        W 3223  13.764   6.905  26.773  0.2664 -0.1878  0.0336
 1024W        W 3224  13.299   1.738  11.973  0.2017 -0.5259  0.0944
 1025W        W 3225   4.585   3.221  32.124 -0.1941  0.3516 -0.1091
 1026W        W 3226  16.629   3.541   6.483 -0.0802  0.1669  0.1878
 1027W        W 3227  22.647   5.630  15.893 -0.0168  0.3067  0.0922
 1028W        W 3228   4.097   6.472  27.647 -0.1678  0.1399  0.1632
 1029W        W 3229   9.833   0.026  31.810 -0.0702 -0.0508  0.4667
 1030W        W 3230  19.976   4.404   6.027  0.1042 -0.1472  0.1643
 1031W        W 3231   9.508   7.809   4.349  0.0657 -0.0013  0.1658
 1032W        W 3232   4.136   7.430  27.903  0.1917 -0.1352  0.0454
 1033W        W 3233  22.496   0.319   0.747 -0.1181 -0.0813 -0.2043
 1034W        W 3234  12.701   3.883  32.537  0.1538  0.0330 -0.0001
 1035W        W 3235  21.285   6.936   4.040  0.1894 -0.1195 -0.1969
 1036W        W 3236   0.192   7.167   9.859 -0.0685  0.0828 -0.0598
 1037W        W 3237  19.501   7.451   8.148 -0.2276 -0.1437  0.2023
 1038W        W 3238  19.733   4.921  18.149 -0.1696 -0.1887  0.0644
 1039W        W 3239  20.482   6.580   8.058  0.1191  0.2686  0.3058
 1040W        W 3240   8.793   3.988  18.375  0.2269  0.1792  0.5024
 1041W        W 3241  17.629   0.364   2.632 -0.0537  0.0897 -0.2138
 1042W        W 3242  13.985   6.890  32.328 -0.4252 -0.2175  0.2632
 1043W        W 3243   8.927   7.752  28.440  0.2235  0.0848  0.0256
 1044W        W 3244   9.503   5.044  13.985 -0.1024 -0.1013 -0.3232
 1045W        W 3245   3.545   2.822  28.939 -0.1439 -0.1766 -0.1893
 1046W        W 3246  14.957   3.527   0.933  0.1131  0.0103  0.0767
 1047W        W 3247  11.329   0.605  28.857 -0.3104  0.3489  0.0314
 1048W        W 3248  11.449   2.084  14.090  0.0696 -0.5102 -0.1219
 1049W        W 3249   1.051   4.111   5.431 -0.0550  0.0372 -0.1367
 1050W        W 3250   2.636   4.082  10.379 -0.0983  0.1633 -0.2820
 1051W        W 3251   1.958   2.843  24.268  0.0746  0.0429 -0.0293
 1052W        W 3252  21.616   3.631   4.934  0.3563 -0.0238  0.2591
 1053W        W 3253   6.039   3.458  16.414  0.0830  0.1213 -0.0515
 1054W        W 3254  22.744   5.343  15.146  0.0491  0.2891  0.3039
 1055W        W 3255  11.921   1.900   8.195 -0.3276  0.3120  0.2146
 1056W        W 3256   8.185   0.561  31.839 -0.0329  0.2320  0.0967
 1057W        W 3257  24.586   0.885  17.631 -0.1701  0.4967  0.1567
 1058W        W 3258  14.956   2.598   1.337  0.1130  0.2271 -0.3264
 1059W        W 3259  24.112   5.547  23.587 -0.2475 -0.0460 -0.1191
 1060W        W 3260  17.622   7.330  19.136  0.1530  0.1874  0.0431
 1061W        W 3261   6.143   5.805  13.605 -0.1859  0.1883  0.0969
 1062W        W 3262   8.676   6.047  23.403 -0.2299 -0.0065  0.2223
 1063W        W 3263  22.262   2.863   1.387 -0.1692  0.0794 -0.0998
 1064W        W 3264  16.351   1.513   5.496  0.0054  0.2804  0.1168
 1065W        W 3265   7.000   4.196  25.406  0.1781  0.0159 -0.0468
 1066W        W 3266  13.871   0.184  13.638 -0.0106 -0.1409 -0.0075
 1067W        W 3267  12.082   1.445  26.893 -0.0231  0.1598 -0.1330
 1068W        W 3268   7.413   2.037  28.172 -0.1256 -0.0278 -0.0129
 1069W        W 3269  16.417   1.310  27.816  0.3274  0.3610 -0.1682
 1070W        W 3270   2.264   2.292  23.523 -0.0432  0.1623 -0.1505
 1071W        W 3271  24.922   2.807  30.527 -0.1592 -0.0259  0.4642
 1072W        W 3272  13.453   1.042  26.751  0.2509  0.0114  0.1470
 1073W        W 3273  20.921   3.967  30.440 -0.0314 -0.0844  0.2287
 1074W        W 3274  11.122   2.625  10.722 -0.2036 -0.1019 -0.2387
 1075W        W 3275  20.088   0.141  27.954  0.1938 -0.1334  0.1527
 1076W        W 3276  14.110   6.360   2.410  0.2875 -0.0459  0.0534
 1077W        W 3277  24.464   1.070   0.269 -0.0168 -0.1628  0.1118
 1078W        W 3278   5.190   5.095   9.015 -0.0494 -0.0200  0.1524
 1079W        W 3279  10.747   0.962   1.366 -0.1616 -0.1116 -0.1423
 1080W        W 3280  13.338   0.983  25.581 -0.2506  0.0249 -0.0788
 1081W        W 3281   8.509   0.389  23.720  0.0401  0.1749 -0.0414
 1082W        W 3282  11.600   4.270   2.055  0.2428 -0.0237  0.3268
 1083W        W 3283   4.231   3.561  23.831  0.0052  0.2109 -0.1932
 1084W        W 3284  10.122   2.371  27.038 -0.2321 -0.0828 -0.0048
 1085W        W 3285   7.119   6.794  10.155 -0.2688  0.0539 -0.0579
 1086W        W 3286   4.113   4.653  15.272 -0.1393  0.0369 -0.2150
 1087W        W 3287  17.549   2.234  24.239 -0.2060 -0.1525  0.2443
 1088W        W 3288   2.786   4.328   3.970 -0.1066  0.0351 -0.0201
 1089W        W 3289  12.574   6.956  26.758 -0.2736  0.0349 -0.2998
 1090W        W 3290   9.011   6.938  27.835  0.1146  0.2571 -0.1217
 1091W        W 3291  17.511   2.680  32.480 -0.1961 -0.2264  0.0369
 1092W        W 3292   1.396   2.066  22.257  0.2488  0.0154  0.2871
 1093W        W 3293  17.830   4.664  19.100 -0.1311 -0.3142 -0.1654
 1094W        W 3294  22.528   2.807  10.021 -0.0978 -0.3301  0.0534
 1095W        W 3295  22.787   5.846  14.923 -0.0086 -0.4418  0.0205
 1096W        W 3296   8.229   0.182  11.192 -0.2477 -0.1872  0.1833
 1097W        W 3297  14.783   3.877   5.653 -0.0259 -0.4105 -0.0165
 1098W        W 3298  21.232   2.051   5.029  0.3378 -0.5096  0.3339
 1099W        W 3299   0.097   7.152  22.192  0.1116 -0.2440  0.1259
 1100W        W 3300  13.830   3.609  28.450 -0.1231  0.0029 -0.1828
 1101W        W 3301  11.032   1.233  11.217 -0.0164 -0.0302 -0.2156
 1102W        W 3302  15.932   7.184  11.362 -0.1502  0.0593  0.1289
 1103W        W 3303  13.153   6.822   5.717 -0.0323  0.0825 -0.1255
 1104W        W 3304   2.709   1.881   9.686  0.0452  0.0477 -0.2786
 1105W        W 3305  23.736   1.240  19.509 -0.0572 -0.1037  0.0752
 1106W        W 3306  22.133   2.081  31.287 -0.1815  0.0776 -0.0982
 1107W        W 3307   4.605   5.607   4.070  0.0685 -0.2660 -0.0699
 1108W        W 3308  14.613   4.263  13.157 -0.0532  0.2712 -0.3016
 1109W        W 3309  13.054   0.360  29.369  0.1703  0.0260  0.1015
 1110W        W 3310   9.984   4.594  10.824  0.1216  0.2233 -0.0362
 1111W        W 3311  22.289   2.752  17.737  0.3098 -0.1629 -0.2828
 1112W        W 3312   3.574   0.275  28.445  0.1395  0.0230 -0.0353
 1113W        W 3313   5.513   6.209   4.861 -0.1386 -0.1561 -0.0373
 1114W        W 3314   4.992   2.905  15.018 -0.2983  0.0396  0.2322
 1115W        W 3315  17.006   1.550   9.613 -0.2926 -0.2628 -0.1032
 1116W        W 3316   7.582   0.769  24.625  0.1058  0.2318 -0.0750
 1117W        W 3317   9.823   1.491  12.522  0.0897 -0.1868  0.0326
 1118W        W 3318  22.523   6.250  15.205  0.0124  0.1058  0.1586
 1119W        W 3319  10.462   0.570  15.359 -0.1814 -0.1204 -0.0604
 1120W        W 3320  20.130   5.033   1.854  0.1357  0.2296 -0.0462
 1121W        W 3321  15.161   3.129  29.236  0.0526 -0.1371 -0.2988
 1122W        W 3322  21.071   6.667  14.860 -0.2422  0.0608  0.0831
 1123W        W 3323  11.128   2.109  11.055  0.2835 -0.0624  0.0137
 1124W        W 3324   3.797   7.706   3.705 -0.0444 -0.0966 -0.3449
 1125W        W 3325   1.756   4.361  18.782  0.1370 -0.1634 -0.2427
 1126W        W 3326   9.209   3.113   2.035  0.2793 -0.0309  0.2955
 1127W        W 3327  23.557   5.898  10.081 -0.2705 -0.0184  0.1109
 1128W        W 3328   8.311   0.196  28.090 -0.0175 -0.1254  0.1957
 1129W        W 3329  20.946   4.154   4.660  0.1249 -0.1189 -0.0101
 1130W        W 3330   0.398   5.622  15.853 -0.1218  0.0487 -0.1520
 1131W        W 3331   8.261   6.663   0.365  0.0281 -0.1639  0.0802
 1132W        W 3332  10.653   7.221  30.903 -0.1904 -0.0810 -0.0668
 1133W        W 3333   7.713   3.414  29.611  0.0312  0.5067  0.0303
 1134W        W 3334   7.766   2.653  28.176  0.0727 -0.1657  0.0567
 1135W        W 3335   4.442   3.743  24.381  0.2866  0.0588  0.0045
 1136W        W 3336  13.942   6.369  32.350 -0.1059  0.0321  0.1788
 1137W        W 3337   8.439   7.725   7.610 -0.2843 -0.0425  0.0011
 1138W        W 3338  20.561   7.739  16.911 -0.1928  0.1943 -0.1863
 1139W        W 3339   5.601   2.097  16.002 -0.2261  0.1008 -0.0592
 1140W        W 3340   1.834   6.668  30.891  0.0923 -0.0693 -0.2612
 1141W        W 3341  12.616   6.375   5.643  0.0969 -0.1694  0.1303
 1142W        W 3342  20.211   2.048  26.682 -0.0280  0.0268 -0.0467
 1143W        W 3343  19.900   6.357  17.586 -0.0614 -0.1195 -0.1156
 1144W        W 3344  24.762   6.173   2.356  0.0961 -0.1410 -0.2190
 1145W        W 3345  24.249   0.655  20.772  0.0634 -0.0002 -0.0654
 1146W        W 3346  11.590   6.935   1.197 -0.1916  0.0711  0.1607
 1147W        W 3347  17.524   7.641  16.570 -0.0508  0.0269  0.2546
 1148W        W 3348   7.510   2.813  25.914 -0.3300  0.1397  0.1850
 1149W        W 3349   2.224   6.351  21.983  0.0829 -0.3612 -0.0638
 1150W        W 3350  19.515   2.030  15.011  0.0268  0.1813  0.2902
 1151W        W 3351  24.102   4.902  10.509 -0.4159  0.2868 -0.3562
 1152W        W 3352  23.719   2.975  14.909  0.3357 -0.0471 -0.0866
 1153W        W 3353  11.411   2.692   0.595  0.0488 -0.0131 -0.3557
 1154W        W 3354  10.172   0.179  10.725 -0.2591 -0.1240  0.1437
 1155W        W 3355  17.875   5.524  17.981 -0.2056  0.0582  0.0166
 1156W        W 3356   3.941   5.616   1.935 -0.0251  0.0957 -0.1974
 1157W        W 3357   1.002   0.055  28.512  0.0358 -0.0371 -0.1163
 1158W        W 3358  15.864   7.823  27.388  0.1790  0.4833  0.1263
 1159W        W 3359   0.883   0.024   0.837  0.0399  0.1770 -0.1500
 1160W        W 3360  18.188   3.345  20.578  0.1556  0.0230  0.3609
 1161W        W 3361  24.546   3.541  25.563  0.3594  0.1978  0.0716
 1162W        W 3362  20.724   0.430  20.134 -0.0172 -0.2083  0.2707
 1163W        W 3363  21.874   0.187  25.963  0.0408 -0.0098 -0.1340
 1164W        W 3364  12.199   3.153   6.223  0.3032  0.2099  0.0700
 1165W        W 3365  17.264   3.008  20.202 -0.0739 -0.1581  0.0743
 1166W        W 3366   0.495   4.931  10.969 -0.1794  0.0911 -0.0499
 1167W        W 3367   1.054   3.085  20.090  0.1260  0.0307 -0.0446
 1168W        W 3368  16.898   3.540  31.213 -0.3191  0.0885  0.2423
 1169W        W 3369  16.700   1.963  30.670  0.1391 -0.4854  0.2561
 1170W        W 3370   1.318   4.357  27.725 -0.3246 -0.1918 -0.0510
 1171W        W 3371  19.754   6.823   7.009  0.0611  0.5050 -0.0249
 1172W        W 3372  11.595   0.345  13.311  0.1333  0.0691 -0.0657
 1173W        W 3373  13.646   7.348  10.556 -0.0358  0.0673 -0.0288
 1174W        W 3374  20.870   5.104   9.887 -0.1933  0.3474 -0.2463
 1175W        W 3375  17.559   7.612  28.460 -0.4389 -0.0775 -0.2931
 1176W        W 3376  21.943   0.661  29.934  0.1719  0.2182 -0.0606
 1177W        W 3377   2.194   3.387   8.890  0.0463 -0.1448 -0.1712
 1178W        W 3378   9.034   1.351  25.555 -0.1641  0.0977 -0.1750
 1179W        W 3379  19.285   5.000   0.428  0.0815 -0.2751  0.2367
 1180W        W 3380  20.736   6.633  29.940  0.0390 -0.0626  0.0978
 1181W        W 3381  12.658   4.539  15.868 -0.1258  0.1163  0.1521
 1182W        W 3382  20.685   1.789  27.370  0.3130  0.1464 -0.4207
 1183W        W 3383   4.993   2.845   7.167  0.1321 -0.3383  0.1302
 1184W        W 3384  16.337   1.696  10.223  0.2069 -0.2858  0.0099
 1185W        W 3385  15.745   6.484  26.818  0.1587  0.2505 -0.1658
 1186W        W 3386   3.817   1.836  11.056 -0.1415  0.1452 -0.0775
 1187W        W 3387   9.850   5.407  14.988  0.5074  0.0204  0.0623
 1188W        W 3388  17.527   0.347   8.406  0.2626  0.3208  0.1455
 1189W        W 3389  10.143   5.151   0.256  0.0443  0.2901 -0.1178
 1190W        W 3390   3.677   1.556  22.677 -0.0017 -0.0171 -0.1111
 1191W        W 3391   1.523   3.121  18.184 -0.2780 -0.4392  0.0415
 1192W        W 3392  10.491   6.871   8.045  0.2130 -0.3707  0.1962
 1193W        W 3393   1.238   6.523   7.020  0.2324  0.1336  0.0841
 1194W        W 3394  14.763   5.654  13.074 -0.3483 -0.0236 -0.0524
 1195W        W 3395  20.541   7.180  32.700  0.2267 -0.2237 -0.1358
 1196W        W 3396  18.365   2.412  18.270 -0.1926 -0.0464 -0.3460
 1197W        W 3397  12.995   1.458  21.815 -0.2737  0.0652 -0.1646
 1198W        W 3398  15.832   7.309   6.221 -0.4586 -0.0706  0.0633
 1199W        W 3399   5.984   1.212  13.585  0.4104  0.2403  0.1484
 1200W        W 3400  20.686   3.056   8.577 -0.2007  0.1358  0.1455
 1201W        W 3401  17.122   6.386  30.204 -0.1596 -0.0950 -0.0507
 1202W        W 3402   8.348   1.107   9.466 -0.0616  0.2532  0.0331
 1203W        W 3403   8.026   1.421   9.731 -0.0534  0.0258  0.0821
 1204W        W 3404  23.301   0.815  28.436 -0.2167 -0.1205  0.0413
 1205W        W 3405   1.274   5.448  10.916  0.1184  0.0176 -0.0318
 1206W        W 3406  23.901   0.754  23.949 -0.1880 -0.0226 -0.0875
 1207W        W 3407  13.923   0.809  22.633 -0.0203  0.0608  0.1036
 1208W        W 3408   1.601   7.499  29.063 -0.0538  0.1351  0.3149
 1209W        W 3409   7.809   0.908  13.080 -0.2010  0.2617  0.0147
 1210W        W 3410  10.542   3.659  14.742 -0.0076  0.1966 -0.0924
 1211W        W 3411   5.832   7.299  16.846 -0.2408 -0.1663 -0.0604
 1212W        W 3412   8.958   6.827   1.140 -0.1565  0.2077 -0.2400
 1213W        W 3413   7.572   6.662  12.159  0.2637 -0.2299 -0.0975
 1214W        W 3414   0.006   2.199  20.470 -0.0914  0.0137 -0.0687
 1215W        W 3415   7.099   4.790  29.337  0.2385  0.0475 -0.3072
 1216W        W 3416   6.766   0.070  13.190 -0.0531 -0.1268 -0.0752
 1217W        W 3417  17.476   4.980   1.447  0.0496 -0.1631 -0.1780
 1218W        W 3418   6.899   1.360   4.707 -0.0787  0.0052 -0.0420
 1219W        W 3419  18.530   1.369   0.359 -0.0112  0.3444  0.0941
 1220W        W 3420  20.277   6.496  30.514  0.4248 -0.0425  0.1015
 1221W        W 3421  21.765   0.914   1.215  0.0840 -0.0191  0.3974
 1222W        W 3422   2.922   3.925  31.651 -0.1039 -0.2230  0.0972
 1223W        W 3423  17.495   1.607  11.319 -0.0299 -0.0117  0.0448
 1224W        W 3424  24.771   3.081   5.262  0.1424 -0.2553 -0.1534
 1225W        W 3425   9.610   6.630  32.481 -0.0890 -0.0344 -0.0131
 1226W        W 3426  13.021   4.948  13.771 -0.0833  0.3395 -0.1014
 1227W        W 3427  22.877   5.142   2.053 -0.0493  0.2705 -0.2367
 1228W        W 3428  18.534   5.842   5.714 -0.1839  0.1200 -0.1291
 1229W        W 3429  13.119   7.813  23.562  0.3335 -0.1150  0.0172
 1230W        W 3430  24.372   3.831  22.464  0.1116  0.2228  0.0574
 1231W        W 3431   9.180   7.525  32.395  0.2442  0.1914 -0.0181
 1232W        W 3432   2.790   5.245   9.556 -0.1231  0.1886 -0.1243
 1233W        W 3433  18.484   5.059  28.036  0.1172  0.0109  0.0991
 1234W        W 3434   1.281   7.444  25.316  0.1058  0.2618  0.0013
 1235W        W 3435  17.839   1.871  27.984 -0.1532  0.2683 -0.1534
 1236W        W 3436   8.450   4.127   1.516 -0.1232 -0.3019  0.0989
 1237W        W 3437   6.871   5.673  27.483 -0.2968 -0.0665  0.2117
 1238W        W 3438  10.167   6.974  15.067  0.4366  0.1587  0.1290
 1239W        W 3439   7.293   2.736  17.439  0.4255  0.4056  0.1575
 1240W        W 3440  22.679   1.208  25.455 -0.0565  0.1543  0.1044
 1241W        W 3441  10.149   2.906  30.828  0.1818  0.3144 -0.3873
 1242W        W 3442  17.790   0.864  18.435 -0.3121  0.3822  0.1435
 1243W        W 3443  16.278   3.760  19.404 -0.0594 -0.0513 -0.2113
 1244W        W 3444  18.378   6.851  15.354  0.0502 -0.0204 -0.1104
 1245W        W 3445   7.266   0.065  11.507  0.1207 -0.0569  0.0539
 1246W        W 3446  22.974   0.049  17.179 -0.1543 -0.2740 -0.2001
 1247W        W 3447  13.445   7.619   5.985 -0.0554 -0.0734 -0.2557
 1248W        W 3448   7.820   5.366  16.386 -0.0615  0.1793  0.3978
 1249W        W 3449  24.999   5.907  15.828 -0.1150  0.0668 -0.1758
 1250W        W 3450  16.569   4.128   6.435  0.2447 -0.0234  0.0327
 1251W        W 3451  17.122   2.336  31.725  0.1799  0.0216 -0.0641
 1252W        W 3452   8.031   5.760  27.511  0.0129  0.0444  0.0713
 1253W        W 3453  11.619   2.761   1.313  0.1600 -0.2491 -0.1777
 1254W        W 3454  19.085   5.726  28.930 -0.2991  0.0202  0.1653
 1255W        W 3455   3.635   0.282   5.020  0.1581 -0.0681  0.0254
 1256W        W 3456  20.420   6.669  19.526 -0.1819 -0.2593  0.0482
 1257W        W 3457  19.495   6.720  25.463 -0.2509  0.0273 -0.3033
 1258W        W 3458   2.187   5.372  30.380 -0.0264  0.1193 -0.0197
 1259W        W 3459  20.132   5.407  24.146  0.0405  0.1709 -0.0295
 1260W        W 3460  17.802   5.672  32.238 -0.1241  0.1798  0.1145
 1261W        W 3461  21.817   0.469  17.112 -0.0527 -0.1008 -0.0706
 1262W        W 3462  16.157   1.195   2.756  0.1309 -0.0414 -0.1456
 1263W        W 3463  20.844   4.963   0.051  0.2975 -0.0710 -0.2385
 1264W        W 3464  17.404   7.539  10.104 -0.0487 -0.0892 -0.1526
 1265W        W 3465  15.936   0.722  25.830  0.3429  0.1253  0.0631
 1266W        W 3466   3.245   7.098  31.849 -0.0359  0.0697 -0.0367
 1267W        W 3467  14.002   4.623   2.597  0.1417  0.0542 -0.1139
 1268W        W 3468  14.103   7.084  23.965  0.1420 -0.0522  0.1243
 1269W        W 3469  13.101   4.090   1.504  0.3311 -0.0976 -0.2571
 1270W        W 3470  13.162   0.072  28.508 -0.1867  0.2030 -0.2831
 1271W        W 3471  20.207   7.321   4.181 -0.0801 -0.0561 -0.1422
 1272W        W 3472  24.007   7.712  14.959  0.1128  0.2017 -0.2416
 1273W        W 3473  19.996   0.394  20.866 -0.3563  0.1329  0.1868
 1274W        W 3474  19.490   1.380  21.017  0.1631  0.3175 -0.0146
 1275W        W 3475  21.253   1.355   4.367 -0.2264 -0.0423 -0.4679
 1276W        W 3476   5.086   3.507  28.962  0.1553 -0.1059 -0.1290
 1277W        W 3477  22.312   1.179  27.449  0.0232 -0.0154 -0.0065
 1278W        W 3478   0.782   2.386  24.048 -0.2344  0.0112 -0.0505
 1279W        W 3479  15.486   0.561  10.567 -0.0869 -0.0998  0.1851
 1280W        W 3480  17.004   1.949  21.361 -0.6518  0.0119  0.0889
 1281W        W 3481  17.791   5.900  17.557  0.0437  0.3105 -0.4366
 1282W        W 3482  16.511   1.051   4.468 -0.4261 -0.4095  0.3614
 1283W        W 3483  18.845   3.852  15.462 -0.1209  0.2378 -0.1923
 1284W        W 3484  11.061   1.779  31.989 -0.0849  0.2901  0.0731
 1285W        W 3485   2.091   0.745  25.858 -0.0280  0.0490  0.1919
 1286W        W 3486  22.625   3.861  32.270  0.1139  0.3187  0.1402
 1287W        W 3487   9.731   5.985   4.500  0.0551  0.1232 -0.1220
 1288W        W 3488   4.631   7.739  24.788 -0.2039 -0.2736  0.1037
 1289W        W 3489  22.733   0.971   1.651  0.1630 -0.3092  0.1228
 1290W        W 3490  19.705   5.309   5.821  0.1581 -0.1001 -0.1578
 1291W        W 3491  18.822   4.207  30.735  0.0159  0.1013 -0.0159
 1292W        W 3492   3.484   3.738   4.802 -0.1827 -0.3991 -0.0310
 1293W        W 3493  10.018   6.591   0.028 -0.0338  0.2051 -0.2027
 1294W        W 3494  11.653   2.683  16.350  0.1533  0.0013 -0.1913
 1295W        W 3495  14.236   3.468  13.341  0.0193 -0.0574 -0.2380
 1296W        W 3496  14.264   6.083  25.608 -0.0334 -0.2210 -0.0603
 1297W        W 3497  11.006   0.720  11.055 -0.0551  0.0430  0.2951
 1298W        W 3498  11.783   2.246  24.706 -0.1149 -0.0721  0.0713
 1299W        W 3499  15.527   4.549   0.604 -0.0946  0.1944  0.0951
 1300W        W 3500  24.562   3.796  10.642 -0.0219 -0.1771 -0.0981
 1301W        W 3501  20.562   3.185   3.185 -0.0556  0.0017 -0.2278
 1302W        W 3502  19.252   0.389  31.499  0.3500  0.1732  0.2285
 1303W        W 3503  15.345   0.820  12.200  0.0966  0.0066  0.4400
 1304W        W 3504   7.134   7.063   4.799  0.3118 -0.3459  0.0369
 1305W        W 3505  24.856   5.222  29.901  0.0811  0.1753 -0.1052
 1306W        W 3506  13.570   2.897   8.376 -0.0244 -0.2161  0.0157
 1307W        W 3507  13.934   7.090  11.736 -0.0703  0.1660  0.0779
 1308W        W 3508  22.027   4.112   6.786 -0.1182 -0.2951 -0.0249
 1309W        W 3509   7.778   7.456  32.048  0.1170 -0.3967 -0.2066
 1310W        W 3510  13.998   5.300  26.382  0.1205  0.0105 -0.0018
 1311W        W 3511  24.130   6.087   4.973  0.1264 -0.1834 -0.0882
 1312W        W 3512  14.746   7.773   1.363  0.0676 -0.0211 -0.2127
 1313W        W 3513   5.434   6.407  26.757 -0.1203 -0.0988  0.0368
 1314W        W 3514  21.020   7.605   5.119 -0.0279 -0.0555 -0.2919
 1315W        W 3515  24.244   3.537   1.178  0.0807 -0.1709  0.0823
 1316W        W 3516   9.910   2.980  11.863  0.0829 -0.2266 -0.3560
 1317W        W 3517   3.622   3.184  20.674  0.0020  0.3328 -0.0765
 1318W        W 3518  18.657   4.470  20.140  0.0580 -0.1348  0.1958
 1319W        W 3519  18.039   6.766   0.785 -0.0976  0.0049 -0.3271
 1320W        W 3520  17.349   4.205   8.375  0.2797 -0.1496  0.1938
 1321W        W 3521   7.679   0.499   1.347  0.0681 -0.1787  0.1895
 1322W        W 3522   1.771   7.726   2.755  0.2927  0.1220 -0.1229
 1323W        W 3523  18.711   2.283  15.966 -0.0393  0.1414  0.1443
 1324W        W 3524  19.256   5.655  17.143  0.1828  0.0297  0.0430
 1325W        W 3525   5.851   6.859   5.279  0.0901  0.2587  0.2720
 1326W        W 3526   7.744   4.974   2.943 -0.0207  0.2329 -0.0385
 1327W        W 3527   2.294   4.132  23.573 -0.2582  0.2514 -0.1417
 1328W        W 3528  10.790   4.510  31.182  0.0587 -0.2075 -0.2350
 1329W        W 3529  11.162   2.216   4.679  0.2468  0.0053  0.3578
 1330W        W 3530  14.484   6.949  31.545 -0.1340  0.1737  0.1646
 1331W        W 3531  12.691   3.538  26.121  0.0143  0.0473 -0.0346
 1332W        W 3532   8.699   3.266   9.150  0.0538 -0.5171  0.0761
 1333W        W 3533   7.886   5.844   9.098 -0.0389  0.0450 -0.0938
 1334W        W 3534  20.995   0.024  31.326  0.2263 -0.0446  0.0519
 1335W        W 3535   3.094   3.821  23.733  0.0691  0.1982  0.0193
 1336W        W 3536  21.411   6.788  16.112 -0.3454  0.1178 -0.3360
 1337W        W 3537   0.455   6.898  32.165  0.0901  0.3739 -0.1985
 1338W        W 3538   7.629   3.208  11.214 -0.2085 -0.1252 -0.1070
 1339W        W 3539   1.414   5.230  25.079 -0.0456  0.0883  0.1299
 1340W        W 3540   4.459   4.147  11.424 -0.2670 -0.0334 -0.0900
 1341W        W 3541  17.806   4.128   8.066 -0.2855  0.0258 -0.0840
 1342W        W 3542   4.864   2.552  25.674 -0.0754 -0.0191  0.0102
 1343W        W 3543  16.252   4.930  31.860  0.0322 -0.0121 -0.3930
 1344W        W 3544  18.303   1.541  27.111 -0.3237  0.0563  0.0771
 1345W        W 3545   3.377   4.205  29.329  0.0995  0.0314 -0.0352
 1346W        W 3546  18.541   0.614  24.166 -0.2912 -0.0129 -0.1822
 1347W        W 3547  18.169   1.732   9.615  0.1331 -0.2111 -0.1082
 1348W        W 3548  11.784   7.137  15.367  0.2469 -0.1330  0.0389
 1349W        W 3549   0.605   4.677  24.937  0.1671  0.0995 -0.0586
 1350W        W 3550   7.538   6.811   4.799  0.4434 -0.2088 -0.0539
 1351W        W 3551  16.153   3.591   0.264 -0.0926  0.0063 -0.0993
 1352W        W 3552  15.113   2.860  20.831 -0.0469  0.1433 -0.1198
 1353W        W 3553   4.937   7.415  31.640  0.0613  0.0064  0.0837
 1354W        W 3554  16.471   3.364   5.988  0.0659 -0.1047  0.0008
 1355W        W 3555   5.451   4.139  11.242 -0.1166  0.3340 -0.0728
 1356W        W 3556  12.135   6.836  11.984 -0.1429 -0.0734 -0.1632
 1357W        W 3557  22.245   7.012   5.958 -0.1397 -0.3322  0.1810
 1358W        W 3558   1.914   1.249  25.838  0.0305 -0.1710 -0.1065
 1359W        W 3559   3.175   1.589  31.159 -0.3889 -0.1067 -0.2684
 1360W        W 3560  17.824   2.537   2.820  0.0088  0.2127  0.1186
 1361W        W 3561  18.048   4.807  29.797  0.0317 -0.3486  0.0854
 1362W        W 3562  12.569   0.403  26.398  0.2800 -0.0178 -0.1644
 1363W        W 3563   8.913   3.048   1.555  0.3199  0.0087 -0.2229
 1364W        W 3564  22.543   4.608  30.757 -0.0988 -0.2755 -0.1686
 1365W        W 3565   4.140   3.108   1.093 -0.0372 -0.0485 -0.0313
 1366W        W 3566  14.018   2.620   6.628  0.0637  0.1901  0.1112
 1367W        W 3567   4.095   6.249  10.608  0.3801 -0.2602 -0.3817
 1368W        W 3568   2.720   0.345  25.866 -0.1441  0.0544  0.2033
 1369W        W 3569  18.238   4.685  19.436 -0.0534 -0.0778 -0.3198
 1370W        W 3570   2.598   3.218  25.267 -0.1443  0.0263  0.0758
 1371W        W 3571  19.694   4.123  24.706  0.2690  0.2701  0.1421
 1372W        W 3572   9.161   0.529   5.546  0.1844  0.0235 -0.2096
 1373W        W 3573   5.800   4.857  30.788  0.1895  0.0563  0.0627
 1374W        W 3574   8.163   4.967  31.747  0.0898  0.0367  0.2429
 1375W        W 3575  17.447   3.464   9.703 -0.0428 -0.1072  0.0737
 1376W        W 3576   5.570   2.507  12.648  0.0546  0.1884  0.0349
 1377W        W 3577  23.548   2.843  17.061  0.2689  0.0744  0.0102
 1378W        W 3578  20.200   4.439  22.308 -0.1510 -0.1922  0.0435
 1379W        W 3579   9.862   1.013   1.069 -0.0106 -0.3130  0.0282
 1380W        W 3580  11.095   7.035  27.613  0.1198  0.0217 -0.1551
 1381W        W 3581  23.110   5.923   5.795 -0.1328 -0.0710  0.0964
 1382W        W 3582  24.053   4.989  15.781 -0.1238  0.4688 -0.1585
 1383W        W 3583   3.485   7.678  28.811  0.2259 -0.1166 -0.0215
 1384W        W 3584  14.611   2.933  12.824  0.0061 -0.2706 -0.2224
 1385W        W 3585   4.966   3.176  28.124  0.1378  0.0078  0.0640
 1386W        W 3586   6.671   3.295  17.023  0.1779  0.0259 -0.0131
 1387W        W 3587   8.811   1.142   9.650  0.0750 -0.1359  0.1322
 1388W        W 3588   8.546   7.538  28.217 -0.0125  0.0098 -0.0118
 1389W        W 3589   4.511   4.516  32.526  0.0074  0.3822 -0.1274
 1390W        W 3590   6.351   5.765  27.517  0.0507 -0.0698  0.0469
 1391W        W 3591  12.536   5.249   7.046  0.1954  0.0261  0.1710
 1392W        W 3592  14.131   3.650   2.382 -0.2450  0.2254 -0.0367
 1393W        W 3593  22.038   2.845  26.328 -0.0813 -0.3390  0.1254
 1394W        W 3594  21.867   1.186  10.339 -0.0486  0.0169 -0.0585
 1395W        W 3595  14.855   2.085  13.221 -0.1906 -0.1280 -0.0670
 1396W        W 3596  24.344   3.148   0.192  0.2030 -0.0368 -0.0552
 1397W        W 3597   2.895   2.520  26.095 -0.0451 -0.1312 -0.2814
 1398W        W 3598  19.297   4.262  11.062 -0.0257 -0.1628 -0.1543
 1399W        W 3599  18.005   1.380  28.220 -0.0389 -0.1381  0.1482
 1400W        W 3600  11.903   1.561  13.426  0.2310  0.4235 -0.1791
 1401W        W 3601  21.448   3.121  16.691  0.1943 -0.2421 -0.0955
 1402W        W 3602   3.005   6.830  14.179  0.0931  0.2853 -0.0027
 1403W        W 3603  15.253   5.660   0.714 -0.0953  0.0970 -0.0953
 1404W        W 3604  18.789   2.984  19.103 -0.1235  0.1598  0.1048
 1405W        W 3605   4.933   0.494   5.377  0.1513  0.2005  0.1857
 1406W        W 3606  23.484   3.426   8.006 -0.0256 -0.1405  0.2535
 1407W        W 3607   0.364   2.091  28.389  0.0242  0.1484 -0.0508
 1408W        W 3608  11.717   3.422   7.588 -0.0964 -0.1152 -0.0526
 1409W        W 3609  23.003   1.542  31.129  0.2624  0.0901  0.0809
 1410W        W 3610   8.947   5.028   7.618 -0.1352 -0.1444 -0.0396
 1411W        W 3611   5.983   6.637  30.420 -0.0541  0.0047 -0.3069
 1412W        W 3612   9.078   3.183  31.633 -0.0354  0.1081  0.0490
 1413W        W 3613  19.101   1.907  30.025  0.0819  0.1025  0.2782
 1414W        W 3614   2.494   7.513   2.438  0.1927  0.1307 -0.1601
 1415W        W 3615  16.881   7.242  32.200  0.1500 -0.1890  0.1079
 1416W        W 3616  22.261   2.266  15.714  0.0572 -0.1656 -0.2101
 1417W        W 3617  22.863   0.491  27.503  0.1116 -0.1495  0.0845
 1418W        W 3618   7.991   3.573  23.716  0.3348  0.3863 -0.0712
 1419W        W 3619   4.912   4.484  12.045  0.0432 -0.0366  0.1069
 1420W        W 3620  17.089   4.599   2.786 -0.2042 -0.0077 -0.1756
 1421W        W 3621   2.011   1.470   3.998 -0.0807  0.0206  0.1689
 1422W        W 3622   7.082   5.443  12.499  0.3383  0.0461 -0.2544
 1423W        W 3623  17.363   1.641  32.064  0.0894  0.0461  0.0403
 1424W        W 3624  14.660   6.057   9.374  0.2665 -0.1518  0.0759
 1425W        W 3625  14.766   2.854  26.252 -0.1380  0.0591  0.2451
 1426W        W 3626  23.232   7.635  25.963  0.0185 -0.1924  0.0717
 1427W        W 3627   9.444   7.086  18.669  0.0841  0.3771  0.1523
 1428W        W 3628   0.514   7.144  26.734 -0.0916  0.0251 -0.1386
 1429W        W 3629  23.544   4.079   8.600 -0.2403  0.1223 -0.3171
 1430W        W 3630   3.897   6.598   0.731 -0.0638 -0.1852  0.1127
 1431W        W 3631   5.101   1.997   0.207 -0.0637  0.3600 -0.2059
 1432W        W 3632   9.361   0.868  31.036 -0.0251 -0.6070 -0.0063
 1433W        W 3633  18.899   6.744  23.389 -0.1176  0.0628 -0.1146
 1434W        W 3634  21.933   7.798   3.779  0.0778  0.1676 -0.1831
 1435W        W 3635  10.382   5.571  29.496 -0.0201 -0.0923  0.0820
 1436W        W 3636  13.627   1.262  25.869 -0.1401  0.1043 -0.0662
 1437W        W 3637   1.593   4.699  22.075  0.1106 -0.0320 -0.4146
 1438W        W 3638   7.852   3.242   1.179 -0.0253  0.0473  0.0443
 1439W        W 3639  10.336   6.948  25.289 -0.2453  0.1518  0.0175
 1440W        W 3640   4.378   2.650  14.178 -0.0038 -0.0168  0.1104
 1441W        W 3641   5.354   0.612   8.670 -0.1331  0.1070  0.3684
 1442W        W 3642  20.637   4.934  29.847 -0.0237  0.0734  0.3085
 1443W        W 3643   5.832   7.353   5.219 -0.1402 -0.0645 -0.1490
 1444W        W 3644  14.157   0.126  12.729  0.2124 -0.0369  0.2888
 1445W        W 3645  15.386   5.495  31.679 -0.4309 -0.1371  0.0122
 1446W        W 3646  20.099   1.893  19.152  0.2286 -0.2678 -0.1911
 1447W        W 3647  19.449   0.553  25.229 -0.2868 -0.0557  0.1599
 1448W        W 3648  12.885   2.417  22.870 -0.1263 -0.4909  0.0951
 1449W        W 3649   2.795   2.460  21.319  0.1962  0.1974  0.2273
 1450W        W 3650  21.510   7.462  15.875  0.2466 -0.1130  0.0301
 1451W        W 3651  19.726   6.487  26.538 -0.1235 -0.0634  0.0568
 1452W        W 3652  14.297   0.974  26.568  0.0553  0.0336  0.2254
 1453W        W 3653  10.974   3.038  31.882 -0.0242  0.1426 -0.0709
 1454W        W 3654   7.791   3.624   9.003  0.0729 -0.3210 -0.0664
 1455W        W 3655   0.350   3.894  20.095 -0.0173  0.1157 -0.0045
 1456W        W 3656  23.547   2.210  17.870 -0.1442 -0.1382  0.1962
 1457W        W 3657   7.800   3.614  17.501  0.1627  0.1938  0.0235
 1458W        W 3658  19.100   4.132  19.416  0.0982  0.0063 -0.0063
 1459W        W 3659   8.962   0.714   3.995 -0.1184 -0.2079 -0.0236
 1460W        W 3660  19.546   3.705  18.910  0.1152  0.2257 -0.2179
 1461W        W 3661  15.485   5.890  10.047  0.3501  0.0776 -0.0773
 1462W        W 3662  15.433   6.296  28.061 -0.2906 -0.0077 -0.2321
 1463W        W 3663  12.952   3.141  25.169  0.2138 -0.2235 -0.0824
 1464W        W 3664  13.563   6.497   8.843  0.0095 -0.1823 -0.0683
 1465W        W 3665  21.593   1.328  18.708  0.1353  0.0600 -0.0291
 1466W        W 3666  16.170   1.313   8.474 -0.0304 -0.0868  0.0509
 1467W        W 3667  19.189   5.358  23.136 -0.0791  0.0639  0.3100
 1468W        W 3668   0.108   1.223  25.236 -0.2067 -0.1505 -0.0679
 1469W        W 3669  15.285   2.359  31.469  0.1880 -0.0476  0.0775
 1470W        W 3670  23.544   3.879  18.110 -0.0013  0.1586  0.4315
 1471W        W 3671  13.791   5.393   1.747  0.1706  0.3414 -0.4264
 1472W        W 3672  22.285   2.030  25.531 -0.1032 -0.2846 -0.0787
 1473W        W 3673   3.453   4.642  22.843 -0.1808  0.1348 -0.2830
 1474W        W 3674  18.138   0.443   4.208  0.0980 -0.2325  0.0608
 1475W        W 3675   9.412   3.402  25.599  0.0221  0.0837  0.0663
 1476W        W 3676  21.622   7.663   6.860  0.2249 -0.2314 -0.0166
 1477W        W 3677  19.965   5.536  32.024  0.3188 -0.0538  0.3263
 1478W        W 3678  17.844   3.109  25.453 -0.0796 -0.2914 -0.0730
 1479W        W 3679   1.247   5.343   6.315  0.0928  0.0757 -0.1073
 1480W        W 3680   4.287   1.746  28.676 -0.0104  0.4378  0.0669
 1481W        W 3681   7.415   5.964   3.407 -0.1385  0.1482  0.3346
 1482W        W 3682   0.097   1.681   9.332 -0.1246 -0.1522 -0.4364
 1483W        W 3683   8.594   6.033   5.389 -0.1718 -0.0435  0.4228
 1484W        W 3684  20.769   5.502  16.821  0.1453 -0.0836 -0.1049
 1485W        W 3685  14.963   7.094   7.073  0.1970 -0.0427 -0.3416
 1486W        W 3686   1.981   3.518   6.908 -0.0550 -0.1162  0.1909
 1487W        W 3687   9.694   4.414   4.335  0.0112 -0.0617  0.1204
 1488W        W 3688   2.352   0.450   5.013 -0.3410 -0.0224 -0.0832
 1489W        W 3689  10.024   6.344   4.312  0.3019  0.3576 -0.0959
 1490W        W 3690  24.905   3.072  19.100 -0.1422  0.0821  0.0228
 1491W        W 3691   3.217   6.527   6.434 -0.2327 -0.1943 -0.2242
 1492W        W 3692  24.133   0.583  18.691 -0.3037 -0.2518 -0.1205
 1493W        W 3693  13.396   4.489  25.528 -0.1261  0.0647  0.2348
 1494W        W 3694  20.694   7.616  31.036 -0.0404  0.2046 -0.0050
 1495W        W 3695  23.518   3.176   9.322  0.0927  0.3886 -0.0686
 1496W        W 3696   0.714   2.614   2.948  0.0171 -0.0967  0.0495
 1497W        W 3697  23.110   6.039  31.862  0.1874 -0.2428 -0.0233
 1498W        W 3698  23.360   2.204  18.945  0.2051  0.0735  0.1305
 1499W        W 3699  12.685   0.944  25.723  0.1089  0.0670  0.0846
 1500W        W 3700  20.992   1.189  32.628 -0.2447  0.1700  0.0480
 1501W        W 3701  10.119   5.213  11.362  0.1895  0.0593  0.0193
 1502W        W 3702  19.249   7.448   7.504 -0.0242  0.3469  0.2775
 1503W        W 3703  14.382   0.069  13.638  0.0324 -0.1670 -0.1391
 1504W        W 3704   6.846   4.894  24.666 -0.0486 -0.1791  0.1867
 1505W        W 3705  21.375   4.593   6.353  0.0946 -0.0021  0.0276
 1506W        W 3706  17.753   2.964  30.703 -0.2711 -0.2482  0.0296
 1507W        W 3707  15.191   4.352   9.042  0.2073 -0.1271 -0.1854
 1508W        W 3708   4.086   5.269  10.412 -0.1222  0.2514  0.0315
 1509W        W 3709   7.638   5.999   5.804 -0.1234 -0.1166 -0.3357
 1510W        W 3710   9.341   3.945  27.441  0.0611 -0.0516  0.3294
 1511W        W 3711  19.826   5.808  10.473  0.1543 -0.0897  0.0357
 1512W        W 3712  20.941   5.112   5.523 -0.2891  0.0388  0.1924
 1513W        W 3713  23.326   2.167   1.948  0.0032  0.1513 -0.1058
 1514W        W 3714  15.948   4.656  22.906 -0.2030  0.1060 -0.1114
 1515W        W 3715   7.382   1.993  12.425 -0.2333  0.2908  0.1042
 1516W        W 3716   3.292   0.392  25.059 -0.0653 -0.0808 -0.1071
 1517W        W 3717   9.027   1.249  12.348 -0.1779 -0.1205 -0.1111
 1518W        W 3718   9.529   4.362  31.549 -0.1130  0.0118 -0.1334
 1519W        W 3719  19.511   3.727   8.335  0.0239 -0.0161  0.2123
 1520W        W 3720  20.225   5.980  14.575  0.3961  0.0913 -0.0484
 1521W        W 3721  10.313   2.255   3.472  0.2358 -0.0108 -0.0426
 1522W        W 3722  16.960   7.010  20.592  0.3828 -0.1330  0.0453
 1523W        W 3723  17.544   5.938  25.692  0.0900 -0.1948 -0.1632
 1524W        W 3724   1.934   4.998  27.958 -0.3051 -0.0478  0.0686
 1525W        W 3725  22.823   0.642  23.600  0.0875 -0.0253 -0.0254
 1526W        W 3726  24.416   4.910  17.356  0.0347  0.0689 -0.0879
 1527W        W 3727  13.597   2.588  25.640 -0.2972 -0.0259 -0.0112
 1528W        W 3728   1.918   6.876   7.840  0.0356  0.2931  0.1174
 1529W        W 3729   7.548   6.980  15.583 -0.0626 -0.1001 -0.1201
 1530W        W 3730  20.256   4.373  19.958  0.3185 -0.1281  0.2191
 1531W        W 3731  16.041   6.985   5.184 -0.2900 -0.1728  0.1159
 1532W        W 3732   6.651   1.353  32.123  0.2072 -0.0082  0.0177
 1533W        W 3733  18.110   1.449   5.150  0.3248  0.2403 -0.0283
 1534W        W 3734  17.731   2.352  23.628 -0.4308  0.0577  0.0555
 1535W        W 3735  17.671   6.275  23.792 -0.2896  0.3643  0.0442
 1536W        W 3736   3.431   3.616  27.931 -0.4708  0.2364 -0.2125
 1537W        W 3737   0.466   0.366  26.538 -0.1969  0.3625 -0.1869
 1538W        W 3738   4.572   2.520  10.595 -0.1637 -0.1850  0.1390
 1539W        W 3739  22.786   1.156  21.813 -0.0304 -0.2566 -0.0189
 1540W        W 3740  22.456   3.637   7.252 -0.0826 -0.0604  0.0975
 1541W        W 3741   5.459   3.609  13.564  0.0590 -0.0277 -0.0607
 1542W        W 3742  14.573   7.209  29.410 -0.0959  0.2779  0.4665
 1543W        W 3743   1.450   0.116   5.938 -0.0377  0.2596 -0.1183
 1544W        W 3744   7.723   6.575   7.998  0.3029 -0.0866 -0.1118
 1545W        W 3745  19.490   4.746  27.303  0.2377  0.1388  0.2127
 1546W        W 3746  12.066   1.294  32.232  0.0648  0.0334  0.0989
 1547W        W 3747  19.029   3.127   8.153  0.0925 -0.1914  0.0893
 1548W        W 3748   7.766   3.097   8.618 -0.2595 -0.1128 -0.0314
 1549W        W 3749   1.294   4.080  26.899  0.3104 -0.0709 -0.3754
 1550W        W 3750   5.575   5.747  23.837  0.1441  0.3601  0.1725
 1551W        W 3751  24.153   3.148  27.128  0.0941 -0.0893  0.3382
 1552W        W 3752  24.880   0.493   0.287  0.2640 -0.0115  0.3889
 1553W        W 3753  19.258   3.235   7.315  0.1803 -0.0564  0.0960
 1554W        W 3754  14.587   6.779   1.161  0.2394  0.0816 -0.0421
 1555W        W 3755   8.784   6.623  28.945  0.2556  0.2827 -0.0056
 1556W        W 3756   9.980   0.483  30.439  0.1697  0.2299 -0.4294
 1557W        W 3757   9.391   5.003  10.700  0.2909  0.0571  0.2151
 1558W        W 3758  21.927   7.800  15.663  0.1015  0.2538  0.2704
 1559W        W 3759  18.846   5.725  30.422  0.2152 -0.0492  0.0120
 1560W        W 3760  17.308   7.794  20.308 -0.1703  0.2165  0.1294
 1561W        W 3761  17.453   1.296   6.813 -0.2653 -0.0815 -0.0626
 1562W        W 3762   5.554   7.782   7.519  0.0501  0.0871  0.1055
 1563W        W 3763  20.082   5.025  30.467 -0.0057 -0.0661 -0.0464
 1564W        W 3764   4.997   7.164  29.650 -0.1546  0.0702  0.4380
 1565W        W 3765   4.226   7.444  21.395 -0.3198  0.1137  0.4313
 1566W        W 3766   5.689   4.117   9.464  0.0797  0.0608  0.0408
 1567W        W 3767   6.896   5.545   8.717 -0.1831  0.0173  0.2034
 1568W        W 3768   0.723   4.789  18.720 -0.0639 -0.5619  0.0999
 1569W        W 3769  12.282   0.777  26.603  0.3492 -0.1332 -0.1499
 1570W        W 3770  11.892   2.870  32.187 -0.1118  0.0781  0.0682
 1571W        W 3771  15.617   6.243   3.475  0.1549 -0.1247  0.3948
 1572W        W 3772   1.972   6.739  13.165 -0.3251  0.1241  0.3597
 1573W        W 3773  11.950   7.001   9.912  0.1133  0.2770  0.2279
 1574W        W 3774   6.878   0.432   8.099 -0.0993  0.3094 -0.2445
 1575W        W 3775  20.714   7.320  18.058  0.0361  0.1318 -0.0777
 1576W        W 3776  23.604   0.813  21.741  0.0062  0.2540 -0.0372
 1577W        W 3777  11.557   0.738  30.835 -0.1471  0.1139  0.1993
 1578W        W 3778   6.248   2.612   6.068  0.2021 -0.0232 -0.0873
 1579W        W 3779  19.185   2.379   9.279  0.1816  0.0690 -0.0931
 1580W        W 3780   8.475   2.494  11.916 -0.5031  0.0658  0.3258
 1581W        W 3781  13.262   1.667   4.931  0.0367 -0.1964 -0.0519
 1582W        W 3782  24.357   4.835  32.657 -0.1127  0.0620 -0.0604
 1583W        W 3783  18.661   5.827  31.228 -0.0427  0.0786 -0.1060
 1584W        W 3784  13.901   7.623  10.915 -0.0226 -0.2752  0.0127
 1585W        W 3785  20.824   0.687  16.676  0.0424 -0.2948  0.3812
 1586W        W 3786  20.952   0.958   9.163 -0.2106  0.2503 -0.0594
 1587W        W 3787   4.918   5.517  25.138 -0.1288 -0.2096 -0.1933
 1588W        W 3788   5.933   2.148  17.676 -0.5569 -0.0962 -0.1036
 1589W        W 3789   5.392   6.670   5.139 -0.0781  0.2130 -0.0324
 1590W        W 3790  24.644   5.761   1.956  0.0979  0.0646  0.1381
 1591W        W 3791   4.564   6.784  22.113 -0.0907  0.2169  0.0772
 1592W        W 3792   1.596   4.797  29.627 -0.0471 -0.0244 -0.0740
 1593W        W 3793  20.033   4.590   7.237  0.0450 -0.2053  0.1186
 1594W        W 3794   7.255   6.279  32.104  0.0450  0.0766  0.0769
 1595W        W 3795  16.656   4.742   1.987 -0.0914 -0.1559  0.1887
 1596W        W 3796  14.554   1.386  32.603 -0.1445 -0.1363  0.2569
 1597W        W 3797   9.047   5.280  16.138  0.0655 -0.0583 -0.1710
 1598W        W 3798   5.980   2.146  10.031 -0.1182  0.2607  0.0861
 1599W        W 3799   8.785   4.566  14.143  0.1812  0.2260  0.1101
 1600W        W 3800  14.348   0.080   6.030  0.0707 -0.1360 -0.1932
 1601W        W 3801  15.434   2.698  19.626 -0.1963  0.2381 -0.0972
 1602W        W 3802   5.907   7.195   2.996  0.0826  0.1695  0.0674
 1603W        W 3803  24.269   4.742  20.824  0.1091  0.2759  0.1088
 1604W        W 3804  22.901   3.476  20.845  0.0551  0.1133  0.1627
 1605W        W 3805  17.757   3.521  32.450  0.1056  0.1087  0.1962
 1606W        W 3806   1.636   2.856  28.553 -0.1154  0.3612 -0.0093
 1607W        W 3807  22.514   3.539  27.899  0.0337  0.0093 -0.0860
 1608W        W 3808  25.003   1.831  30.112 -0.0064  0.2152 -0.3257
 1609W        W 3809  13.709   1.681   3.939  0.3795  0.0159 -0.0086
 1610W        W 3810  24.682   3.308   0.971  0.2897 -0.1263 -0.2078
 1611W        W 3811   8.573   6.850   7.500 -0.3661 -0.3671  0.0458
 1612W        W 3812  18.397   3.627  28.999 -0.2946 -0.1145  0.1759
 1613W        W 3813   5.476   6.319  13.995 -0.1182  0.0917  0.0911
 1614W        W 3814   1.219   0.857   2.536  0.3098  0.2223 -0.0246
 1615W        W 3815   3.253   2.321  22.715 -0.1194  0.0820 -0.0041
 1616W        W 3816  11.208   4.736  31.168  0.1465  0.4293 -0.0999
 1617W        W 3817  14.610   0.661   8.443  0.2472 -0.1738 -0.2052
 1618W        W 3818  20.528   5.443  29.638 -0.0199  0.4214  0.1480
 1619W        W 3819  18.985   1.458  10.040  0.0400 -0.0329  0.1631
 1620W        W 3820  21.607   4.679  26.873  0.1112  0.0438 -0.0663
 1621W        W 3821  15.016   6.837  28.803 -0.0131  0.0781  0.0406
 1622W        W 3822   6.984   5.794   3.865  0.1788 -0.0148  0.1209
 1623W        W 3823  14.871   2.044   3.196 -0.0875 -0.0040  0.1426
 1624W        W 3824   3.718   4.192   0.076  0.0257 -0.2965 -0.1527
 1625W        W 3825   1.199   5.494   5.409 -0.1773 -0.0340  0.2137
 1626W        W 3826  24.172   2.868  23.636  0.0230 -0.2067 -0.0404
 1627W        W 3827   5.412   3.061   4.592  0.2253 -0.0330  0.1497
 1628W        W 3828   9.424   6.033  17.906  0.0394  0.1414  0.0042
 1629W        W 3829   4.120   6.119   8.827  0.0111  0.2519  0.1011
 1630W        W 3830  18.082   3.120   1.317 -0.0552 -0.3061 -0.1952
 1631W        W 3831  21.576   3.991  30.398  0.2104 -0.0121  0.1860
 1632W        W 3832   4.075   4.832  21.959  0.1850  0.0708 -0.3467
 1633W        W 3833   7.879   5.349   7.739  0.1426  0.0247 -0.0652
 1634W        W 3834   9.450   5.109  14.987  0.0115  0.3592  0.0136
 1635W        W 3835  10.596   4.872  27.407 -0.1202 -0.0348  0.0394
 1636W        W 3836   3.842   2.017   4.033  0.2058  0.3406 -0.1232
 1637W        W 3837  13.690   5.511  29.102  0.2436  0.1998 -0.1656
 1638W        W 3838   0.200   0.359  21.272 -0.1396  0.4537 -0.2452
 1639W        W 3839   3.906   6.809   2.215  0.1012 -0.0609  0.1894
 1640W        W 3840   0.443   5.449   6.660 -0.0015  0.1760  0.0186
 1641W        W 3841  17.809   2.626  21.291  0.1778  0.1606 -0.0935
 1642W        W 3842  14.191   2.014  31.295  0.0831 -0.2227  0.0317
 1643W        W 3843   1.089   4.632   9.725  0.2049 -0.0350 -0.2068
 1644W        W 3844  18.650   0.810  28.567 -0.3389  0.3075  0.0226
 1645W        W 3845   4.485   1.930  26.665 -0.0627  0.0028 -0.0767
 1646W        W 3846  12.248   0.294  13.522 -0.0776  0.1829  0.1097
 1647W        W 3847  23.071   6.401  30.842  0.0495  0.2599 -0.2138
 1648W        W 3848  11.065   0.625   3.447  0.0169  0.1031 -0.1017
 1649W        W 3849  12.445   3.457   0.606 -0.0291 -0.0846  0.2885
 1650W        W 3850   2.954   6.624  11.833  0.2999  0.0447 -0.0728
 1651W        W 3851  20.517   6.452   3.608 -0.0042  0.1242 -0.1313
 1652W        W 3852  15.804   7.285  27.330  0.1588  0.0375 -0.3262
 1653W        W 3853  22.590   1.545   5.098 -0.0691  0.3082  0.2608
 1654W        W 3854  15.372   6.647  23.807 -0.1555 -0.1024 -0.0812
 1655W        W 3855  11.111   0.013  26.458 -0.1820 -0.0927 -0.3962
 1656W        W 3856   4.387   3.059  28.358  0.1841  0.2850  0.1839
 1657W        W 3857   6.610   7.094  15.459  0.2006 -0.1829  0.1759
 1658W        W 3858  15.630   7.053   9.385  0.2812  0.2421  0.0965
 1659W        W 3859   6.583   7.449  14.359 -0.1171  0.2886 -0.0253
 1660W        W 3860   8.744   5.067  29.036  0.0222 -0.3159 -0.0538
 1661W        W 3861  16.632   0.281   8.201  0.0885  0.3902  0.3705
 1662W        W 3862   6.356   6.623   3.774  0.0555 -0.0932 -0.1215
 1663W        W 3863  19.044   4.709   4.445  0.0728 -0.0694 -0.0561
 1664W        W 3864  11.052   0.351  13.091  0.0828 -0.0666  0.1275
 1665W        W 3865   9.098   3.030  17.150 -0.1596 -0.0319 -0.0143
 1666W        W 3866  21.666   2.109  29.308  0.2333  0.1291 -0.0377
 1667W        W 3867  11.990   4.356  30.592  0.2423 -0.0942 -0.0874
 1668W        W 3868  12.300   4.590   0.189 -0.0998 -0.1366  0.0963
 1669W        W 3869  20.906   2.534   3.070  0.2875 -0.3120  0.0458
 1670W        W 3870  20.643   3.036   1.756  0.0921 -0.0813  0.0835
 1671W        W 3871  22.275   1.188  15.561 -0.1251  0.1947  0.2224
 1672W        W 3872  16.622   2.010  23.068 -0.0848 -0.0354  0.1540
 1673W        W 3873  18.882   2.284  18.265 -0.0654 -0.0112 -0.1884
 1674W        W 3874  10.262   4.519  25.623 -0.0295 -0.0702  0.0708
 1675W        W 3875  16.569   4.880   1.122  0.3318  0.0549  0.4954
 1676W        W 3876  20.434   0.129   3.432  0.3871  0.1406  0.2352
 1677W        W 3877   6.777   0.739  26.142  0.1727  0.0629  0.1133
 1678W        W 3878  13.450   5.438  27.317 -0.0181  0.1799 -0.2947
 1679W        W 3879  19.597   5.570  27.267  0.0681 -0.0283 -0.1252
 1680W        W 3880  12.320   4.811  24.151  0.4261  0.1811  0.0343
 1681W        W 3881  17.367   5.475  19.184  0.0060  0.1223 -0.1633
 1682W        W 3882   9.130   6.574   3.033 -0.1211  0.3975  0.0781
 1683W        W 3883  20.899   7.024   6.705  0.0742  0.0184 -0.1357
 1684W        W 3884  22.410   0.562   9.928 -0.3257  0.1683  0.1939
 1685W        W 3885  12.490   1.840   9.734 -0.3837  0.1249 -0.2139
 1686W        W 3886   9.481   5.045   9.442  0.1836 -0.1081 -0.1396
 1687W        W 3887   5.880   7.122   5.731  0.1386  0.1581  0.0701
 1688W        W 3888  21.182   4.627   0.281 -0.0845  0.2903 -0.0496
 1689W        W 3889  12.436   6.473  28.176  0.1886  0.1454 -0.1347
 1690W        W 3890   4.171   5.606  11.353  0.0879 -0.0218  0.0303
 1691W        W 3891  16.323   6.704  28.634 -0.1558 -0.0034  0.0093
 1692W        W 3892   9.737   0.945  13.497 -0.0017  0.0206  0.0299
 1693W        W 3893  20.587   1.958  17.958 -0.3220 -0.2635  0.2432
 1694W        W 3894   2.958   3.859  21.993  0.2376  0.3648 -0.2483
 1695W        W 3895   7.178   2.212  24.061 -0.5229  0.1796 -0.2709
 1696W        W 3896  15.655   0.095  10.553 -0.0453 -0.2220  0.0504
 1697W        W 3897  19.147   7.528  26.493 -0.1397  0.0600  0.1083
 1698W        W 3898  24.287   1.426  18.232  0.1629  0.0384  0.4924
 1699W        W 3899  23.832   4.525  25.032 -0.0907 -0.2848 -0.1083
 1700W        W 3900  23.552   6.464  21.722  0.0664 -0.0352  0.1849
 1701W        W 3901  11.506   0.281  10.487 -0.1159 -0.2479  0.1409
 1702W        W 3902   1.230   5.237  20.509 -0.1378 -0.1503 -0.1585
 1703W        W 3903  18.791   0.803   9.725 -0.0768  0.2187 -0.1335
 1704W        W 3904  21.546   2.828   0.349  0.1513  0.3815  0.2466
 1705W        W 3905   3.778   7.320   5.767  0.2633 -0.0127  0.1733
 1706W        W 3906  17.466   5.049  28.099 -0.0570  0.0523  0.0863
 1707W        W 3907  11.756   1.324  29.125 -0.0652  0.1098  0.0361
 1708W        W 3908  20.487   6.458   6.107 -0.2676 -0.2806 -0.0643
 1709W        W 3909   8.936   2.053  30.352  0.0429 -0.0291  0.2332
 1710W        W 3910  16.594   2.842  24.131 -0.0403  0.0715  0.1967
 1711W        W 3911  22.170   3.751  10.379  0.0832 -0.0796 -0.0181
 1712W        W 3912   5.386   4.303  26.315  0.0621  0.2029 -0.2240
 1713W        W 3913  15.213   0.734  27.956  0.0041 -0.0901 -0.1398
 1714W        W 3914  10.180   2.867  14.502  0.0240  0.2733 -0.2948
 1715W        W 3915   5.308   1.038  32.335 -0.0636 -0.1290  0.0582
 1716W        W 3916   7.766   5.622  24.287  0.2311  0.0595  0.2588
 1717W        W 3917   6.785   5.664  24.427 -0.0423  0.0882  0.0692
 1718W        W 3918  23.880   4.381  24.213  0.2857  0.0794 -0.1024
 1719W        W 3919  10.656   1.565   6.040  0.0676 -0.1898  0.2413
 1720W        W 3920  13.182   0.806  29.249  0.0074 -0.0942 -0.1245
 1721W        W 3921   2.238   2.663   8.104  0.0591 -0.0355  0.1157
 1722W        W 3922   0.102   4.402  20.783  0.0211  0.0835  0.0143
 1723W        W 3923  15.747   1.581  20.161  0.1618  0.0649 -0.0132
 1724W        W 3924  22.708   7.000   2.407  0.1807  0.5245 -0.1921
 1725W        W 3925  10.049   1.131   4.652 -0.0079 -0.3052  0.2357
 1726W        W 3926   9.283   1.149  23.990 -0.1581 -0.1270 -0.1661
 1727W        W 3927   9.763   6.935   8.297  0.0486  0.1501 -0.3707
 1728W        W 3928   6.227   2.975  11.697  0.1125  0.3302 -0.0802
 1729W        W 3929  17.423   6.687   4.169 -0.0826  0.1485 -0.2402
 1730W        W 3930   2.498   7.752  32.690  0.0152  0.1043  0.1535
 1731W        W 3931   1.515   4.486  27.126  0.1368 -0.0032 -0.1244
 1732W        W 3932  20.684   2.118  30.914 -0.0634  0.1318 -0.0613
 1733W        W 3933  21.156   1.380  28.047  0.0106  0.1069  0.3144
 1734W        W 3934  11.878   1.336   8.209  0.1041 -0.2033  0.1128
 1735W        W 3935   0.504   7.305  23.557  0.1264 -0.1010  0.1598
 1736W        W 3936  13.394   0.430   1.677  0.0752 -0.0398 -0.1018
 1737W        W 3937   8.484   3.813  11.410 -0.2685  0.0317  0.1567
 1738W        W 3938  12.016   0.786  30.946 -0.2789 -0.3388 -0.0846
 1739W        W 3939  23.216   6.842  23.009 -0.3204 -0.4332  0.2792
 1740W        W 3940  18.423   4.820  24.455  0.1341 -0.4139  0.2574
 1741W        W 3941   3.457   1.757  23.426 -0.2639  0.3571  0.0699
 1742W        W 3942   9.636   2.394   1.779 -0.1159 -0.1377  0.0278
 1743W        W 3943  13.448   5.629   8.011  0.1234 -0.0122 -0.1642
 1744W        W 3944  16.844   1.427   2.774 -0.0838  0.1640 -0.0814
 1745W        W 3945   1.711   3.785  24.115  0.0943  0.1290  0.0145
 1746W        W 3946  10.964   4.372  23.299  0.2080 -0.1138  0.3665
 1747W        W 3947  19.782   3.526  22.623  0.1731  0.0139  0.2195
 1748W        W 3948  19.084   6.502  16.600  0.3781  0.3719 -0.2264
 1749W        W 3949  20.665   3.095   7.540  0.0591 -0.1348  0.0430
 1750W        W 3950  13.350   4.930   1.762 -0.3163 -0.2267 -0.1060
 1751W        W 3951  21.282   7.788   6.452  0.3824 -0.1483  0.1553
 1752W        W 3952   5.992   4.552  24.953  0.0995 -0.3868 -0.0875
 1753W        W 3953  16.099   0.879  26.925  0.1467 -0.0948  0.0672
 1754W        W 3954  17.903   6.197   2.003  0.1745 -0.2743 -0.0347
 1755W        W 3955   2.795   7.417  22.345 -0.0324  0.3167 -0.1490
 1756W        W 3956   1.427   3.186   7.443  0.0915  0.1544  0.1338
 1757W        W 3957  22.616   3.497  16.488 -0.2702 -0.0139 -0.0084
 1758W        W 3958   3.651   1.515   7.639 -0.0348 -0.3331  0.0050
 1759W        W 3959  11.107   5.147   7.576  0.1081 -0.2793 -0.1489
 1760W        W 3960  24.810   3.150  25.269 -0.2085 -0.0187 -0.0865
 1761W        W 3961   1.331   1.193   4.845  0.1567 -0.1449  0.1826
 1762W        W 3962  23.755   1.157  25.726  0.1051  0.2528  0.1173
 1763W        W 3963  17.862   4.872   9.977  0.1980 -0.5507  0.0374
 1764W        W 3964   4.842   6.763  14.790 -0.1240  0.0060  0.1212
 1765W        W 3965  17.497   3.014   7.295  0.1641 -0.2350  0.1742
 1766W        W 3966  14.911   0.021  25.328 -0.4724  0.0216 -0.1699
 1767W        W 3967  10.658   4.177  28.081 -0.0302 -0.0549 -0.0317
 1768W        W 3968   2.520   6.571  21.600  0.2035  0.1773 -0.0848
 1769W        W 3969   6.000   3.601  30.140  0.2495 -0.0152 -0.0055
 1770W        W 3970  22.410   6.703  14.425  0.2601 -0.0116  0.3496
 1771W        W 3971  19.775   0.540   9.799  0.0793  0.0915  0.1825
 1772W        W 3972   8.761   5.011   9.461 -0.1126  0.1828  0.0532
 1773W        W 3973  19.792   7.398  19.729  0.1781  0.3952 -0.5126
 1774W        W 3974  16.819   2.558   4.997 -0.1371  0.1233  0.0404
 1775W        W 3975   0.177   0.590   5.000 -0.2060 -0.0849 -0.0485
 1776W        W 3976   6.098   6.772   0.455 -0.0760 -0.0463 -0.0195
 1777W        W 3977   9.176   4.217  16.615  0.2270  0.3077  0.2934
 1778W        W 3978   5.143   0.001  10.366 -0.2777 -0.1347 -0.0273
 1779W        W 3979  15.030   6.541  12.896 -0.1968 -0.0638  0.0161
 1780W        W 3980  25.004   0.758  20.123 -0.0460 -0.0977  0.2254
 1781W        W 3981   2.833   3.062   4.990  0.1300 -0.0626 -0.0850
 1782W        W 3982  18.272   5.048  28.611 -0.2629 -0.1757 -0.3576
 1783W        W 3983   1.685   4.655   6.806  0.1096 -0.2612  0.0468
 1784W        W 3984   2.451   5.260  32.466 -0.1127  0.0736 -0.2463
 1785W        W 3985  23.803   1.483  21.060  0.1288 -0.1009 -0.0066
 1786W        W 3986  24.143   4.447  30.899  0.2150 -0.0144  0.2814
 1787W        W 3987   5.498   7.391  23.588  0.2036  0.0689  0.1185
 1788W        W 3988  24.160   3.471  31.907 -0.3416 -0.1512 -0.0488
 1789W        W 3989  22.909   1.655  30.652  0.2092 -0.4497 -0.0948
 1790W        W 3990  15.631   0.144   4.971  0.1887  0.2607 -0.0425
 1791W        W 3991  16.814   1.080   9.620 -0.0260  0.0071 -0.3421
 1792W        W 3992   3.711   1.128  26.559  0.0016 -0.1971  0.1039
 1793W        W 3993   3.538   6.609  14.160  0.0840 -0.1552  0.0752
 1794W        W 3994   5.504   7.382  29.285 -0.1719  0.1300 -0.1352
 1795W        W 3995  12.281   1.352   0.852  0.2343 -0.0192 -0.2248
 1796W        W 3996   4.897   1.264   3.788 -0.1362 -0.1987  0.2808
 1797W        W 3997   7.656   2.708   9.974 -0.0564 -0.2404  0.0690
 1798W        W 3998   6.279   5.476   7.940 -0.0279  0.0402 -0.0591
 1799W        W 3999  20.570   0.033  28.023  0.1313  0.2545 -0.1887
 1800W        W 4000  16.729   7.688  22.183  0.2561  0.0759  0.1739
 1801W        W 4001  16.624   5.985  26.218  0.3851 -0.0065 -0.1086
 1802W        W 4002  23.081   5.369  16.837  0.0971  0.0717  0.2463
 1803W        W 4003  20.237   5.763  15.052 -0.1487  0.0060 -0.0294
 1804W        W 4004  14.641   5.780  22.563 -0.2707 -0.5356 -0.2041
 1805W        W 4005  16.942   5.247  28.211 -0.0310  0.0007 -0.2781
 1806W        W 4006  22.433   3.805  31.482 -0.2279  0.0203 -0.1120
 1807W        W 4007  20.855   3.490   8.445  0.3043 -0.1150  0.2783
 1808W        W 4008  10.700   2.110  11.360  0.0042 -0.0060 -0.2661
 1809W        W 4009  11.684   2.029  31.219  0.1493 -0.0255  0.0365
 1810W        W 4010  11.545   6.441  32.603 -0.3528  0.4245  0.0850
 1811W        W 4011  12.577   6.206   6.803  0.1598 -0.0611 -0.1101
 1812W        W 4012  21.491   5.505  20.304  0.2518  0.0453 -0.3909
 1813W        W 4013  21.914   4.007   9.363  0.0167  0.0240 -0.0917
 1814W        W 4014  22.912   4.333  20.679 -0.3374 -0.3190  0.1977
 1815W        W 4015  14.190   3.989  27.188  0.0511 -0.0151 -0.4769
 1816W        W 4016  20.064   0.707  17.880 -0.4545  0.0793 -0.2277
 1817W        W 4017  22.705   7.134   8.940  0.1158  0.2195  0.0575
 1818W        W 4018  10.987   6.242   6.061 -0.0865  0.3799  0.0787
 1819W        W 4019  13.065   5.445   8.405 -0.0445 -0.1884 -0.1637
 1820W        W 4020   7.776   5.949  12.882 -0.0111 -0.0599 -0.1477
 1821W        W 4021   9.914   2.186  25.548 -0.2462  0.1779  0.4648
 1822W        W 4022  11.650   4.545   1.624 -0.0671  0.0579  0.3469
 1823W        W 4023  20.491   0.295   2.173 -0.0339 -0.3424 -0.0056
 1824W        W 4024  18.428   2.960  30.154 -0.0291  0.3562 -0.1342
 1825W        W 4025  13.392   3.203  22.239  0.0356  0.0015  0.1552
 1826W        W 4026  25.045   3.476  25.541  0.2695 -0.2752 -0.2187
 1827W        W 4027   8.094   5.486   6.814 -0.2870 -0.0764 -0.2344
 1828W        W 4028  23.374   1.878   6.085 -0.1079 -0.0817  0.1132
 1829W        W 4029  16.019   1.846  30.242  0.0243  0.1252  0.1045
 1830W        W 4030  12.873   2.953   3.480  0.2007 -0.1196  0.1992
 1831W        W 4031  11.015   4.598   8.294  0.1010  0.1005  0.2074
 1832W        W 4032   6.777   5.881   4.452  0.0040 -0.2990 -0.1318
 1833W        W 4033   7.669   0.815  26.087 -0.3017  0.0966  0.0115
 1834W        W 4034   1.442   4.960   3.879  0.0095  0.2527  0.1002
 1835W        W 4035  17.097   2.999  19.721  0.1191 -0.2005  0.1632
 1836W        W 4036   5.852   5.720   9.708 -0.0687 -0.0926 -0.1100
 1837W        W 4037   9.812   7.516   0.998  0.0128  0.1150 -0.0982
 1838W        W 4038  12.672   3.145   3.891  0.5912 -0.1017 -0.1820
 1839W        W 4039   8.713   2.847  26.632  0.2528  0.2892 -0.3422
 1840W        W 4040  11.478   4.412  16.244 -0.3292 -0.2725 -0.1639
 1841W        W 4041  20.440   4.677  25.600 -0.2003 -0.2899  0.3322
 1842W        W 4042  12.610   2.852   6.151  0.2081 -0.1249 -0.1539
 1843W        W 4043   5.977   0.277  32.161 -0.1526  0.2968 -0.0213
 1844W        W 4044   1.683   5.250  31.088 -0.1400 -0.2723  0.1368
 1845W        W 4045   8.528   3.412  28.271  0.0158 -0.1791 -0.1807
 1846W        W 4046  24.832   6.811  20.620  0.1435  0.3282  0.0140
 1847W        W 4047  21.462   1.976  31.291 -0.2141  0.3602 -0.2512
 1848W        W 4048   5.182   5.034   2.881  0.0567  0.1295  0.2034
 1849W        W 4049   8.184   3.411  13.841  0.1396  0.0114 -0.0123
 1850W        W 4050  17.238   0.898  23.623  0.1985  0.1044 -0.0358
 1851W        W 4051   8.106   0.695   2.931 -0.0676 -0.0107 -0.0069
 1852W        W 4052  13.375   2.466  27.841 -0.1142  0.1123 -0.0305
 1853W        W 4053  20.147   2.805   6.415  0.0219 -0.0098 -0.3174
 1854W        W 4054  21.398   1.418   4.841 -0.0346 -0.1911  0.0390
 1855W        W 4055   1.090   1.611   9.204  0.0875 -0.0200  0.5434
 1856W        W 4056  14.379   5.552   9.212  0.1694  0.2035  0.1042
 1857W        W 4057  16.274   6.654  10.241  0.2079 -0.1102  0.1304
 1858W        W 4058  18.295   3.747  22.070 -0.1736  0.0516  0.5407
 1859W        W 4059  12.803   1.414   0.329  0.3478 -0.2037  0.0736
 1860W        W 4060   1.747   4.138  27.521 -0.0180 -0.0467  0.1244
 1861W        W 4061  19.995   2.091  22.069  0.1119 -0.2002  0.1345
 1862W        W 4062  22.739   6.508  31.631  0.1395 -0.0275 -0.0362
 1863W        W 4063   0.181   0.279  29.933  0.1309 -0.0910 -0.1308
 1864W        W 4064  20.293   3.914  24.121 -0.2965  0.3460 -0.0063
 1865W        W 4065  10.390   5.148  31.216 -0.2244  0.2548  0.0723
 1866W        W 4066  18.006   4.422  26.262 -0.0544  0.2864  0.2519
 1867W        W 4067   7.053   0.426   8.588 -0.1185  0.1637  0.0232
 1868W        W 4068  22.681   5.155  14.658 -0.1473 -0.1492 -0.0119
 1869W        W 4069  13.690   2.527  24.425  0.2724  0.2862  0.0295
 1870W        W 4070  14.247   4.626  29.252 -0.4734  0.0274  0.0801
 1871W        W 4071   4.948   6.541  23.721  0.1027 -0.0516  0.1732
 1872W        W 4072   8.355   0.227  27.624 -0.0870  0.1323  0.0497
 1873W        W 4073  21.313   1.380   5.369  0.0151  0.1803  0.1888
 1874W        W 4074  20.035   5.478  27.710 -0.2433  0.0631  0.0003
 1875W        W 4075   4.633   3.401   7.089  0.2400  0.1362  0.0986
 1876W        W 4076   6.920   7.717  29.224 -0.2798 -0.1047 -0.1829
 1877W        W 4077  22.684   0.734  24.982 -0.1732  0.2953 -0.2396
 1878W        W 4078   5.912   0.366   1.523 -0.1169 -0.2666 -0.0671
 1879W        W 4079  13.976   7.253  22.606  0.0245 -0.2339 -0.4022
 1880W        W 4080   1.302   4.564  19.935 -0.1985 -0.2738 -0.3508
 1881W        W 4081  11.423   4.340  22.579  0.0406  0.1666  0.0986
 1882W        W 4082   8.710   4.971  13.810  0.0310 -0.1328  0.2086
 1883W        W 4083  13.073   1.017   2.781 -0.1345 -0.3659  0.0645
 1884W        W 4084  17.512   4.514  20.487 -0.3782  0.2306 -0.0030
 1885W        W 4085   6.775   1.676  13.454  0.0420  0.0173  0.1831
 1886W        W 4086  10.854   3.427  10.229  0.1309  0.1466 -0.1283
 1887W        W 4087  10.790   2.328  13.150  0.2804  0.0598  0.1204
 1888W        W 4088   7.908   2.888  24.956 -0.0397 -0.1466  0.1115
 1889W        W 4089  22.613   3.444  17.218 -0.1292 -0.0140  0.0136
 1890W        W 4090  23.420   4.125  15.009  0.1251 -0.3081 -0.0880
 1891W        W 4091  14.034   4.130  30.001  0.2009  0.1595 -0.0015
 1892W        W 4092  11.656   0.225  13.804  0.2699  0.0272 -0.0551
 1893W        W 4093  16.864   2.426  26.015  0.0749 -0.0582  0.1605
 1894W        W 4094   7.922   2.946  14.564 -0.2553  0.1313 -0.1035
 1895W        W 4095   9.280   5.129   1.636 -0.0570 -0.1868 -0.0910
 1896W        W 4096   8.794   6.340  25.584  0.3370  0.1635 -0.0673
 1897W        W 4097   7.071   4.932  10.017 -0.1673  0.0443 -0.1791
 1898W        W 4098   3.447   1.159  11.964 -0.0214 -0.1036 -0.0880
 1899W        W 4099  14.136   0.861   1.811 -0.1088 -0.0964 -0.0677
 1900W        W 4100   9.902   3.221  24.097 -0.0619 -0.1599 -0.0324
 1901W        W 4101   9.007   5.114  13.378  0.2631 -0.0839 -0.2393
 1902W        W 4102   6.957   0.655   4.202  0.1090  0.2648  0.0378
 1903W        W 4103  16.084   0.166   4.209 -0.2332  0.0985  0.0923
 1904W        W 4104   3.143   0.508   2.304  0.0974 -0.0330  0.0240
 1905W        W 4105  12.205   1.903  24.721  0.0732 -0.2866  0.0426
 1906W        W 4106  20.361   6.023  29.535 -0.1143  0.2460  0.2335
 1907W        W 4107   8.926   3.156  27.992  0.1719  0.1553  0.2278
 1908W        W 4108  15.645   2.531  11.049  0.0282  0.0431 -0.0862
 1909W        W 4109   7.135   6.802  24.083 -0.0084  0.1314 -0.1678
 1910W        W 4110   7.662   0.260   5.782 -0.1567 -0.0107  0.0053
 1911W        W 4111  14.077   5.323  23.806 -0.0837 -0.2186  0.2754
 1912W        W 4112  18.473   7.659   5.915  0.3189  0.0167  0.0255
 1913W        W 4113  10.223   4.434  23.818  0.0302 -0.0357 -0.1598
 1914W        W 4114   6.682   5.891  12.982 -0.2920  0.1149 -0.0073
 1915W        W 4115  14.740   1.319   9.498  0.0129  0.0419  0.3341
 1916W        W 4116  16.521   4.748   7.243  0.4738  0.1312 -0.0593
 1917W        W 4117  18.495   5.490   0.729  0.0335 -0.1029 -0.0794
 1918W        W 4118  18.122   6.793  31.651  0.0347  0.3372  0.1755
 1919W        W 4119   0.795   4.751  19.992 -0.0285  0.0133 -0.0870
 1920W        W 4120  19.028   6.881  22.760  0.3047 -0.4498 -0.4017
 1921W        W 4121  18.729   7.401  20.796 -0.1347 -0.1496  0.1352
 1922W        W 4122  14.723   4.269   3.302 -0.1780  0.1703 -0.0482
 1923W        W 4123   8.874   7.520   0.351  0.0096  0.0695 -0.0466
 1924W        W 4124  16.687   2.944   2.178 -0.2326  0.0264 -0.1506
 1925W        W 4125   9.383   5.097  18.411  0.2876  0.0283  0.0308
 1926W        W 4126  19.845   6.501  24.351  0.0275 -0.1773  0.2218
 1927W        W 4127   5.382   2.543  25.643  0.0120 -0.0038 -0.0342
 1928W        W 4128  11.650   0.903   6.724 -0.2189  0.2325 -0.0094
 1929W        W 4129   9.072   4.712   4.353 -0.1675  0.1652 -0.0866
 1930W        W 4130   3.726   4.305   9.646  0.0498  0.0795 -0.0770
 1931W        W 4131  23.717   3.163  29.971 -0.0886 -0.0821 -0.2508
 1932W        W 4132  15.277   1.522   6.529 -0.3016  0.3499 -0.0347
 1933W        W 4133  10.498   0.492  17.171 -0.0395 -0.0385  0.1362
 1934W        W 4134  10.083   4.708   4.196 -0.1692  0.0281  0.0445
 1935W        W 4135   6.873   3.297  30.512  0.0522  0.3131  0.0427
 1936W        W 4136   6.086   2.789  27.279  0.1092  0.1439 -0.1441
 1937W        W 4137   6.981   4.660  10.481  0.0919  0.0407 -0.1708
 1938W        W 4138  10.535   5.504  28.063  0.1611  0.1672 -0.2100
 1939W        W 4139   9.617   6.227   0.035  0.0865  0.1322 -0.1264
 1940W        W 4140   9.688   4.800  11.927 -0.0119 -0.0350  0.1422
 1941W        W 4141   7.175   2.763  31.765  0.1153  0.1149  0.0127
 1942W        W 4142  23.395   4.833  24.747  0.1827 -0.1754  0.0027
 1943W        W 4143  23.492   4.858   4.913  0.1515 -0.0968 -0.1581
 1944W        W 4144  11.893   7.582  30.487 -0.0386 -0.2027  0.0940
 1945W        W 4145  19.417   4.102   3.159  0.0596 -0.0017  0.1092
 1946W        W 4146  10.677   6.793  17.478  0.2234  0.1146  0.1219
 1947W        W 4147  17.922   4.487   4.056 -0.2827 -0.2417 -0.1441
 1948W        W 4148  15.370   1.569  11.295  0.0318  0.1264 -0.0411
 1949W        W 4149   8.854   0.238  25.996  0.1681 -0.1016 -0.2109
 1950W        W 4150  12.756   1.637   0.801 -0.1636  0.0721 -0.1129
 1951W        W 4151   1.241   2.381  21.320 -0.0538 -0.4371  0.1108
 1952W        W 4152  23.598   5.710  18.679  0.0056 -0.0901 -0.0661
 1953W        W 4153  14.313   3.562   6.924 -0.1613 -0.0860  0.5067
 1954W        W 4154   1.624   0.977  21.490 -0.3863  0.1990 -0.4099
 1955W        W 4155  20.387   3.605  31.053 -0.0459  0.0669  0.1546
 1956W        W 4156  10.420   0.695  14.893 -0.2746 -0.1581  0.1116
 1957W        W 4157  18.122   0.529   4.719  0.2565  0.0363 -0.0461
 1958W        W 4158  14.092   3.009   8.203  0.0671 -0.3171 -0.1250
 1959W        W 4159   8.564   3.559   3.177  0.2278  0.1679  0.1064
 1960W        W 4160  12.659   5.814  28.603  0.1730 -0.1696 -0.0351
 1961W        W 4161  21.926   5.349   5.758  0.0994 -0.1245 -0.0500
 1962W        W 4162   6.090   1.461  25.503 -0.2205  0.0986  0.2693
 1963W        W 4163   8.201   2.685  24.511  0.0337 -0.1620  0.0287
 1964W        W 4164  19.392   3.522   8.828  0.2770  0.3024 -0.0509
 1965W        W 4165   8.990   0.571  32.480 -0.0846  0.2788 -0.1572
 1966W        W 4166  19.901   3.317  19.035  0.1854 -0.1006 -0.1590
 1967W        W 4167  17.522   5.418  10.757 -0.1130 -0.1242  0.0435
 1968W        W 4168   7.804   5.161  10.233  0.0382 -0.1374 -0.0222
 1969W        W 4169  17.534   0.430  26.239 -0.1860 -0.3156  0.1968
 1970W        W 4170   3.496   6.837  28.271 -0.0781 -0.0504 -0.1455
 1971W        W 4171   2.760   6.915  22.524  0.0069 -0.0463 -0.1821
 1972W        W 4172  24.518   6.697  26.266 -0.1714 -0.0810  0.1081
 1973W        W 4173  22.366   2.453  31.117 -0.0988  0.1697 -0.1920
 1974W        W 4174   6.484   6.400  24.748  0.2774  0.4100  0.0299
 1975W        W 4175  15.224   1.286   3.670  0.2445  0.1580 -0.2652
 1976W        W 4176  10.203   1.739   1.415 -0.0275  0.1193 -0.0502
 1977W        W 4177  11.858   0.527   9.444 -0.2153  0.1765  0.1220
 1978W        W 4178   0.499   6.121  23.049 -0.0087 -0.1372 -0.0198
 1979W        W 4179  19.065   7.611  16.118  0.2272  0.3662  0.2822
 1980W        W 4180   6.267   0.245  11.130  0.3129 -0.2143  0.1292
 1981W        W 4181  23.556   6.296   5.644  0.0032  0.0471  0.1043
 1982W        W 4182   6.870   0.003  15.340 -0.2345  0.0729  0.0479
 1983W        W 4183  23.924   2.625  24.079  0.0680 -0.0784  0.1180
 1984W        W 4184   6.385   0.354  14.118 -0.1565 -0.0010  0.2743
 1985W        W 4185  22.486   2.038  30.442  0.2276 -0.1614 -0.3839
 1986W        W 4186  20.136   1.878  26.179 -0.3534  0.0764  0.0483
 1987W        W 4187  24.103   3.635  27.386  0.0968 -0.0642  0.2828
 1988W        W 4188  19.785   0.979   8.098 -0.2787  0.3016  0.0100
 1989W        W 4189  13.646   5.034  32.624  0.0816 -0.0348 -0.0274
 1990W        W 4190   3.320   1.064   7.841 -0.0926 -0.1362  0.2998
 1991W        W 4191   3.524   6.634  13.203 -0.1287 -0.0242 -0.0303
 1992W        W 4192  20.433   2.712   3.286  0.0870  0.0472  0.2545
 1993W        W 4193  20.686   1.980  21.538 -0.1514 -0.2097  0.1876
 1994W        W 4194   4.872   3.738   5.651  0.0111  0.1770 -0.1691
 1995W        W 4195  10.371   1.753   2.564  0.1918  0.1449 -0.0768
 1996W        W 4196  18.836   7.063  15.550  0.1378 -0.2723 -0.0105
 1997W        W 4197   8.379   7.766  15.046 -0.3476 -0.2509  0.0501
 1998W        W 4198  24.089   3.607  16.665 -0.0452 -0.1450 -0.2819
 1999W        W 4199  23.274   1.957  27.700 -0.0695 -0.0151  0.0595
 2000W        W 4200  23.392   4.961   8.546 -0.1054  0.0215  0.0917
 2001W        W 4201   1.944   7.824  28.214 -0.2345  0.1476 -0.1634
 2002W        W 4202  21.964   6.717   8.122 -0.0243  0.1847 -0.3003
 2003W        W 4203   2.202   6.367   3.407 -0.1131  0.1023  0.1636
 2004W        W 4204   9.139   1.642  23.246  0.1382  0.0706 -0.0151
 2005W        W 4205   7.845   7.467  30.128 -0.0610  0.1474  0.0117
 2006W        W 4206  23.730   3.029  17.760  0.0268 -0.1871 -0.2925
 2007W        W 4207  12.597   4.873  28.571  0.2671  0.0236  0.0106
 2008W        W 4208  14.473   1.041   3.014 -0.1292 -0.3080 -0.0442
 2009W        W 4209   2.748   0.463  12.116  0.0294  0.1283  0.0368
 2010W        W 4210   7.504   7.767  13.869  0.0784 -0.2859  0.1037
 2011W        W 4211   5.072   3.038   1.934 -0.3675  0.4981 -0.2986
 2012W        W 4212  23.703   7.091  32.340  0.3660 -0.2771  0.1765
 2013W        W 4213  10.949   7.283  28.107 -0.1664 -0.0229  0.1614
 2014W        W 4214   9.015   0.714  13.666  0.1025 -0.2463  0.0158
 2015W        W 4215  21.706   3.817   3.835 -0.0555  0.0738 -0.0082
 2016W        W 4216   3.696   5.625  30.372 -0.0768 -0.1902 -0.1109
 2017W        W 4217  19.874   7.675  24.137  0.2808  0.3030 -0.1280
 2018W        W 4218   4.004   3.824  12.894  0.0466  0.0388  0.0015
 2019W        W 4219   7.577   2.665  30.864  0.0720  0.0240  0.2895
 2020W        W 4220  15.030   0.363  11.920  0.1147  0.1089  0.1163
 2021W        W 4221  23.282   4.133   7.439  0.1221  0.1305  0.2484
 2022W        W 4222   8.547   4.701   5.133 -0.1451  0.0493 -0.2924
 2023W        W 4223  10.157   5.342  26.805 -0.0307 -0.1591 -0.0748
 2024W        W 4224   7.310   2.847  11.990 -0.0746 -0.2411  0.1923
 2025W        W 4225  20.378   4.938  18.976 -0.1837  0.1746  0.0142
 2026W        W 4226  20.206   6.988  29.057 -0.1208 -0.0164 -0.0886
 2027W        W 4227  16.746   0.734  19.311  0.0194 -0.0467  0.0695
 2028W        W 4228   5.386   5.200  12.026 -0.2513  0.3988  0.0106
 2029W        W 4229  17.826   2.258  20.869 -0.2989 -0.1563 -0.0099
 2030W        W 4230  13.557   5.133   9.577  0.0250  0.0325  0.1689
 2031W        W 4231  18.283   0.796   8.197 -0.1044 -0.0214 -0.1606
 2032W        W 4232   5.109   7.263  15.797 -0.1520 -0.1748  0.1551
 2033W        W 4233   8.234   4.230   4.362  0.5004  0.2082 -0.1565
 2034W        W 4234  21.317   7.084  20.410 -0.4795 -0.0087  0.1811
 2035W        W 4235   8.047   0.387  13.440  0.0978  0.1689  0.0008
 2036W        W 4236  12.447   5.055   1.839  0.2560  0.2012 -0.1012
 2037W        W 4237   3.654   6.834  26.824  0.2487  0.0553 -0.1768
 2038W        W 4238  20.765   5.838  29.873 -0.2487 -0.0641 -0.1235
 2039W        W 4239   6.720   6.071   1.743  0.1831  0.1624 -0.1381
 2040W        W 4240   9.494   7.493  12.789  0.2336 -0.0919 -0.1563
 2041W        W 4241  10.967   5.503  18.220 -0.1156 -0.0161 -0.2058
 2042W        W 4242  10.367   4.626  26.455  0.1150  0.3656  0.1683
 2043W        W 4243  16.600   2.883   4.654 -0.5343  0.2615  0.0477
 2044W        W 4244  11.869   4.963  24.254  0.2572  0.1364  0.0700
 2045W        W 4245  12.389   1.235  28.321 -0.1026 -0.1241  0.3346
 2046W        W 4246  17.639   2.080  31.821  0.2377 -0.1236 -0.2573
 2047W        W 4247   7.932   3.799   4.486 -0.3219 -0.1064 -0.1103
 2048W        W 4248  18.808   7.822   0.408 -0.0914 -0.1804  0.2338
 2049W        W 4249  23.894   6.961  27.737 -0.1473  0.0746  0.2997
 2050W        W 4250  14.207   4.363   9.168 -0.3285  0.1208  0.2038
 2051W        W 4251   1.425   3.013  22.601  0.1047 -0.0253  0.1612
 2052W        W 4252  20.325   5.986  26.943  0.2494 -0.0480 -0.1766
 2053W        W 4253   8.751   0.006   9.535  0.0131  0.1195 -0.0257
 2054W        W 4254   7.571   2.454   3.126  0.3164  0.0777  0.1660
 2055W        W 4255   2.387   3.016   1.476  0.0492 -0.0763  0.1815
 2056W        W 4256   8.784   6.197   0.403 -0.0154  0.1798 -0.1088
 2057W        W 4257  11.058   4.009   7.585 -0.0156  0.0286  0.1215
 2058W        W 4258  23.905   6.352  19.548 -0.2035 -0.1337 -0.2552
 2059W        W 4259  12.537   6.790   9.806  0.0130 -0.1616 -0.1682
 2060W        W 4260   1.278   6.969  25.167 -0.0701  0.0495 -0.0569
 2061W        W 4261  22.198   7.584   7.571 -0.0972 -0.0727  0.1829
 2062W        W 4262   5.686   2.616  12.167  0.0773  0.0684 -0.1719
 2063W        W 4263   6.657   4.227  26.874  0.0816 -0.0343  0.0358
 2064W        W 4264   0.390   0.902  20.907 -0.1988 -0.1352 -0.2505
 2065W        W 4265  15.161   1.618   8.385 -0.0386 -0.3563 -0.2888
 2066W        W 4266   7.402   1.670  31.836 -0.2523  0.1725 -0.0432
 2067W        W 4267   5.701   0.988   5.443  0.1479  0.1084  0.2545
 2068W        W 4268  10.718   5.454  11.531 -0.0226  0.1345  0.0027
 2069W        W 4269   5.548   1.760  12.501 -0.1515  0.0748 -0.1151
 2070W        W 4270   8.977   6.221  17.543  0.1619  0.2194  0.1083
 2071W        W 4271  15.486   0.028   5.441 -0.0146 -0.2935 -0.2430
 2072W        W 4272  22.974   0.328  26.602 -0.0982  0.2630  0.1940
 2073W        W 4273  11.854   3.078  24.186  0.1795 -0.2508 -0.2982
 2074W        W 4274  24.416   6.441  28.797 -0.3598 -0.0080 -0.0423
 2075W        W 4275   0.188   5.459  30.734 -0.0585 -0.1763 -0.0466
 2076W        W 4276   8.057   0.277   7.598 -0.1251  0.1756 -0.0048
 2077W        W 4277   8.047   0.621  27.872 -0.0058  0.1600 -0.0170
 2078W        W 4278  14.899   4.826  28.688  0.1501  0.0652 -0.0154
 2079W        W 4279   8.584   1.492   0.328  0.0451  0.3043 -0.0266
 2080W        W 4280   1.060   2.970   4.779 -0.1775 -0.1167 -0.0976
 2081W        W 4281   5.387   0.096  14.977 -0.1163 -0.1903 -0.0499
 2082W        W 4282   7.337   3.322  10.677  0.2097 -0.4063 -0.1055
 2083W        W 4283  14.711   6.686  22.155  0.1189 -0.0179 -0.3171
 2084W        W 4284  19.130   3.902   4.491  0.1792 -0.3658  0.1717
 2085W        W 4285   3.671   5.535  25.670 -0.1709 -0.1013 -0.1073
 2086W        W 4286  14.660   4.469   2.329 -0.0000 -0.1077 -0.0606
 2087W        W 4287   4.732   2.462  26.116 -0.1675  0.0523  0.2356
 2088W        W 4288   9.553   5.199  17.984 -0.1499  0.0077 -0.0793
 2089W        W 4289  16.042   0.260  22.441 -0.1238  0.0573  0.1327
 2090W        W 4290   1.643   2.694  29.009 -0.1639  0.0650  0.2018
 2091W        W 4291   2.399   6.072  20.830 -0.1998 -0.0900 -0.0871
 2092W        W 4292  14.085   0.736  31.202 -0.1631  0.0602 -0.0059
 2093W        W 4293  17.211   4.360  23.809 -0.1944 -0.1185 -0.0293
 2094W        W 4294   8.982   7.416  10.962 -0.2897  0.0924  0.0407
 2095W        W 4295  17.653   6.929   1.236  0.1764  0.0169  0.1703
 2096W        W 4296  24.739   4.051  18.994 -0.2549  0.1437  0.1977
 2097W        W 4297  10.297   1.983  26.599  0.1682  0.2067 -0.1167
 2098W        W 4298  24.215   2.213  19.047  0.0156  0.0207  0.1037
 2099W        W 4299   0.897   2.586   0.589 -0.3115  0.0469  0.0689
 2100W        W 4300  21.529   0.669  27.418  0.0521  0.0089 -0.1814
 2101W        W 4301  19.338   1.546   7.117  0.1353  0.2078  0.2172
 2102W        W 4302   1.240   0.618   4.137 -0.2029 -0.2138  0.0826
 2103W        W 4303  12.357   3.226  29.854 -0.1755 -0.0816  0.0681
 2104W        W 4304   5.548   7.510  25.079 -0.1003 -0.1678  0.0315
 2105W        W 4305   3.961   6.483   0.233 -0.1608 -0.0426 -0.1422
 2106W        W 4306  16.010   7.768  11.861  0.1380  0.0375 -0.3100
 2107W        W 4307  22.483   7.352  17.216  0.0710  0.2802  0.0278
 2108W        W 4308   1.575   0.785  22.989  0.0364 -0.1726 -0.0674
 2109W        W 4309  21.301   3.745  30.749  0.3140  0.0401  0.0217
 2110W        W 4310   9.703   5.431   0.220 -0.0771  0.4086 -0.1084
 2111W        W 4311   5.116   2.755  32.215 -0.2639 -0.1519  0.1986
 2112W        W 4312  14.018   7.102   4.140  0.1916  0.1955 -0.2383
 2113W        W 4313   4.141   0.892  28.628 -0.2918 -0.1550 -0.1259
 2114W        W 4314  24.887   5.117   7.715 -0.1275  0.0980 -0.3105
 2115W        W 4315  22.210   4.652   4.458 -0.0184 -0.0464  0.1390
 2116W        W 4316  22.752   2.554  26.158  0.2935 -0.3896  0.2123
 2117W        W 4317   9.793   7.014  27.340  0.0485  0.1704  0.0861
 2118W        W 4318   9.939   3.886  30.280 -0.0441 -0.1370 -0.1459
 2119W        W 4319  12.423   7.049  31.550 -0.3934 -0.3468 -0.3168
 2120W        W 4320   4.943   5.162  14.615 -0.1128  0.3377 -0.1023
 2121W        W 4321  13.278   2.834   9.243 -0.3211  0.2069 -0.3411
 2122W        W 4322   2.018   2.498   4.017 -0.2840 -0.2125 -0.1298
 2123W        W 4323  19.695   0.731   7.227 -0.0673 -0.1990  0.1530
 2124W        W 4324  23.335   3.542  29.049 -0.2854  0.3905  0.3214
 2125W        W 4325  19.837   7.484   5.723 -0.0883 -0.2652  0.3330
 2126W        W 4326  11.775   0.738  27.731  0.0846 -0.0173  0.0980
 2127W        W 4327  14.433   0.240  23.264  0.2955  0.0521 -0.1688
 2128W        W 4328   8.897   7.146   6.151 -0.1120 -0.1326  0.0390
 2129W        W 4329   3.512   5.862  12.544  0.0884 -0.3517 -0.1796
 2130W        W 4330  22.931   1.393  25.936 -0.2641  0.0563  0.0131
 2131W        W 4331  15.619   1.784   3.413 -0.0329  0.1535 -0.0967
 2132W        W 4332  11.642   1.328   4.907 -0.0075  0.3445  0.0465
 2133W        W 4333   0.700   1.246   7.228  0.0608 -0.2609 -0.2115
 2134W        W 4334   3.145   2.483  30.583 -0.2673  0.0353  0.1656
 2135W        W 4335   5.856   0.076  17.443 -0.0001 -0.0010 -0.1839
 2136W        W 4336  21.042   3.428  15.172 -0.1565 -0.1615 -0.2511
 2137W        W 4337   7.792   2.858  24.307  0.3318  0.2578 -0.0017
 2138W        W 4338  15.699   2.052   6.198  0.0792 -0.2149  0.0514
 2139W        W 4339  17.287   1.367   3.493 -0.1550 -0.2012  0.4868
 2140W        W 4340   9.400   3.019   7.775  0.2521  0.2105 -0.3129
 2141W        W 4341  10.055   3.518  14.851  0.0810 -0.0141  0.1235
 2142W        W 4342  21.997   0.818  27.232  0.1943 -0.0521  0.3219
 2143W        W 4343  18.502   2.937  20.963 -0.1075 -0.0915 -0.1944
 2144W        W 4344  24.387   1.034  29.365 -0.2315 -0.2258  0.3383
 2145W        W 4345  23.176   4.206  31.400 -0.1072 -0.1406 -0.2094
 2146W        W 4346  17.144   0.824   6.058  0.0536  0.2134  0.2864
 2147W        W 4347  10.613   5.663  23.748  0.1449  0.0294 -0.1273
 2148W        W 4348  23.542   4.755  25.541  0.0771 -0.0789 -0.3233
 2149W        W 4349   6.146   3.013  24.681  0.1536 -0.2681 -0.1419
 2150W        W 4350  20.059   1.507  30.975  0.0120  0.0383  0.0473
 2151W        W 4351  24.059   7.809   9.709  0.2899 -0.1146 -0.2564
 2152W        W 4352  16.542   6.935  32.385  0.1891  0.3411 -0.3070
 2153W        W 4353  13.321   3.146   7.003  0.3512 -0.0590 -0.0957
 2154W        W 4354  24.900   2.705  20.407 -0.0757 -0.2910  0.0459
 2155W        W 4355  20.633   6.689   8.501 -0.0744  0.0759  0.1885
 2156W        W 4356   6.347   4.362  28.566  0.0027 -0.0303  0.0557
 2157W        W 4357   5.066   0.530   9.915  0.0607 -0.0185 -0.1438
 2158W        W 4358  22.091   5.196   7.280  0.2048  0.0101  0.0072
 2159W        W 4359  19.717   1.944  17.337  0.1509  0.2370 -0.2344
 2160W        W 4360  19.423   4.570  30.079 -0.1678  0.0628 -0.0108
 2161W        W 4361   2.966   5.471   4.816  0.1673  0.1089 -0.3232
 2162W        W 4362  11.452   1.200  30.075 -0.1358  0.0830  0.0861
 2163W        W 4363  13.471   6.726   9.459  0.0448  0.1230 -0.1216
 2164W        W 4364  19.285   5.749  10.323  0.2329  0.1439 -0.1730
 2165W        W 4365  14.190   2.033  11.433  0.2019  0.0059  0.0149
 2166W        W 4366  11.966   3.244  13.312  0.0881 -0.0918  0.0375
 2167W        W 4367  20.778   7.747  20.160 -0.1038 -0.2882 -0.2115
 2168W        W 4368  15.152   7.386   1.466 -0.0180  0.0675 -0.0154
 2169W        W 4369  22.959   2.413  20.228  0.1499  0.0143  0.2154
 2170W        W 4370  10.265   3.963  11.538  0.0825  0.0206  0.0233
 2171W        W 4371  17.274   4.925  10.683  0.0816  0.0229 -0.1699
 2172W        W 4372  10.183   0.463  25.437  0.1636 -0.0943 -0.1878
 2173W        W 4373  23.432   3.403  20.925 -0.0255 -0.0689  0.0374
 2174W        W 4374  24.673   5.742  26.372  0.3944 -0.2139 -0.0679
 2175W        W 4375   8.898   0.337  27.415  0.1597 -0.2386 -0.2619
 2176W        W 4376   0.603   4.740  26.600  0.0462  0.0238  0.0687
 2177W        W 4377   7.292   1.330  31.427 -0.1099  0.2962 -0.1629
 2178W        W 4378   0.915   2.019  18.729 -0.2137 -0.1010  0.0862
 2179W        W 4379   0.105   4.188  17.099  0.1410 -0.0963  0.1734
 2180W        W 4380   8.605   2.459   1.013  0.0242  0.0158  0.0899
 2181W        W 4381   3.933   2.346  27.131 -0.0572 -0.0960 -0.1980
 2182W        W 4382   1.823   3.907   3.873  0.1114 -0.0892 -0.0648
 2183W        W 4383   1.639   2.935  17.311 -0.0564  0.2574 -0.1179
 2184W        W 4384   0.755   7.599   3.265  0.0451  0.1550 -0.2261
 2185W        W 4385   1.800   6.104   6.410  0.2099  0.0597 -0.1944
 2186W        W 4386  20.105   6.555   0.491  0.0303 -0.2130 -0.3986
 2187W        W 4387   0.020   6.425   4.417 -0.2366 -0.3783  0.0501
 2188W        W 4388   8.816   2.082  15.667  0.1526  0.0546  0.1696
 2189W        W 4389  17.869   3.275   4.957  0.0199 -0.1246  0.0419
 2190W        W 4390   9.613   2.390   5.722  0.1438 -0.1377  0.3760
 2191W        W 4391  13.832   7.744   8.507 -0.1410  0.0410 -0.0618
 2192W        W 4392   3.280   1.115  24.366 -0.2440 -0.3854 -0.1873
 2193W        W 4393   9.849   2.614  10.840 -0.2067 -0.0233  0.1117
 2194W        W 4394  14.860   1.048   6.432  0.0523  0.0537  0.0617
 2195W        W 4395  12.099   0.434  22.466 -0.0103 -0.2153 -0.1268
 2196W        W 4396   3.021   6.390   3.994  0.0162  0.1485 -0.0391
 2197W        W 4397   3.217   5.709   8.086  0.0277  0.0998 -0.1518
 2198W        W 4398   5.245   5.503   3.162  0.1964 -0.0677  0.0984
 2199W        W 4399  19.369   0.131  14.632  0.1724 -0.2933  0.0675
 2200W        W 4400   2.477   4.073  32.015  0.0123 -0.2343 -0.1198
 2201W        W 4401  13.349   0.600  32.532  0.0716  0.0743 -0.0572
 2202W        W 4402  21.706   3.180  15.802  0.0013  0.0636 -0.2771
 2203W        W 4403  12.624   5.917   8.288 -0.1865  0.1589 -0.3166
 2204W        W 4404   5.342   1.763  29.756  0.2900  0.2311 -0.2524
 2205W        W 4405  24.134   0.243   9.255  0.1355  0.1719 -0.1008
 2206W        W 4406  24.187   4.602   2.467 -0.1001  0.0082  0.2151
 2207W        W 4407  12.334   5.465  14.308 -0.0663 -0.4362  0.1223
 2208W        W 4408   5.306   3.065   6.852  0.1531 -0.0050 -0.0752
 2209W        W 4409  20.487   1.466  23.877 -0.1703 -0.2491 -0.1714
 2210W        W 4410   0.781   1.810   8.928  0.1956 -0.0453 -0.0039
 2211W        W 4411  20.601   4.011   1.982  0.0141 -0.2192 -0.0900
 2212W        W 4412   2.232   0.907   8.369 -0.2409  0.1535  0.2412
 2213W        W 4413   6.963   0.400  29.785 -0.1140 -0.0288  0.1307
 2214W        W 4414   0.693   6.157  28.811 -0.2339 -0.0959  0.0155
 2215W        W 4415  13.732   5.082   8.037  0.1202  0.1303 -0.0163
 2216W        W 4416  10.285   6.279  27.134 -0.2201  0.0697  0.1062
 2217W        W 4417  15.714   5.605  11.232 -0.2677  0.0500  0.0797
 2218W        W 4418  15.979   2.712  26.349  0.2692  0.1621  0.1604
 2219W        W 4419   0.820   5.034   6.386 -0.1474  0.1874  0.0017
 2220W        W 4420   0.168   4.593  18.053 -0.2015  0.1215  0.1683
 2221W        W 4421  22.379   2.478  22.017 -0.2036 -0.0609 -0.0082
 2222W        W 4422  24.125   3.165   7.545  0.1749 -0.0416 -0.1653
 2223W        W 4423  15.428   3.649   1.756 -0.1460  0.2122 -0.0217
 2224W        W 4424  16.304   3.191  24.912  0.0984  0.3045 -0.0067
 2225W        W 4425  16.919   3.235  17.710 -0.0953 -0.2169  0.1620
 2226W        W 4426   6.733   6.462   9.555 -0.1328 -0.0139  0.2444
 2227W        W 4427  21.920   5.223  29.785 -0.0603  0.1825  0.2165
 2228W        W 4428   2.351   0.574  29.766 -0.2212 -0.1938 -0.3754
 2229W        W 4429  10.959   4.100  16.601 -0.0018  0.0449 -0.0379
 2230W        W 4430  10.977   2.395  14.266  0.1261  0.0551 -0.1802
 2231W        W 4431   2.493   5.903  12.954  0.1482  0.1675  0.2228
 2232W        W 4432  21.351   4.249  25.601  0.3883  0.2504 -0.3016
 2233W        W 4433  24.217   0.857   7.923  0.0162  0.1135  0.1985
 2234W        W 4434  17.599   2.184  27.606  0.1614 -0.1809  0.0400
 2235W        W 4435  12.469   7.024   1.640 -0.0122 -0.0574  0.2786
 2236W        W 4436  12.208   1.994   6.089  0.1821  0.3981  0.0347
 2237W        W 4437   7.595   7.143  29.781 -0.1473  0.0342 -0.4620
 2238W        W 4438  15.181   3.875  30.174 -0.2066  0.0469  0.0517
 2239W        W 4439   1.680   0.914   4.610  0.0383  0.1836 -0.1485
 2240W        W 4440  21.997   1.898  20.814  0.2579 -0.3009 -0.0805
 2241W        W 4441  14.550   4.659  31.319  0.3017  0.2596  0.1567
 2242W        W 4442  22.678   7.651   8.432 -0.1582  0.0967  0.3335
 2243W        W 4443   4.040   4.252  23.801  0.0707  0.2184 -0.3003
 2244W        W 4444  22.538   4.532  27.855 -0.2562  0.3075  0.1733
 2245W        W 4445  15.784   5.550  23.101  0.0851  0.0936  0.2961
 2246W        W 4446  19.520   4.341   7.143 -0.0140  0.1537  0.0482
 2247W        W 4447  16.436   1.847  31.204 -0.1050  0.2284  0.2972
 2248W        W 4448   7.054   3.456   0.798 -0.1028 -0.3708 -0.0700
 2249W        W 4449  16.156   4.576   8.917  0.0373 -0.1093  0.1435
 2250W        W 4450   2.472   1.204   4.678  0.1488 -0.1232 -0.1649
 2251W        W 4451  23.120   3.009   2.409  0.1909  0.1078 -0.0275
 2252W        W 4452  10.504   1.474  13.547 -0.1796 -0.0515  0.1225
 2253W        W 4453   4.177   4.914  28.979  0.0351 -0.2245 -0.0082
 2254W        W 4454  18.870   1.554   1.282 -0.0558  0.1879  0.0474
 2255W        W 4455  20.423   5.196   0.140  0.0646  0.0183  0.1931
 2256W        W 4456   2.575   5.523  23.425  0.0751  0.1727  0.1854
 2257W        W 4457  24.933   6.698  21.332  0.1992  0.1242  0.0948
 2258W        W 4458   7.020   4.982  31.961  0.0590  0.1127 -0.1045
 2259W        W 4459  20.456   7.802  31.474  0.0590  0.0684 -0.0853
 2260W        W 4460  20.190   7.812   2.560  0.1060 -0.1154  0.1937
 2261W        W 4461   9.612   3.412   0.647 -0.0168  0.0832 -0.1417
 2262W        W 4462  23.487   6.760  17.738  0.1324 -0.0385 -0.0644
 2263W        W 4463  11.575   7.107  23.481 -0.1405 -0.0330  0.0461
 2264W        W 4464   0.535   1.977  21.495 -0.1783  0.0303  0.0724
 2265W        W 4465  17.412   5.344   1.980 -0.0999  0.1715  0.0733
 2266W        W 4466  12.293   1.116  31.793 -0.2834 -0.1557  0.0925
 2267W        W 4467  10.869   5.983  10.340 -0.0397  0.3430 -0.0756
 2268W        W 4468  23.569   5.996   4.683  0.1338 -0.2394  0.0104
 2269W        W 4469  22.617   5.818   9.641 -0.1089 -0.1289 -0.2431
 2270W        W 4470  16.846   1.617  11.885  0.2871 -0.0809 -0.0217
 2271W        W 4471   1.475   3.606  30.169 -0.3448 -0.3484 -0.0708
 2272W        W 4472  15.370   7.584  29.941  0.0946 -0.0540 -0.1897
 2273W        W 4473   8.628   1.008   4.247  0.0464 -0.2091  0.1589
 2274W        W 4474  24.374   3.487  18.324 -0.0957  0.2760 -0.0770
 2275W        W 4475   1.636   6.365  12.231  0.1844 -0.1013 -0.0558
 2276W        W 4476   8.790   4.772   7.178 -0.0035 -0.1012 -0.1329
 2277W        W 4477  18.760   2.827   8.512 -0.0370 -0.1578  0.2077
 2278W        W 4478   9.243   5.982  26.638  0.1564 -0.1016 -0.1435
 2279W        W 4479  19.853   3.443  21.865 -0.1199 -0.1222 -0.0176
 2280W        W 4480   2.008   6.247   0.442 -0.0328 -0.3597 -0.0741
 2281W        W 4481  16.586   5.828  26.723 -0.0700 -0.1185 -0.1001
 2282W        W 4482  10.478   7.076  32.112 -0.0568 -0.3184 -0.0399
 2283W        W 4483   3.390   4.540   2.122 -0.1943 -0.1297  0.0817
 2284W        W 4484   5.828   2.142  26.995 -0.0199 -0.0508  0.0438
 2285W        W 4485  11.374   7.727  14.824 -0.1139 -0.0442  0.1374
 2286W        W 4486  18.374   6.574  23.868 -0.1315  0.0643  0.2854
 2287W        W 4487   3.864   7.716  31.811  0.0758  0.0796  0.2314
 2288W        W 4488   3.356   5.256  23.747  0.0813 -0.0387  0.1129
 2289W        W 4489  17.722   4.870   8.564  0.2733  0.0866  0.0927
 2290W        W 4490  13.182   6.588   8.469 -0.1428  0.1693 -0.2236
 2291W        W 4491  10.584   1.691   6.804  0.1142  0.0080 -0.0317
 2292W        W 4492   7.605   6.709  31.543 -0.0006 -0.3478  0.1169
 2293W        W 4493   6.681   7.048  16.690  0.2972 -0.0866  0.0795
 2294W        W 4494   6.622   2.194  21.646  0.0744  0.0479  0.0975
 2295W        W 4495   6.083   3.564  10.184  0.0080  0.1383 -0.0687
 2296W        W 4496   2.081   1.487  31.164  0.1166 -0.0637  0.1231
 2297W        W 4497  22.255   4.198  15.267  0.1428  0.2421  0.1200
 2298W        W 4498  21.920   5.836  27.501  0.1100  0.1155 -0.2709
 2299W        W 4499   8.170   2.912  28.416  0.3254  0.0388  0.2018
 2300W        W 4500   2.873   2.780  23.906  0.0431  0.0142 -0.1532
 2301W        W 4501  24.385   4.099  26.467 -0.0533 -0.0311 -0.0971
 2302W        W 4502  16.034   7.164   1.650 -0.2879 -0.1458  0.2561
 2303W        W 4503  12.845   4.387  32.707  0.2399 -0.2002 -0.0854
 2304W        W 4504  21.106   0.020  23.912  0.1877 -0.0245  0.0609
 2305W        W 4505   3.376   0.188  24.309  0.0935  0.0848 -0.1333
 2306W        W 4506  13.171   2.234  25.483  0.2924 -0.1681 -0.1196
 2307W        W 4507   9.036   0.674  15.121 -0.0053  0.1876  0.0543
 2308W        W 4508  11.504   0.573  22.323 -0.0232  0.0125  0.1916
 2309W        W 4509  11.963   6.755   3.693 -0.4040  0.2290  0.1240
 2310W        W 4510   6.517   1.609  23.857 -0.1380 -0.2981 -0.2497
 2311W        W 4511   0.339   5.950  20.605 -0.4154 -0.1152  0.0433
 2312W        W 4512   5.014   5.430  16.291 -0.0368  0.1050 -0.0538
 2313W        W 4513  15.157   2.877  28.848  0.0244 -0.0679  0.2728
 2314W        W 4514  18.061   7.045  17.870 -0.0721  0.1129 -0.1633
 2315W        W 4515   1.606   6.446   6.717 -0.0852  0.1820  0.1831
 2316W        W 4516  14.363   5.766  26.974  0.1426  0.0778  0.3192
 2317W        W 4517  11.377   5.069   3.927  0.1929 -0.0564  0.0208
 2318W        W 4518   2.445   0.991   9.955  0.0608  0.1749  0.2344
 2319W        W 4519   3.711   2.650   4.087 -0.1845 -0.2057  0.4939
 2320W        W 4520  23.890   0.802  23.378 -0.1700  0.0417  0.1277
 2321W        W 4521   1.367   1.749   7.700  0.0912  0.0364  0.2854
 2322W        W 4522  20.103   2.105  28.768 -0.2150 -0.4795  0.1808
 2323W        W 4523  17.594   4.117   1.263 -0.0038  0.0069 -0.1657
 2324W        W 4524   5.925   6.302   4.575  0.2886 -0.3906 -0.0145
 2325W        W 4525  20.446   1.302  25.693 -0.0132 -0.0772  0.0252
 2326W        W 4526   4.178   3.121   8.342 -0.1692 -0.1800  0.2221
 2327W        W 4527   8.704   1.642  30.717 -0.1317 -0.0952 -0.1097
 2328W        W 4528  24.080   1.067  15.112 -0.2619 -0.3300 -0.0205
 2329W        W 4529  23.356   4.416   0.065  0.2626  0.1974 -0.2049
 2330W        W 4530  20.071   5.705  20.510  0.0517  0.2729 -0.1771
 2331W        W 4531   0.006   4.900   0.494 -0.0627 -0.3419  0.1437
 2332W        W 4532   2.544   0.011  12.421 -0.2900  0.1575 -0.0462
 2333W        W 4533   9.879   0.151  27.708 -0.4809  0.0499  0.1626
 2334W        W 4534  13.937   5.408  26.961  0.1514  0.0366  0.1372
 2335W        W 4535  17.261   0.851   3.397 -0.4388  0.0552  0.1107
 2336W        W 4536  15.806   3.158   9.841  0.0653  0.2785 -0.0294
 2337W        W 4537  20.526   0.062  29.405  0.3853  0.1715  0.1855
 2338W        W 4538  14.988   1.133  20.678  0.0452  0.0029 -0.0185
 2339W        W 4539   8.951   2.551  16.342  0.0961 -0.1842 -0.1216
 2340W        W 4540  24.478   4.167   4.605  0.4394 -0.0331 -0.2531
 2341W        W 4541  22.997   1.333  28.443  0.1254  0.3931 -0.0996
 2342W        W 4542  13.639   6.439   9.966 -0.0235  0.0345  0.2430
 2343W        W 4543   4.059   6.701   7.992 -0.1280  0.0863  0.0005
 2344W        W 4544  11.771   3.449   3.849 -0.3860  0.1170 -0.1804
 2345W        W 4545  14.440   5.473   5.688  0.2816 -0.1234  0.3214
 2346W        W 4546   5.563   6.759  29.259 -0.1701  0.1509 -0.0156
 2347W        W 4547   4.991   1.490  24.421  0.0403 -0.1468 -0.1463
 2348W        W 4548  18.692   6.928   6.227  0.2189  0.0152  0.0638
 2349W        W 4549  11.183   5.050  32.009  0.2848  0.2023  0.4114
 2350W        W 4550  18.191   7.266   0.488 -0.0868 -0.2671  0.3680
 2351W        W 4551  12.942   0.142  12.621 -0.0722 -0.1087  0.1200
 2352W        W 4552   1.818   0.292  20.511 -0.0585  0.2605  0.3294
 2353W        W 4553  17.570   1.439   1.075 -0.1896  0.0186 -0.3579
 2354W        W 4554   8.246   5.532  24.411  0.0333  0.1217  0.0372
 2355W        W 4555  18.927   4.759  32.644  0.2364 -0.0863  0.3201
 2356W        W 4556   4.033   3.653   7.378  0.2169  0.0491 -0.0958
 2357W        W 4557   4.356   5.153  30.649 -0.1263 -0.1594  0.1099
 2358W        W 4558  10.754   6.621   4.009  0.1529 -0.1432  0.1457
 2359W        W 4559   8.668   6.831  24.290  0.0692 -0.3149 -0.1264
 2360W        W 4560  13.305   3.781   0.767  0.0964 -0.0626 -0.0547
 2361W        W 4561  19.859   2.097   6.142  0.1024 -0.0781 -0.1181
 2362W        W 4562  12.480   4.080  28.024 -0.2613 -0.2104 -0.0917
 2363W        W 4563  19.010   4.788  30.201 -0.1673 -0.3294 -0.3506
 2364W        W 4564   7.141   4.260  27.053  0.0454 -0.0884  0.0629
 2365W        W 4565   7.525   2.172  13.273 -0.0117  0.0384  0.1445
 2366W        W 4566  18.761   5.372  20.970  0.1407 -0.0775 -0.1540
 2367W        W 4567  11.324   1.015   1.062  0.1956  0.0161 -0.1075
 2368W        W 4568  11.841   2.503   4.010 -0.0698  0.0451  0.0488
 2369W        W 4569  14.232   6.619  10.477  0.0761  0.4365 -0.1521
 2370W        W 4570   5.467   2.406  10.796  0.0582 -0.1387 -0.0849
 2371W        W 4571  21.851   2.399  30.064 -0.2174 -0.1335  0.0769
 2372W        W 4572   1.158   3.128   3.302  0.0080 -0.0873 -0.2025
 2373W        W 4573   9.526   3.691   9.079 -0.0475  0.0572  0.1927
 2374W        W 4574  18.032   2.979   9.434  0.0369 -0.0141 -0.0528
 2375W        W 4575   8.226   0.149  24.713  0.0321  0.0030 -0.0278
 2376W        W 4576  12.253   3.170   5.044  0.0849  0.0296 -0.1497
 2377W        W 4577   2.498   4.345   5.250  0.0778  0.1565 -0.0062
 2378W        W 4578   3.651   0.023  14.531  0.0705 -0.2736  0.0775
 2379W        W 4579   9.348   5.951   7.402 -0.2707 -0.0170  0.0691
 2380W        W 4580  22.094   0.139  20.075  0.1019  0.1138 -0.1254
 2381W        W 4581  12.084   0.880   8.319 -0.2770  0.3856 -0.1605
 2382W        W 4582   5.335   6.333   0.574  0.1905  0.0643  0.1011
 2383W        W 4583   8.005   5.971  27.022  0.3287  0.0088  0.3219
 2384W        W 4584   7.832   4.185   2.187  0.1256 -0.3004  0.1941
 2385W        W 4585  23.331   0.908   3.269 -0.1538 -0.2611  0.0149
 2386W        W 4586  24.582   5.610  25.018 -0.0427 -0.3231  0.1693
 2387W        W 4587   1.655   2.030  29.576 -0.0706 -0.1484 -0.0575
 2388W        W 4588  22.960   5.434  22.652  0.0112 -0.1384 -0.0564
 2389W        W 4589  14.813   5.985  26.289  0.0137 -0.1490  0.1619
 2390W        W 4590   6.629   1.279  10.312  0.1681  0.1980 -0.3259
 2391W        W 4591   5.100   1.718  28.023  0.0839  0.1199 -0.0232
 2392W        W 4592  20.718   6.160  25.571 -0.0277 -0.5221 -0.3187
 2393W        W 4593  12.569   4.633  29.755 -0.0003 -0.2189  0.1086
 2394W        W 4594   1.657   5.772   9.171  0.1258  0.2846 -0.0082
 2395W        W 4595  19.142   1.886  14.713  0.2843  0.0808 -0.4625
 2396W        W 4596   8.775   6.153   4.177  0.1367 -0.0817 -0.1264
 2397W        W 4597   7.398   5.239  26.633 -0.1968  0.0987 -0.2963
 2398W        W 4598   1.901   4.638  20.763  0.1500  0.2058  0.0916
 2399W        W 4599  19.790   6.081   4.187  0.0562  0.0208  0.1416
 2400W        W 4600   0.839   0.996  19.017 -0.1069 -0.0098 -0.0224
 2401W        W 4601   5.070   3.963   6.391  0.1255 -0.1579  0.2810
 2402W        W 4602  16.836   2.331  10.594 -0.1010 -0.0037 -0.0478
 2403W        W 4603  16.471   7.460  19.029 -0.0554 -0.1126 -0.2452
 2404W        W 4604   4.347   5.264  29.292 -0.3935  0.0727  0.0674
 2405W        W 4605   1.347   2.608  19.045  0.1064  0.0875 -0.0544
 2406W        W 4606  14.158   4.830  31.025 -0.0379  0.3530  0.1857
 2407W        W 4607   7.685   2.194  23.435 -0.0223 -0.1582 -0.2764
 2408W        W 4608   2.836   0.205  25.099  0.1382 -0.1547 -0.1418
 2409W        W 4609   8.136   0.406  14.554  0.0168  0.1309  0.1060
 2410W        W 4610  10.811   7.642   6.430 -0.1013 -0.1322  0.0991
 2411W        W 4611  14.065   2.872  24.483 -0.1188  0.1007 -0.0753
 2412W        W 4612   6.631   6.863   1.188 -0.1903 -0.4740  0.1535
 2413W        W 4613  21.858   6.428  18.422 -0.1068 -0.2502  0.1247
 2414W        W 4614  14.810   0.188  10.184 -0.1640 -0.0504 -0.2301
 2415W        W 4615   9.147   1.703  12.145 -0.4721  0.0781  0.2182
 2416W        W 4616  10.328   0.273   4.508  0.1491 -0.2126 -0.0546
 2417W        W 4617   7.871   1.848  11.701  0.1568  0.0007 -0.0008
 2418W        W 4618   3.789   7.344   2.339 -0.1489  0.0802  0.2097
 2419W        W 4619  21.730   0.223  18.022  0.1994  0.1004  0.0265
 2420W        W 4620   7.793   4.988   6.614 -0.1203  0.0650  0.1447
 2421W        W 4621  21.363   0.940  30.931 -0.1858 -0.1027  0.2085
 2422W        W 4622  11.979   7.146   0.995 -0.0567  0.1552  0.0674
 2423W        W 4623  17.531   5.369  18.325  0.2558 -0.0695 -0.1082
 2424W        W 4624  22.019   4.693  23.639 -0.3546  0.3185  0.1151
 2425W        W 4625   1.377   5.087   4.925  0.0493  0.1691  0.0234
 2426W        W 4626   0.897   1.021   8.294 -0.2086  0.0559  0.1844
 2427W        W 4627  17.149   4.460  21.410  0.0295 -0.0592 -0.0682
 2428W        W 4628  18.881   7.782  21.438 -0.1106  0.1508  0.1652
 2429W        W 4629  10.667   2.988  12.552  0.1805 -0.2907 -0.1249
 2430W        W 4630  23.867   2.599  29.076 -0.2080 -0.1912  0.1487
 2431W        W 4631  16.821   2.014   7.590 -0.1775  0.0289  0.1064
 2432W        W 4632  23.237   5.373  20.839  0.1299  0.0563 -0.2169
 2433W        W 4633  21.245   1.384   6.274 -0.0151  0.0606 -0.3149
 2434W        W 4634   5.477   4.824   5.823  0.2755  0.0997  0.1699
 2435W        W 4635  24.399   1.974   5.817  0.0741 -0.0500  0.1956
 2436W        W 4636  11.390   2.727  23.186 -0.3569  0.0107 -0.0093
 2437W        W 4637  23.038   4.519   6.623 -0.5502 -0.0224 -0.4784
 2438W        W 4638  20.014   7.769  24.628 -0.0651 -0.2586 -0.0482
 2439W        W 4639   6.483   3.417  11.847  0.0388 -0.3437 -0.0274
 2440W        W 4640  12.557   5.947  12.896 -0.0233 -0.0290  0.2261
 2441W        W 4641  21.088   2.701   0.453  0.2768 -0.2296 -0.0511
 2442W        W 4642   1.283   0.170   7.734  0.0923 -0.0829  0.2470
 2443W        W 4643  21.000   2.186   0.615 -0.1491  0.0686  0.1417
 2444W        W 4644   6.600   2.125   5.392 -0.2263  0.2284  0.0646
 2445W        W 4645   8.255   2.785   3.722 -0.0367  0.1958  0.0035
 2446W        W 4646  16.499   4.293  22.298 -0.0343  0.1364  0.1458
 2447W        W 4647   8.704   6.476   7.204  0.3635 -0.0403  0.0853
 2448W        W 4648  10.667   6.608   9.648  0.3457  0.2540 -0.2189
 2449W        W 4649  20.513   4.490  24.882 -0.0021 -0.0999 -0.1518
 2450W        W 4650   8.798   2.550  14.407  0.1561  0.1017 -0.2284
 2451W        W 4651   1.805   4.201  11.903  0.0618  0.3856 -0.2635
 2452W        W 4652   8.669   3.569  29.180  0.0871 -0.2003  0.0925
 2453W        W 4653   9.072   0.401   1.486  0.0091  0.1545 -0.3586
 2454W        W 4654  16.846   2.626   5.978  0.0987  0.0388 -0.0272
 2455W        W 4655   4.544   4.613   4.980  0.0654 -0.2405 -0.4916
 2456W        W 4656  12.701   1.138   4.668  0.0555  0.0225  0.2540
 2457W        W 4657   8.528   0.960  12.384  0.3105 -0.0531 -0.0252
 2458W        W 4658   5.973   6.629   2.746  0.1557 -0.0821 -0.1024
 2459W        W 4659  12.963   7.395  10.194 -0.0152 -0.3792  0.1331
 2460W        W 4660   9.780   1.881   1.762 -0.0992  0.0441 -0.0796
 2461W        W 4661   0.610   2.990  26.302 -0.1584  0.1646  0.0756
 2462W        W 4662  16.383   4.312  32.524  0.0914 -0.0430 -0.1626
 2463W        W 4663   2.673   3.277   4.203  0.3611  0.0937 -0.1854
 2464W        W 4664  24.847   1.799   8.988  0.1395 -0.1364 -0.2402
 2465W        W 4665  16.550   0.431   8.972 -0.0413 -0.2200 -0.2002
 2466W        W 4666  21.461   0.935   6.253 -0.0745 -0.2400 -0.0185
 2467W        W 4667  23.489   1.579  29.890  0.0546  0.1003 -0.1824
 2468W        W 4668  23.304   6.701   5.476 -0.0278  0.0696  0.2337
 2469W        W 4669   3.919   0.452   2.241 -0.0899  0.0116  0.3613
 2470W        W 4670  15.249   4.449  11.506 -0.0311 -0.1825  0.1545
 2471W        W 4671  11.868   6.977   3.277 -0.1015  0.2851 -0.0937
 2472W        W 4672   4.795   0.810   6.673 -0.0506 -0.2789  0.0818
 2473W        W 4673  15.081   7.178  30.707  0.5650 -0.2224 -0.1109
 2474W        W 4674   0.527   5.850   0.757 -0.1789 -0.0217 -0.1437
 2475W        W 4675  19.616   3.873   3.570  0.1015  0.1967  0.3019
 2476W        W 4676  11.130   2.940  23.544  0.2856 -0.2559  0.0655
 2477W        W 4677   0.314   4.982   7.436 -0.1684  0.3713 -0.0153
 2478W        W 4678  24.023   2.242   5.485  0.4196 -0.1275 -0.1592
 2479W        W 4679  24.521   0.911   6.091  0.1734  0.0592  0.1021
 2480W        W 4680  18.605   6.425  31.323 -0.1116  0.1876  0.1124
 2481W        W 4681   1.153   6.809   3.242 -0.1503  0.3858  0.0724
 2482W        W 4682  13.540   7.579  10.036 -0.3289  0.0853 -0.2390
 2483W        W 4683  22.350   6.766   0.390 -0.1719  0.1989  0.1528
 2484W        W 4684  18.841   0.733  24.874  0.5679  0.3224 -0.0802
 2485W        W 4685   7.424   3.735  14.739  0.1180 -0.3176 -0.1695
 2486W        W 4686  13.858   0.950   9.417 -0.0130  0.0474  0.0905
 2487W        W 4687   6.432   6.090  11.663  0.0405 -0.0614 -0.1490
 2488W        W 4688  14.077   3.391  25.771 -0.3522  0.0271 -0.1075
 2489W        W 4689   8.395   7.112   9.941  0.0576  0.2123 -0.1560
 2490W        W 4690  17.479   2.963   0.499 -0.2248 -0.0483  0.0048
 2491W        W 4691   3.459   4.816  10.119 -0.0308  0.0232 -0.0972
 2492W        W 4692  19.930   3.408  31.087  0.3480  0.1217 -0.1395
 2493W        W 4693  17.161   7.107  29.008 -0.2527  0.0468  0.0269
 2494W        W 4694   2.431   2.901  21.223  0.2047 -0.0769 -0.0009
 2495W        W 4695  20.339   6.776   3.929  0.0157  0.1695  0.1036
 2496W        W 4696  21.382   4.192  17.364  0.2772  0.2645 -0.1192
 2497W        W 4697   6.881   1.699  16.742 -0.2271 -0.1115  0.3573
 2498W        W 4698  17.623   4.065  29.512 -0.0403  0.0192 -0.1522
 2499W        W 4699  19.200   2.317  32.433 -0.2061 -0.1329  0.1650
 2500W        W 4700  19.264   1.122  25.028  0.0626  0.0105  0.0220
 2501W        W 4701   3.825   1.459  10.239 -0.0580  0.0681 -0.0847
 2502W        W 4702  15.146   5.455  32.341 -0.0326  0.1459  0.1001
 2503W        W 4703  19.268   6.262  15.333  0.0728  0.0246  0.0098
 2504W        W 4704  14.966   1.375  22.805 -0.0608  0.2534 -0.3654
 2505W        W 4705   6.834   2.776   3.272  0.0408  0.0437 -0.1858
 2506W        W 4706   3.910   5.085  24.950  0.2230  0.3265 -0.1112
 2507W        W 4707  21.865   3.550  25.966  0.1992  0.1964  0.0262
 2508W        W 4708  22.186   4.800  25.642  0.0707  0.2498  0.1912
 2509W        W 4709  17.901   0.117  23.765  0.1187  0.3052  0.2672
 2510W        W 4710   8.468   5.120  11.652  0.1198  0.0190  0.2008
 2511W        W 4711  11.890   7.728  14.680  0.2330 -0.2548  0.2124
 2512W        W 4712  17.134   5.123  31.009 -0.1031  0.2229 -0.1668
 2513W        W 4713   9.470   6.710   2.717  0.0104  0.0375 -0.1474
 2514W        W 4714  12.435   4.527   1.768  0.0350  0.0809  0.0494
 2515W        W 4715  19.424   2.831  30.306 -0.2886  0.2823 -0.1893
 2516W        W 4716  17.546   4.484   2.980 -0.1934 -0.3727  0.0943
 2517W        W 4717  17.611   0.790  25.434  0.1608 -0.2038 -0.0092
 2518W        W 4718   5.208   6.640  23.316 -0.0913 -0.3054  0.1429
 2519W        W 4719  18.939   0.372   4.351 -0.2689  0.1459  0.0000
 2520W        W 4720  10.367   0.179   7.163  0.2802  0.1918 -0.0704
 2521W        W 4721  10.089   3.225   3.974 -0.0808 -0.1556 -0.0454
 2522W        W 4722  18.461   5.801  30.718 -0.1468 -0.0917 -0.1405
 2523W        W 4723  20.017   2.712  29.429  0.1065  0.0464 -0.0054
 2524W        W 4724  14.719   0.074  28.706  0.0521  0.1310  0.2945
 2525W        W 4725  19.144   0.077  18.543 -0.1564 -0.0991 -0.2427
 2526W        W 4726  17.779   7.384  29.325 -0.0542 -0.1045  0.1224
 2527W        W 4727  12.335   1.094  21.343  0.2312 -0.4479 -0.1361
 2528W        W 4728  10.254   3.187  25.523 -0.0569 -0.2471  0.0063
 2529W        W 4729  23.829   0.253  24.485 -0.1480 -0.1244 -0.1609
 2530W        W 4730  19.626   3.049  29.864 -0.2751 -0.0113 -0.0299
 2531W        W 4731  10.398   1.026  30.949  0.0667 -0.2701  0.0331
 2532W        W 4732  17.042   7.568  32.688 -0.2731  0.0957 -0.0476
 2533W        W 4733   7.641   5.582   8.568 -0.0694 -0.0811 -0.1981
 2534W        W 4734  22.562   7.636  20.051 -0.1265 -0.6771  0.0692
 2535W        W 4735   0.334   0.759  32.512  0.0042 -0.1738  0.2139
 2536W        W 4736  21.723   0.231  24.256 -0.2144 -0.0915 -0.0239
 2537W        W 4737   8.057   3.328  25.654 -0.3560  0.0292  0.0078
 2538W        W 4738   9.190   2.201   5.031  0.3324 -0.0492  0.1330
 2539W        W 4739  19.680   6.995   1.213 -0.0362 -0.0462 -0.0594
 2540W        W 4740   0.467   7.530  20.295  0.2043 -0.2497  0.0451
 2541W        W 4741   0.996   4.321  28.547  0.0293 -0.0274 -0.0494
 2542W        W 4742  22.750   2.711  31.385 -0.1176 -0.2696  0.0386
 2543W        W 4743   0.330   7.007  28.945  0.3125  0.1948 -0.0928
 2544W        W 4744  18.907   3.382   3.327  0.3624  0.1504 -0.0078
 2545W        W 4745  12.150   0.593  12.398  0.0778  0.0553  0.0729
 2546W        W 4746  10.434   2.430  16.289 -0.0713 -0.3304  0.1018
 2547W        W 4747  14.146   6.271  27.789 -0.1310  0.1519  0.1485
 2548W        W 4748   1.064   6.613  23.501 -0.4539 -0.4433 -0.3058
 2549W        W 4749  16.367   0.689   8.483 -0.3354  0.3309  0.1827
 2550W        W 4750   0.182   3.944  17.568  0.0280  0.0440 -0.2360
 2551W        W 4751   5.973   5.705   3.727 -0.4313 -0.1283 -0.0625
 2552W        W 4752  20.973   4.682  24.788 -0.0937 -0.2958  0.1148
 2553W        W 4753   2.165   2.909  26.744 -0.2083 -0.3472 -0.1006
 2554W        W 4754  20.476   4.063   4.234  0.0872 -0.3034 -0.0554
 2555W        W 4755  19.559   7.272   7.049 -0.1784  0.1484 -0.2938
 2556W        W 4756  20.730   2.923  29.880  0.0102 -0.2268  0.1092
 2557W        W 4757  24.763   5.260   0.697  0.3189  0.2795 -0.0109
 2558W        W 4758   3.279   0.158   0.980  0.0738  0.1094 -0.3916
 2559W        W 4759  23.830   0.487  21.058  0.0298  0.0098 -0.0919
 2560W        W 4760  21.158   5.534  25.050 -0.2362  0.0125 -0.0768
 2561W        W 4761  24.749   5.706   5.433 -0.0042  0.0483  0.2658
 2562W        W 4762  20.399   5.834  24.391 -0.1603  0.0069  0.1262
 2563W        W 4763  15.319   7.552  23.200  0.1614 -0.0869  0.0731
 2564W        W 4764   1.741   1.883   8.565  0.1597 -0.0515  0.0487
 2565W        W 4765  17.893   6.264  15.866 -0.1191  0.0190  0.0703
 2566W        W 4766  10.180   6.601  28.823 -0.2638  0.0977  0.0731
 2567W        W 4767   7.422   3.327  25.805  0.0258  0.0990  0.2666
 2568W        W 4768  23.012   4.251  28.038  0.0576  0.0610  0.1019
 2569W        W 4769  21.149   6.959   3.398 -0.1324  0.0139 -0.1000
 2570W        W 4770  22.429   4.573   3.991 -0.2491  0.1798 -0.0348
 2571W        W 4771  19.313   5.474  26.867 -0.2357 -0.1705 -0.0370
 2572W        W 4772   0.587   4.113  29.793 -0.0444  0.1031 -0.0184
 2573W        W 4773  10.895   4.881   3.689 -0.0621  0.3239 -0.2392
 2574W        W 4774   6.743   5.617  30.917 -0.0454 -0.3305  0.4474
 2575W        W 4775  12.563   0.707   6.724  0.0018  0.0394 -0.0775
 2576W        W 4776  18.193   5.622  17.556 -0.2505 -0.0325 -0.0502
 2577W        W 4777   7.764   2.150  17.042 -0.1530  0.2748  0.2615
 2578W        W 4778   8.445   0.026  15.562 -0.0241  0.1619 -0.2808
 2579W        W 4779   4.742   6.476  17.245 -0.0442 -0.0055 -0.1341
 2580W        W 4780  13.353   5.300  30.632  0.2788 -0.0859 -0.3478
 2581W        W 4781  17.824   7.575  27.977  0.2275 -0.0984 -0.0329
 2582W        W 4782  12.292   3.393  13.888 -0.2484 -0.1086  0.0983
 2583W        W 4783  13.993   6.990  22.133 -0.1185  0.2800  0.0859
 2584W        W 4784  20.121   7.307  32.197  0.0407  0.3506  0.2664
 2585W        W 4785   3.715   0.109  10.578  0.0698 -0.0383 -0.0643
 2586W        W 4786  20.877   1.621   4.935 -0.1152  0.4568  0.1755
 2587W        W 4787  14.366   2.606  10.099  0.0917  0.0365 -0.2771
 2588W        W 4788   9.835   6.040  12.980 -0.2063  0.0310 -0.0350
 2589W        W 4789   7.704   4.368   5.073 -0.0563 -0.0002  0.1175
 2590W        W 4790   9.683   1.069  24.376 -0.0386 -0.0598  0.1949
 2591W        W 4791  20.729   7.427  29.690  0.3165  0.1071 -0.0493
 2592W        W 4792  20.091   7.456  20.737 -0.2437  0.1989  0.0954
 2593W        W 4793   7.561   1.762   5.925  0.2021 -0.2646 -0.1661
 2594W        W 4794   3.223   0.265   9.661  0.0554 -0.0753 -0.3491
 2595W        W 4795   1.216   7.598   4.121  0.1616 -0.0762 -0.1015
 2596W        W 4796   5.657   5.058   5.435  0.1120 -0.1811 -0.0141
 2597W        W 4797  15.993   5.879   3.469  0.0737 -0.2676  0.2004
 2598W        W 4798  13.680   0.168   3.583  0.1237  0.1499 -0.1125
 2599W        W 4799   8.008   4.962   1.570 -0.0988  0.0757  0.0144
 2600W        W 4800  13.536   4.697   2.698 -0.0898  0.0653  0.1337
 2601W        W 4801  12.528   3.977  14.517  0.0517  0.1510 -0.2578
 2602W        W 4802   7.479   4.737  31.834  0.1502  0.0535  0.2661
 2603W        W 4803  18.032   0.915   4.390 -0.0927 -0.0523 -0.0232
 2604W        W 4804   4.240   5.144   3.209  0.1904  0.0538  0.2202
 2605W        W 4805  17.278   6.682  19.752 -0.1543  0.0633  0.0011
 2606W        W 4806  10.577   1.161  24.022 -0.3956 -0.0055 -0.0315
 2607W        W 4807   1.884   6.725  19.699 -0.0963  0.0524  0.0500
 2608W        W 4808  23.593   3.740  22.755 -0.0542 -0.5227  0.1660
 2609W        W 4809  14.938   5.809  10.098  0.1326  0.1139  0.0883
 2610W        W 4810  12.776   7.246   5.644  0.2276 -0.2234  0.1267
 2611W        W 4811   4.522   3.097  23.834 -0.3932  0.0756  0.3875
 2612W        W 4812  19.233   3.761  16.502 -0.0073 -0.0196 -0.1292
 2613W        W 4813  17.512   5.725  17.180  0.1055  0.2094  0.1853
 2614W        W 4814  11.496   7.396   9.908  0.3366  0.0993  0.1034
 2615W        W 4815  22.897   0.087  17.858 -0.0660  0.1057  0.3432
 2616W        W 4816   8.136   1.521  27.294 -0.1592  0.1288  0.0302
 2617W        W 4817   3.859   2.579  12.614 -0.2227 -0.2018 -0.2924
 2618W        W 4818  14.407   1.378   3.400  0.1613 -0.0545  0.3169
 2619W        W 4819  11.111   4.592  32.157 -0.0231  0.1925  0.0035
 2620W        W 4820   9.571   3.049  31.623  0.0031 -0.1269 -0.4365
 2621W        W 4821   1.874   5.621  11.051  0.1295  0.1487  0.1273
 2622W        W 4822   3.698   5.547   4.039  0.0147 -0.2186  0.2818
 2623W        W 4823  10.602   3.160  29.516 -0.2338  0.1796 -0.1209
 2624W        W 4824  17.361   1.203  11.016 -0.2524  0.2254 -0.2304
 2625W        W 4825  22.191   1.823  16.724  0.0829  0.2301  0.1041
 2626W        W 4826   8.993   3.995   2.402  0.0952  0.0081 -0.1822
 2627W        W 4827  24.833   6.544  17.127 -0.2047 -0.1463 -0.0863
 2628W        W 4828  24.173   4.296   9.900 -0.1032  0.1695  0.1389
 2629W        W 4829   9.080   0.744  12.091 -0.0036 -0.1668 -0.1583
 2630W        W 4830  21.358   5.834  16.021  0.1624 -0.1487  0.0337
 2631W        W 4831  15.430   7.749  30.909  0.1450  0.0547 -0.0619
 2632W        W 4832   1.452   7.033  19.616 -0.0640 -0.0017  0.0723
 2633W        W 4833   1.594   7.329   9.640  0.0537 -0.1539 -0.0347
 2634W        W 4834  17.244   3.741  21.775  0.0865 -0.3828 -0.6235
 2635W        W 4835  16.840   2.298  28.173 -0.1536  0.0656 -0.2926
 2636W        W 4836  21.401   0.318   2.188  0.0427  0.2981 -0.1545
 2637W        W 4837   0.482   0.033  21.800  0.1647 -0.2073 -0.2939
 2638W        W 4838  17.342   1.328  26.599  0.0587  0.0173 -0.0808
 2639W        W 4839  10.054   6.037  22.625 -0.1265 -0.0613  0.0384
 2640W        W 4840   3.976   1.293   5.563  0.1203  0.1310  0.2637
 2641W        W 4841   2.862   4.136   7.104  0.1310  0.1189  0.0380
 2642W        W 4842   4.231   1.927  11.379  0.0911  0.0798  0.2972
 2643W        W 4843   2.096   6.590  24.868 -0.1566 -0.0964  0.2660
 2644W        W 4844  11.767   0.278   4.189 -0.1116  0.0489 -0.1766
 2645W        W 4845  24.564   3.533  27.009 -0.2456 -0.0664 -0.2656
 2646W        W 4846   3.703   5.835  28.598 -0.1249  0.1970 -0.3216
 2647W        W 4847  10.616   2.408  23.995  0.2020 -0.3063  0.0716
 2648W        W 4848   8.710   4.112  24.860  0.3780 -0.2283  0.3185
 2649W        W 4849   1.182   2.466   7.283  0.2542 -0.3496  0.1076
 2650W        W 4850   3.237   2.431   3.305  0.1404 -0.1990  0.0097
 2651W        W 4851   3.942   3.598  27.808 -0.0442 -0.1854 -0.0889
 2652W        W 4852   8.844   0.073   6.978  0.0855 -0.0013  0.2587
 2653W        W 4853  16.920   1.623  25.435  0.1889 -0.2760 -0.2281
 2654W        W 4854  19.329   7.542   5.942  0.1607 -0.1041  0.0739
 2655W        W 4855   2.310   0.280   1.733 -0.1154  0.0442  0.1685
 2656W        W 4856   4.234   6.788  11.490 -0.0287  0.3351 -0.1446
 2657W        W 4857  15.557   6.474   8.374 -0.0613  0.0128  0.0403
 2658W        W 4858   8.198   7.631  10.234  0.2275  0.1543 -0.2695
 2659W        W 4859  23.225   3.080  20.635  0.0500  0.0672  0.0726
 2660W        W 4860   8.433   6.998  31.491  0.1789 -0.2480 -0.2284
 2661W        W 4861   8.167   4.092  16.964 -0.2489  0.0264  0.0811
 2662W        W 4862   9.757   0.352   3.506  0.0055  0.0743 -0.2122
 2663W        W 4863   6.709   1.378  11.767  0.1765 -0.0636 -0.0788
 2664W        W 4864  24.633   1.542  28.778  0.1369  0.0308  0.0882
 2665W        W 4865   9.229   1.173  29.339 -0.0564  0.0407  0.3313
 2666W        W 4866  22.041   1.961   2.490 -0.4781  0.1947  0.1227
 2667W        W 4867   1.339   2.609   1.300 -0.0126 -0.0867 -0.0178
 2668W        W 4868  11.878   3.019  25.217  0.0661 -0.2152  0.0224
 2669W        W 4869   2.489   7.526  21.887 -0.0052 -0.2936 -0.1454
 2670W        W 4870  21.275   4.021   2.218 -0.0563  0.0182 -0.0471
 2671W        W 4871  12.102   5.469  29.827 -0.3236  0.1017  0.2054
 2672W        W 4872   9.068   7.741  11.488 -0.2925  0.1591  0.1017
 2673W        W 4873  17.929   1.942  16.543 -0.1252  0.2732 -0.0035
 2674W        W 4874  18.400   2.923   7.987 -0.0897 -0.0128 -0.3526
 2675W        W 4875  23.826   3.719   5.814 -0.1679 -0.3943  0.2365
 2676W        W 4876  11.706   0.137  22.270  0.0912 -0.2008  0.1999
 2677W        W 4877  12.313   1.470  24.485 -0.0713  0.3752  0.2042
 2678W        W 4878  21.429   1.993   7.169 -0.1952 -0.1693 -0.1390
 2679W        W 4879  24.953   5.509   3.273 -0.2616 -0.1715 -0.2279
 2680W        W 4880  20.307   6.816  32.355 -0.0304 -0.1453  0.0436
 2681W        W 4881  24.166   2.640  27.158 -0.1564  0.2017 -0.2733
 2682W        W 4882   7.634   1.111  14.511  0.0518  0.1381 -0.0322
 2683W        W 4883   0.651   7.632   5.558 -0.1920  0.0924 -0.2525
 2684W        W 4884  15.184   7.043   5.965  0.2442  0.0516 -0.0514
 2685W        W 4885   6.816   4.551   3.296 -0.1357 -0.3777  0.0796
 2686W        W 4886   8.602   0.206   0.911  0.0349 -0.1349 -0.1970
 2687W        W 4887   9.118   3.469  28.327  0.0079  0.1481 -0.1207
 2688W        W 4888   9.357   3.480  32.641  0.2578 -0.2052 -0.2193
 2689W        W 4889  17.060   3.252   3.865 -0.0411  0.4142 -0.2377
 2690W        W 4890  13.490   2.056   4.216  0.0636  0.2477 -0.0254
 2691W        W 4891  12.964   6.552  26.188  0.2159  0.2899  0.1982
 2692W        W 4892  15.382   3.015   7.468  0.2465 -0.1569 -0.1146
 2693W        W 4893  20.755   3.885   5.030  0.1897 -0.0865 -0.1999
 2694W        W 4894  21.132   0.913  29.441 -0.0592 -0.4634  0.1223
 2695W        W 4895  16.576   7.112   5.162 -0.2330  0.2356 -0.1247
 2696W        W 4896   4.293   7.761  31.461  0.0809  0.0293 -0.1729
 2697W        W 4897  19.068   1.062  19.491  0.1172  0.2108  0.1360
 2698W        W 4898  11.587   4.243   7.886  0.1381 -0.0278 -0.0042
 2699W        W 4899  19.284   6.418  25.794 -0.1141  0.0504 -0.1111
 2700W        W 4900   8.295   4.550   7.910  0.1365  0.2386  0.0262
 2701W        W 4901   0.230   7.675   0.059 -0.2626  0.0665  0.0846
 2702W        W 4902   7.937   3.312  31.420  0.3677  0.3848  0.0881
 2703W        W 4903  14.342   6.820  11.971 -0.2603  0.2432 -0.0342
 2704W        W 4904  11.420   1.942  31.706  0.3449  0.0515 -0.0338
 2705W        W 4905   4.914   4.748   2.184 -0.1125  0.0907 -0.1291
 2706W        W 4906  18.547   1.364   7.471 -0.0218  0.2482  0.2117
 2707W        W 4907  18.580   5.956  17.757 -0.1514  0.0218 -0.1072
 2708W        W 4908   8.341   1.837  28.486  0.1168 -0.0822  0.0227
 2709W        W 4909  22.892   2.690  25.140 -0.0147  0.1881  0.0280
 2710W        W 4910   2.142   2.603  25.297 -0.0222 -0.4385 -0.0866
 2711W        W 4911   7.427   6.312   0.963  0.1566  0.0902 -0.0912
 2712W        W 4912  23.777   7.285  17.525 -0.1754  0.2079 -0.0091
 2713W        W 4913   7.558   3.261  14.779  0.1533 -0.0365  0.1676
 2714W        W 4914  19.589   0.660  29.689  0.0507 -0.2386 -0.1373
 2715W        W 4915  13.731   4.910  27.888 -0.1073  0.1968 -0.1607
 2716W        W 4916   1.512   5.092   5.451 -0.1813  0.2238 -0.3125
 2717W        W 4917  10.761   3.269  12.195 -0.0879  0.3737 -0.2600
 2718W        W 4918  13.431   5.993  12.377 -0.0511 -0.0308 -0.2912
 2719W        W 4919  18.135   0.299  19.726 -0.0379 -0.0824  0.1396
 2720W        W 4920   4.176   3.604   7.919 -0.1727  0.1117  0.0805
 2721W        W 4921  20.401   2.735   6.005  0.1799 -0.1948 -0.1278
 2722W        W 4922   9.567   1.724  13.804  0.0962 -0.0637 -0.1107
 2723W        W 4923   6.468   7.040  32.336 -0.0736 -0.0974  0.0513
 2724W        W 4924   0.028   4.598  30.415  0.1044 -0.1240  0.0925
 2725W        W 4925  12.098   0.387   8.130 -0.0816 -0.0508  0.0033
 2726W        W 4926   6.685   6.202   7.686 -0.0876 -0.1609  0.2580
 2727W        W 4927  17.763   3.352  19.064 -0.0466 -0.2260 -0.0739
 2728W        W 4928  12.471   3.592   8.179 -0.0032 -0.2195  0.0801
 2729W        W 4929   2.339   6.243  10.753  0.0090  0.3785  0.1287
 2730W        W 4930  18.145   1.397   4.158  0.0809 -0.2925 -0.0443
 2731W        W 4931   2.532   7.093   5.237  0.1118 -0.1083  0.0207
 2732W        W 4932   0.376   6.378   1.842 -0.1623 -0.0989  0.0637
 2733W        W 4933  12.678   5.927   0.162 -0.0105 -0.1784 -0.0997
 2734W        W 4934  13.142   2.481  27.366 -0.0970 -0.0402 -0.1240
 2735W        W 4935   1.222   0.137   8.761 -0.1915  0.1540  0.0838
 2736W        W 4936  14.340   2.754  14.147 -0.3255 -0.0452 -0.2461
 2737W        W 4937   3.623   3.972  14.628  0.0846 -0.1196 -0.0005
 2738W        W 4938  17.150   1.341  23.478  0.1201  0.1181 -0.0256
 2739W        W 4939   7.184   4.498   0.508  0.4190  0.0535 -0.4217
 2740W        W 4940  24.148   2.254  30.967  0.0222  0.0242 -0.0869
 2741W        W 4941   3.992   4.941   5.627  0.3863 -0.1082  0.2558
 2742W        W 4942   1.929   5.390   7.431 -0.0809  0.2079 -0.2099
 2743W        W 4943   0.683   5.515  11.912  0.0991 -0.0132  0.1708
 2744W        W 4944  15.376   2.934   0.997  0.1272  0.1872  0.2994
 2745W        W 4945   6.118   1.236  22.578 -0.0272 -0.1427 -0.1345
 2746W        W 4946  24.431   1.796  29.204 -0.0590  0.2109  0.3178
 2747W        W 4947   5.357   1.163  15.281  0.3151 -0.2097 -0.0594
 2748W        W 4948   1.700   0.528  23.971  0.0174 -0.0099  0.1195
 2749W        W 4949  19.350   0.440   6.896 -0.3098 -0.0666 -0.2091
 2750W        W 4950  22.520   1.230   5.745 -0.1165 -0.1006  0.1325
 2751W        W 4951  20.459   4.762  30.281  0.2820  0.1336 -0.2713
 2752W        W 4952  21.753   5.074  17.021  0.4651  0.1073  0.2056
 2753W        W 4953  16.621   6.575   1.907 -0.2186 -0.0693  0.3347
 2754W        W 4954  22.152   4.468   0.260  0.1535 -0.0871  0.0907
 2755W        W 4955   4.490   5.557   5.875 -0.3348  0.0562  0.1312
 2756W        W 4956  12.667   3.695  13.708 -0.0898  0.1336 -0.0662
 2757W        W 4957  23.149   7.224  10.158 -0.2000 -0.1657  0.0595
 2758W        W 4958   0.855   3.038  31.628 -0.0948 -0.1318  0.1876
 2759W        W 4959  24.864   5.774  22.326 -0.1166 -0.1653 -0.1081
 2760W        W 4960   7.110   6.903   4.072  0.3388 -0.3065  0.1662
 2761W        W 4961  17.422   7.256  23.546  0.1452  0.0487  0.1983
 2762W        W 4962   9.654   4.555  32.404  0.2659 -0.1594 -0.3968
 2763W        W 4963   7.556   0.974   6.268 -0.2412  0.0869  0.0596
 2764W        W 4964  22.659   5.163   1.248  0.0965  0.1042  0.3569
 2765W        W 4965   4.598   2.916  11.574  0.2484  0.0166 -0.1403
 2766W        W 4966   8.058   0.596  24.393 -0.0860  0.1164  0.1414
 2767W        W 4967   4.985   1.453   5.860  0.0506  0.1327 -0.2419
 2768W        W 4968   7.505   6.415  12.987 -0.0012  0.1771  0.2353
 2769W        W 4969  15.043   1.736  25.497 -0.0530 -0.2094  0.1008
 2770W        W 4970  12.051   0.094  10.306 -0.1161  0.1881 -0.0461
 2771W        W 4971   2.352   2.776   7.134  0.3024 -0.0992 -0.0310
 2772W        W 4972   6.069   0.139  29.767 -0.0836  0.1952 -0.2093
 2773W        W 4973  11.036   2.174  26.958 -0.1594  0.1011  0.1877
 2774W        W 4974  16.179   1.571   1.103 -0.0560 -0.0349  0.1006
 2775W        W 4975  18.152   7.289  27.647 -0.2314  0.0609 -0.0423
 2776W        W 4976   1.008   4.797  10.831  0.0768 -0.1671  0.1379
 2777W        W 4977  20.951   2.901   6.057  0.5326  0.0462 -0.3416
 2778W        W 4978  12.043   0.357  10.746 -0.5456 -0.0587  0.0564
 2779W        W 4979  18.260   4.900   0.301 -0.1542  0.0620 -0.1478
 2780W        W 4980   2.170   0.442   2.675  0.1105  0.1082 -0.0619
 2781W        W 4981  15.876   1.393  25.392  0.0092  0.0721  0.0507
 2782W        W 4982   0.548   0.255  25.269  0.0486 -0.3110 -0.0103
 2783W        W 4983   6.663   2.255   3.365  0.2506  0.0757 -0.0482
 2784W        W 4984  12.467   2.051  26.179 -0.0475  0.1717 -0.1365
 2785W        W 4985   2.135   6.664  32.621  0.2105  0.0656 -0.1030
 2786W        W 4986  20.689   0.696   8.296 -0.1117 -0.1606  0.1921
 2787W        W 4987  18.691   5.581  15.907  0.1160 -0.3219 -0.0190
 2788W        W 4988  23.395   6.753   9.733 -0.1395 -0.0847 -0.0764
 2789W        W 4989  20.185   1.816  22.437  0.0874 -0.0289 -0.1592
 2790W        W 4990   4.033   7.806  12.267  0.0428  0.0411  0.0915
 2791W        W 4991   9.304   7.494  12.015  0.4904  0.0789 -0.0057
 2792W        W 4992  22.351   0.643   6.368  0.0853 -0.2130  0.0518
 2793W        W 4993  23.383   5.494  17.269  0.0252 -0.1567  0.2002
 2794W        W 4994  14.353   2.724   3.516 -0.2561 -0.1239  0.1685
 2795W        W 4995  15.426   5.729   0.027  0.0148  0.1523 -0.0767
 2796W        W 4996  24.460   6.670  21.574 -0.0379  0.0604 -0.2869
 2797W        W 4997   5.649   3.943  12.332  0.0859 -0.1713 -0.2108
 2798W        W 4998   3.713   2.767   8.521  0.0768 -0.3055 -0.1817
 2799W        W 4999  18.286   4.145   8.584  0.1004 -0.2945  0.0751
 2800W        W 5000  14.968   1.573  31.403  0.1867  0.1200 -0.0032
 2801W        W 5001  19.241   0.188   0.180 -0.2771 -0.0984 -0.0119
 2802W        W 5002  24.588   0.886   9.570  0.1858 -0.0210 -0.1657
 2803W        W 5003  21.498   3.461  32.128  0.0770 -0.2026 -0.1343
 2804W        W 5004  11.763   0.758   4.822  0.0421  0.2422  0.3251
 2805W        W 5005  17.466   5.219  23.572  0.2071  0.1926  0.5014
 2806W        W 5006  20.029   5.276   9.797  0.0367  0.2793  0.1015
 2807W        W 5007  13.987   1.330  26.747  0.1188  0.3087  0.2618
 2808W        W 5008   6.332   1.111  11.552  0.1531 -0.0706 -0.0375
 2809W        W 5009  14.760   2.493   5.887 -0.1261 -0.1400 -0.1438
 2810W        W 5010  18.104   2.037  23.888 -0.4993 -0.0295  0.0955
 2811W        W 5011  18.538   0.612   3.830  0.3130 -0.1751  0.0484
 2812W        W 5012  22.173   6.048  17.026 -0.0931  0.0545 -0.3304
 2813W        W 5013  14.615   6.378   6.991  0.2715  0.2309 -0.1732
 2814W        W 5014  21.965   3.572  20.244  0.1259  0.2997  0.1009
 2815W        W 5015  19.496   4.606  20.257 -0.2390  0.1798  0.0036
 2816W        W 5016  17.600   0.028  29.777 -0.0099  0.1207  0.0418
 2817W        W 5017   9.268   7.386   5.420  0.1984  0.2162  0.1185
 2818W        W 5018   7.909   3.613  15.020  0.1603 -0.1915 -0.0990
 2819W        W 5019   5.901   3.516  31.854  0.1677  0.2857 -0.0899
 2820W        W 5020  15.954   6.212  25.539 -0.0634  0.1455 -0.0898
 2821W        W 5021   0.319   4.606  15.763 -0.1573  0.1564  0.1640
 2822W        W 5022  15.035   4.310  29.516  0.0082  0.0172  0.0064
 2823W        W 5023  12.855   2.963   9.548 -0.4686  0.3546  0.0296
 2824W        W 5024   0.786   5.098  17.409  0.2738  0.0038 -0.1744
 2825W        W 5025  18.756   0.208  23.516  0.0643 -0.3066 -0.0435
 2826W        W 5026  11.454   6.542  11.282  0.1719  0.1127  0.0583
 2827W        W 5027   0.917   0.955  10.100 -0.0131  0.4888  0.2946
 2828W        W 5028   8.001   5.947  11.841 -0.0472  0.1483 -0.1134
 2829W        W 5029   4.645   6.824  24.519 -0.0478  0.1395 -0.2853
 2830W        W 5030  20.269   1.576  23.403 -0.1441 -0.4114  0.1513
 2831W        W 5031   0.416   1.766   2.117  0.1718  0.0051  0.0768
 2832W        W 5032  24.520   0.926  30.362  0.1844 -0.0998 -0.2391
 2833W        W 5033   3.210   0.946  25.081  0.0323  0.2858  0.0968
 2834W        W 5034  22.549   7.409   2.170 -0.0220 -0.0682  0.1827
 2835W        W 5035  20.525   4.387  29.651  0.1836 -0.1286  0.2043
 2836W        W 5036   0.910   2.180   3.151 -0.0596 -0.0896  0.0355
 2837W        W 5037  20.363   5.307   7.863  0.0599  0.0312  0.0737
 2838W        W 5038  17.196   1.927  25.704  0.4101  0.1225  0.1934
 2839W        W 5039  21.109   3.907  23.038  0.2322 -0.0752 -0.0042
 2840W        W 5040   9.982   0.124  11.404 -0.0354 -0.0593 -0.3239
 2841W        W 5041  21.812   7.239   2.264 -0.2223 -0.1544  0.2742
 2842W        W 5042  14.593   7.201  23.319 -0.1192 -0.0715  0.0953
 2843W        W 5043  11.630   0.259   3.339  0.0063  0.3594  0.0303
 2844W        W 5044  22.741   6.027  30.829  0.0443  0.0388 -0.0422
 2845W        W 5045  15.995   1.812   4.306  0.2149  0.1136 -0.1876
 2846W        W 5046   7.521   3.821  10.470 -0.0525  0.1755  0.0297
 2847W        W 5047   6.012   5.356  28.419 -0.0601 -0.2060 -0.1125
 2848W        W 5048   9.683   2.667  26.816  0.1702 -0.0647  0.2046
 2849W        W 5049  16.860   1.783  22.587  0.0064  0.1829 -0.1376
 2850W        W 5050   6.837   6.397  23.999  0.2572 -0.3787  0.0949
 2851W        W 5051   1.636   4.942  10.328 -0.0944 -0.0820 -0.1182
 2852W        W 5052   7.869   5.489   2.757 -0.2829 -0.2972  0.1978
 2853W        W 5053  23.005   0.871  31.650  0.1375 -0.0643  0.4673
 2854W        W 5054  10.226   3.532  16.528 -0.1462  0.2897  0.2245
 2855W        W 5055   3.541   0.125  27.448 -0.2721 -0.1325 -0.1032
 2856W        W 5056   2.113   6.052  25.015  0.2371 -0.2195 -0.0359
 2857W        W 5057   5.609   6.401  27.826 -0.0247  0.1910  0.1093
 2858W        W 5058  23.685   3.505   4.599 -0.3852  0.2054  0.1613
 2859W        W 5059   6.008   0.083  16.899  0.2365 -0.0119 -0.0048
 2860W        W 5060  19.461   1.144  20.538 -0.1116 -0.2495 -0.0357
 2861W        W 5061  16.847   5.907  18.584 -0.1151  0.1001  0.2733
 2862W        W 5062   9.912   3.248  10.005  0.1602  0.0808 -0.3222
 2863W        W 5063  10.601   6.116  14.746  0.0080 -0.1757  0.1659
 2864W        W 5064   6.111   1.565  32.224  0.1646  0.1520 -0.2686
 2865W        W 5065  21.035   6.657   0.767 -0.0223  0.0946 -0.1173
 2866W        W 5066  20.195   7.130   1.285  0.0115 -0.0035 -0.1087
 2867W        W 5067  12.532   6.396  30.742  0.0276  0.1211 -0.2302
 2868W        W 5068  13.510   7.406  22.773  0.0085  0.1673 -0.0586
 2869W        W 5069  16.423   1.612  31.757 -0.2426  0.1666  0.3203
 2870W        W 5070   0.620   3.395   9.367  0.4069  0.2266 -0.2266
 2871W        W 5071  18.143   0.176   5.717 -0.3771 -0.0193 -0.0431
 2872W        W 5072  20.925   1.868  20.681 -0.1441  0.1299  0.0978
 2873W        W 5073   7.973   5.533  29.185  0.2036  0.0083  0.0688
 2874W        W 5074   0.447   3.594  21.775 -0.1280  0.1491  0.0302
 2875W        W 5075  17.790   3.622  25.669 -0.1295  0.0584  0.2094
 2876W        W 5076   7.443   1.793  23.793 -0.0943  0.1637 -0.1888
 2877W        W 5077   0.287   6.921   1.210 -0.0942 -0.0060 -0.0001
 2878W        W 5078   6.412   0.159  15.181  0.2215 -0.2892  0.1180
 2879W        W 5079  13.004   3.363  25.772 -0.0086 -0.0901 -0.0571
 2880W        W 5080   0.328   2.096  26.293 -0.0174 -0.2322  0.1542
 2881W        W 5081  24.800   6.893   3.537  0.0027  0.2740  0.1418
 2882W        W 5082  11.859   5.677  16.726 -0.4576 -0.1145 -0.0020
 2883W        W 5083  22.104   6.961   0.005  0.3618  0.0812 -0.0262
 2884W        W 5084  11.204   3.118  16.943  0.1149  0.1113 -0.0822
 2885W        W 5085  11.200   0.984  26.299  0.1740  0.0455  0.2811
 2886W        W 5086  13.162   5.947  27.522 -0.0387 -0.3354 -0.0587
 2887W        W 5087  19.854   7.039   5.524  0.2295  0.1344 -0.1972
 2888W        W 5088  21.723   4.611   0.084 -0.0201 -0.3847  0.0134
 2889W        W 5089  23.786   6.132  32.389 -0.0631 -0.1807 -0.0423
 2890W        W 5090  14.232   2.418  28.803  0.0262  0.0583  0.4170
 2891W        W 5091  17.157   5.346  11.457 -0.1855 -0.0972  0.2391
 2892W        W 5092   4.195   3.297  25.658 -0.2142  0.6197  0.2029
 2893W        W 5093  15.446   6.864  21.412  0.1285  0.0962 -0.1534
 2894W        W 5094  18.196   2.840   2.466  0.1789  0.0547 -0.1276
 2895W        W 5095  16.556   0.633  26.565  0.0232  0.3536  0.1773
 2896W        W 5096  19.147   4.076  31.516 -0.0735  0.0091  0.2819
 2897W        W 5097  20.416   0.120   6.277 -0.1559 -0.0721 -0.0035
 2898W        W 5098   9.664   2.233   9.422 -0.1014  0.1261  0.1647
 2899W        W 5099  18.085   5.759   1.809 -0.0389 -0.4398 -0.0286
 2900W        W 5100  21.284   0.950  25.748 -0.1158 -0.1891  0.0484
 2901W        W 5101   7.271   0.482  25.385  0.0881  0.0787 -0.1071
 2902W        W 5102  16.846   5.141  28.707 -0.0439  0.0475 -0.0335
 2903W        W 5103   3.752   6.517  24.554  0.1292  0.1620 -0.1601
 2904W        W 5104  11.854   0.304  11.714 -0.1088 -0.0494 -0.0567
 2905W        W 5105   0.826   7.740  31.894 -0.0713 -0.0412 -0.0188
 2906W        W 5106  14.193   2.022   2.687  0.1207 -0.1237  0.3210
 2907W        W 5107  24.689   5.599  23.325 -0.0047 -0.3468 -0.0829
 2908W        W 5108  20.827   0.806   8.736  0.2187 -0.1799 -0.2003
 2909W        W 5109   4.913   5.760   4.598  0.1591 -0.2308  0.0514
 2910W        W 5110  19.243   7.046  28.850 -0.0717  0.0494  0.1827
 2911W        W 5111   2.524   1.644  22.929 -0.1184  0.3190 -0.1875
 2912W        W 5112   7.779   4.067  17.707  0.0179 -0.1647 -0.1974
 2913W        W 5113   4.656   2.988   4.090 -0.2631 -0.1979 -0.3460
 2914W        W 5114   7.046   5.423   6.505  0.3343  0.1823  0.0921
 2915W        W 5115   6.144   5.118  26.863  0.0561  0.0094  0.0162
 2916W        W 5116  18.885   7.670   3.689  0.1214 -0.2989  0.0086
 2917W        W 5117  22.612   3.030  32.029 -0.0075 -0.2822 -0.2612
 2918W        W 5118   1.338   0.913  19.884 -0.0139  0.0700  0.0365
 2919W        W 5119  11.100   2.910  26.251 -0.0140  0.4202  0.0417
 2920W        W 5120   4.098   1.977  14.185 -0.1059 -0.3158 -0.2217
 2921W        W 5121  12.466   6.884  14.607  0.2189  0.0092  0.1615
 2922W        W 5122   1.908   4.214   1.825  0.2873 -0.1080 -0.1859
 2923W        W 5123  19.444   4.383  21.745 -0.3096 -0.1969  0.0730
 2924W        W 5124  14.698   0.707  20.001  0.1877 -0.1541 -0.0966
 2925W        W 5125  11.965   7.294   5.140  0.0635 -0.1929 -0.0688
 2926W        W 5126  24.671   2.387  27.121  0.2087 -0.1132  0.1710
 2927W        W 5127  22.529   3.998  15.793 -0.0721 -0.1099  0.0088
 2928W        W 5128   4.670   6.864  13.459  0.0951  0.1351  0.0501
 2929W        W 5129   0.286   6.659   9.486 -0.1008 -0.4966  0.0952
 2930W        W 5130  12.552   3.268  25.567 -0.0711 -0.0340  0.1275
 2931W        W 5131  16.542   6.668  29.912 -0.1057  0.0536  0.3047
 2932W        W 5132   7.664   7.751  16.063 -0.0340 -0.1724  0.0293
 2933W        W 5133   1.129   3.368  30.463 -0.0337 -0.0582  0.0316
 2934W        W 5134  11.396   7.768   0.015  0.0964  0.0634 -0.2387
 2935W        W 5135  22.042   2.530   8.369  0.0864 -0.2846  0.0324
 2936W        W 5136  14.980   1.287  10.469 -0.1888 -0.0491  0.1578
 2937W        W 5137   2.863   1.311  31.600 -0.0910  0.3290  0.0221
 2938W        W 5138  24.990   5.259  10.414 -0.0678 -0.1501 -0.0719
 2939W        W 5139   1.614   4.838  24.198  0.2444  0.1898 -0.3828
 2940W        W 5140   2.017   4.001  11.018 -0.0071  0.0779 -0.1477
 2941W        W 5141  16.976   7.673   6.974  0.1463  0.2985  0.0706
 2942W        W 5142   6.804   4.373  22.603  0.1802 -0.0049  0.1956
 2943W        W 5143  10.924   2.115  16.433  0.0764 -0.0742 -0.1382
 2944W        W 5144  17.099   5.706   3.152  0.1978 -0.0092 -0.3411
 2945W        W 5145   0.158   0.094  19.736  0.1000  0.1994  0.2472
 2946W        W 5146  20.441   6.549  10.264  0.0366 -0.2186 -0.0553
 2947W        W 5147  21.114   4.145   6.398 -0.0899  0.3152  0.0891
 2948W        W 5148   2.023   3.102  29.044 -0.3177  0.0065 -0.1284
 2949W        W 5149  14.208   3.512  27.178  0.0326  0.2264  0.0619
 2950W        W 5150   5.784   2.743   0.732 -0.0178  0.3301 -0.1110
 2951W        W 5151  10.757   4.983  10.216  0.0158 -0.0154  0.1522
 2952W        W 5152   7.231   3.200  15.890 -0.3332 -0.1559 -0.1409
 2953W        W 5153   8.692   4.594   4.683 -0.3028 -0.0549  0.1536
 2954W        W 5154  20.608   4.495  31.154  0.0032  0.2254 -0.0342
 2955W        W 5155  10.672   5.924  16.184 -0.0468 -0.1196  0.2744
 2956W        W 5156  14.340   0.260   6.551 -0.1167  0.3372 -0.1969
 2957W        W 5157  22.392   6.250  20.130 -0.2492  0.0250  0.0026
 2958W        W 5158  23.740   7.174   0.623 -0.2026 -0.0484  0.0540
 2959W        W 5159   9.773   0.660   0.760 -0.0261 -0.1324 -0.3235
 2960W        W 5160  21.242   4.005  29.946  0.0503  0.3253  0.2217
 2961W        W 5161   1.244   7.677   0.430 -0.0154  0.0389 -0.0856
 2962W        W 5162   2.035   3.384  23.981 -0.2089  0.2093 -0.1309
 2963W        W 5163   6.521   6.863   7.553  0.2605 -0.2002 -0.0219
 2964W        W 5164  14.496   1.297  12.542 -0.2400  0.1063  0.4287
 2965W        W 5165   6.685   0.327   7.052 -0.1176 -0.1330  0.2440
 2966W        W 5166  21.003   5.038  21.139  0.0853  0.1676  0.0548
 2967W        W 5167  16.669   2.512  11.414  0.0226  0.1625  0.1245
 2968W        W 5168   9.537   3.982  24.719 -0.1539  0.2217 -0.0334
 2969W        W 5169  16.526   6.011  21.672 -0.1573 -0.1595 -0.0477
 2970W        W 5170  21.030   3.832   5.922  0.3264 -0.2202  0.2164
 2971W        W 5171  23.455   1.611  21.889 -0.0415  0.0517 -0.0788
 2972W        W 5172  17.801   6.802  28.533 -0.3222  0.4367  0.6170
 2973W        W 5173  12.158   1.432  22.163  0.0130  0.0993 -0.2047
 2974W        W 5174  18.271   3.181   9.849 -0.0392  0.0646  0.0740
 2975W        W 5175  14.451   5.090   1.084  0.1371  0.3322 -0.0232
 2976W        W 5176  15.800   0.173  20.569  0.1880  0.2251  0.2332
 2977W        W 5177  22.967   1.592  28.979  0.1169  0.1933 -0.1148
 2978W        W 5178   9.142   1.902  24.544 -0.2184  0.0387 -0.0198
 2979W        W 5179   8.291   7.397  15.497 -0.0859 -0.4231 -0.1654
 2980W        W 5180   7.363   7.029  24.529 -0.0898 -0.1968 -0.1226
 2981W        W 5181  21.324   3.432  23.192  0.1246 -0.1001 -0.1848
 2982W        W 5182   2.297   3.065  30.199  0.2827  0.1671 -0.2759
 2983W        W 5183   5.817   5.349  13.721  0.2287 -0.0998  0.0034
 2984W        W 5184  18.592   0.921  22.874 -0.1480  0.2887  0.3316
 2985W        W 5185  16.661   5.847   4.989 -0.3382 -0.0121  0.1426
 2986W        W 5186   7.377   3.214   6.772  0.2871 -0.0993  0.0028
 2987W        W 5187  13.703   7.527  11.794 -0.0865  0.1297 -0.0160
 2988W        W 5188   8.313   5.487  14.735 -0.0977  0.2796  0.1343
 2989W        W 5189  15.186   2.760  22.670  0.3080 -0.2305 -0.2287
 2990W        W 5190  21.069   7.574   6.888  0.0139  0.3550 -0.0220
 2991W        W 5191  11.590   2.675  26.416 -0.0694  0.2424 -0.0480
 2992W        W 5192  21.752   3.692   3.331  0.3176  0.1688  0.0435
 2993W        W 5193  14.353   3.190   4.724  0.2371 -0.0556 -0.1166
 2994W        W 5194  13.801   1.987  12.766  0.1094  0.0682  0.0361
 2995W        W 5195   5.504   4.757  26.024  0.0489  0.0645 -0.0271
 2996W        W 5196  15.528   6.222   5.607 -0.0170 -0.0367 -0.0436
 2997W        W 5197   6.514   3.418  10.491 -0.0822  0.1031 -0.1225
 2998W        W 5198   8.089   0.745  26.917  0.0336 -0.1195  0.1627
 2999W        W 5199   2.951   0.979  23.809  0.1193 -0.0349  0.0040
 3000W        W 5200   4.665   1.774   5.749  0.1626  0.0889 -0.2333
 3001W        W 5201  16.850   3.405   9.573 -0.3022  0.2163 -0.0112
 3002W        W 5202  23.910   3.756  23.198 -0.1981 -0.0741 -0.1157
 3003W        W 5203  10.545   2.524  30.921  0.1368  0.1654  0.1034
 3004W        W 5204  12.905   0.200  23.981 -0.1476  0.4145 -0.0601
 3005W        W 5205  11.671   7.348  25.827  0.0453  0.2846  0.1928
 3006W        W 5206  20.745   2.596  15.097 -0.2060 -0.1450 -0.0131
 3007W        W 5207  19.041   6.512   3.977 -0.3203  0.1853  0.2070
 3008W        W 5208   7.044   0.721  17.742  0.3629 -0.1650 -0.1207
 3009W        W 5209  12.023   2.628   1.016  0.2677  0.1618 -0.2296
 3010W        W 5210   2.856   4.976  25.977 -0.1651  0.0141 -0.0004
 3011W        W 5211  21.039   3.031  25.492 -0.3279  0.0988  0.2121
 3012W        W 5212  14.514   7.546  10.211  0.0433 -0.0839 -0.0612
 3013W        W 5213  12.328   1.108  16.999 -0.0475  0.0902 -0.2569
 3014W        W 5214   6.562   3.403  22.327  0.1704 -0.3236 -0.2388
 3015W        W 5215   8.731   6.050   9.669 -0.1263 -0.1035 -0.1015
 3016W        W 5216  19.239   0.269  28.776 -0.0987  0.2408 -0.0200
 3017W        W 5217  23.271   7.313   5.009 -0.2104  0.0737  0.0793
 3018W        W 5218  15.773   5.744  21.304 -0.3227  0.1269  0.0018
 3019W        W 5219   8.327   6.606  29.843  0.3052 -0.2346 -0.4053
 3020W        W 5220   5.569   2.386   0.928  0.2028 -0.0904  0.3957
 3021W        W 5221   7.089   6.029  18.023  0.0032  0.0612  0.0073
 3022W        W 5222  22.125   5.895   6.512  0.2967  0.0170 -0.0887
 3023W        W 5223  22.271   7.524   5.636  0.1689 -0.1203 -0.1314
 3024W        W 5224  10.573   1.804  31.999  0.2673  0.3861  0.1964
 3025W        W 5225   3.005   0.925   9.488  0.0881 -0.0704 -0.1330
 3026W        W 5226  18.225   4.649  28.264  0.2224 -0.1156  0.4646
 3027W        W 5227  21.320   4.018   8.201  0.0690 -0.0705 -0.1170
 3028W        W 5228  11.472   2.100   8.203 -0.2609 -0.2333  0.2396
 3029W        W 5229   9.887   0.526  24.301  0.1187  0.1033 -0.0460
 3030W        W 5230  18.311   7.585   8.600 -0.1434  0.0134 -0.0133
 3031W        W 5231  12.312   7.574  28.360  0.3955  0.2207 -0.0712
 3032W        W 5232   6.885   1.689  31.781  0.1428 -0.4540  0.1090
 3033W        W 5233  16.906   7.733  30.740  0.2359 -0.1568  0.1398
 3034W        W 5234  12.581   0.654  22.685 -0.1681  0.1667  0.2437
 3035W        W 5235  18.219   3.527   0.515  0.0078 -0.0676 -0.0579
 3036W        W 5236  10.873   0.343   6.491 -0.3317 -0.3554 -0.1033
 3037W        W 5237  21.948   1.290  24.347  0.0678  0.0563 -0.0104
 3038W        W 5238  12.364   2.314  29.897 -0.0998  0.0254  0.0435
 3039W        W 5239  10.554   4.418   8.218  0.1562  0.0590 -0.3910
 3040W        W 5240  10.419   1.716  25.092  0.3430  0.2284  0.0232
 3041W        W 5241  21.968   2.415   8.958  0.2393  0.1843 -0.1950
 3042W        W 5242  17.282   6.082   8.082  0.0184  0.2619 -0.0001
 3043W        W 5243   7.708   6.162   8.497  0.1168  0.2362 -0.1728
 3044W        W 5244  18.423   1.649  28.091  0.0807 -0.1124  0.0565
 3045W        W 5245  23.368   2.478   0.035 -0.1907  0.0739 -0.0893
 3046W        W 5246  20.185   3.185  17.009  0.3928 -0.2580  0.1455
 3047W        W 5247   8.574   4.317  27.913 -0.1617  0.2751 -0.0941
 3048W        W 5248   9.745   3.588   1.607 -0.0378 -0.3537  0.0841
 3049W        W 5249  19.061   7.804  16.550  0.2637  0.0947  0.1033
 3050W        W 5250   1.154   3.191   5.841  0.1627 -0.1685  0.1441
 3051W        W 5251  17.208   1.688  10.864  0.0307  0.1690 -0.0626
 3052W        W 5252  22.360   3.429  19.519  0.0735  0.0276 -0.0301
 3053W        W 5253   3.989   1.682   2.115 -0.1637  0.0764  0.1364
 3054W        W 5254  14.265   2.346  21.789 -0.1094  0.0573 -0.1629
 3055W        W 5255   9.279   0.262  27.792  0.2611  0.1735 -0.1241
 3056W        W 5256  18.973   2.330  28.742  0.1853  0.2873 -0.0635
 3057W        W 5257  15.009   7.150  31.415 -0.2081 -0.0051  0.0731
 3058W        W 5258   5.210   7.518  10.734 -0.0200  0.2249 -0.1350
 3059W        W 5259  19.079   1.174  28.734  0.0041 -0.1315 -0.0782
 3060W        W 5260   0.484   3.865  26.694 -0.0672  0.1487  0.1353
 3061W        W 5261  20.540   1.638   3.218  0.2319 -0.2640  0.0012
 3062W        W 5262  17.387   3.405  11.019 -0.1937  0.5048  0.2196
 3063W        W 5263   1.062   5.260  30.784  0.0143 -0.0457 -0.0153
 3064W        W 5264   5.193   4.711  14.601 -0.0144 -0.2718  0.0938
 3065W        W 5265  19.671   6.335  22.878 -0.1283  0.1767  0.1286
 3066W        W 5266  17.336   6.457   8.373 -0.1987 -0.1104 -0.2025
 3067W        W 5267  21.456   2.922  17.587 -0.0809  0.1329  0.3558
 3068W        W 5268  19.406   0.517   3.621  0.1221  0.0121 -0.0709
 3069W        W 5269  16.051   6.511  20.054  0.0845  0.1527  0.2873
 3070W        W 5270  24.668   6.051   4.021  0.0796 -0.0102  0.2882
 3071W        W 5271  16.359   6.547   6.466 -0.2127 -0.1011 -0.0562
 3072W        W 5272  18.164   4.270  31.270 -0.0465  0.0746  0.1228
 3073W        W 5273  15.275   7.191  10.675  0.1742  0.2886 -0.0668
 3074W        W 5274  12.205   6.985   9.436  0.0368  0.2497 -0.0718
 3075W        W 5275   7.253   2.216  23.537  0.0485 -0.2669 -0.1309
 3076W        W 5276  10.059   5.488  17.735  0.0202  0.1810 -0.0166
 3077W        W 5277  23.241   7.714  28.469 -0.0638  0.1604  0.0800
 3078W        W 5278   4.945   0.194  29.685 -0.1620  0.3310 -0.0306
 3079W        W 5279  25.025   2.030  10.247  0.3441 -0.0244 -0.0468
 3080W        W 5280  14.680   6.714  22.672 -0.0336  0.2024 -0.0784
 3081W        W 5281  20.778   0.795   3.339  0.1658  0.1304 -0.3632
 3082W        W 5282   7.844   4.468   9.516  0.1015 -0.0378  0.0477
 3083W        W 5283   0.761   1.255  30.830 -0.1770 -0.0621 -0.0327
 3084W        W 5284  14.953   2.767   4.506 -0.2627 -0.0466  0.3575
 3085W        W 5285  10.797   2.207  29.321  0.0345  0.4216  0.0130
 3086W        W 5286   0.180   6.100   0.554 -0.0077  0.0369  0.1183
 3087W        W 5287   3.022   0.852  22.581 -0.0293 -0.0782  0.0819
 3088W        W 5288  16.728   0.738   9.986  0.0112  0.1361 -0.0175
 3089W        W 5289  12.381   4.827   8.566 -0.0567 -0.1850 -0.1336
 3090W        W 5290  10.455   3.054   5.377  0.0796 -0.0689  0.1170
 3091W        W 5291   2.971   6.100  25.672  0.0339  0.0634  0.4005
 3092W        W 5292   2.203   2.275  22.766 -0.0698  0.1871  0.1330
 3093W        W 5293  23.182   4.646  24.297 -0.0934  0.3381 -0.3814
 3094W        W 5294   1.008   0.148  28.021 -0.2307 -0.0281  0.0228
 3095W        W 5295   2.360   6.993  32.024  0.0075 -0.1571 -0.0015
 3096W        W 5296  14.566   3.510  25.325  0.1635 -0.2445 -0.0167
 3097W        W 5297  20.512   4.180   8.206 -0.2855 -0.0576 -0.1062
 3098W        W 5298   8.283   0.161  25.950 -0.3034  0.1687  0.1409
 3099W        W 5299   4.205   3.581  15.770 -0.1618 -0.1485 -0.2778
 3100W        W 5300   3.456   5.042  32.152 -0.0756 -0.2008 -0.5449
 3101W        W 5301  12.735   5.562  32.098 -0.0087 -0.1490  0.0444
 3102W        W 5302   9.393   6.326  30.380  0.1705 -0.0030 -0.1394
 3103W        W 5303   8.792   1.269  12.772 -0.1217  0.1944  0.1961
 3104W        W 5304   0.995   0.186   5.748  0.3149 -0.0489 -0.1477
 3105W        W 5305   6.254   1.255   8.939  0.2286  0.0454  0.0075
 3106W        W 5306  14.952   5.274  11.955 -0.0126  0.0111 -0.0450
 3107W        W 5307  20.110   6.011   7.288  0.0978 -0.0972 -0.0863
 3108W        W 5308  22.654   3.738   2.379 -0.0766 -0.3341 -0.0710
 3109W        W 5309  21.544   3.641  10.398  0.0642 -0.0034  0.1523
 3110W        W 5310   3.187   3.185  27.807 -0.0480  0.2226 -0.0072
 3111W        W 5311   0.871   4.130  10.614 -0.0052 -0.0401 -0.3036
 3112W        W 5312  20.335   1.029  17.612  0.0374 -0.0230 -0.1357
 3113W        W 5313   8.743   1.782  11.331  0.2488 -0.0338  0.2689
 3114W        W 5314  17.756   7.618   4.102  0.1757  0.1965 -0.2787
 3115W        W 5315  11.268   6.822  30.503 -0.1275 -0.2705 -0.0842
 3116W        W 5316   6.113   5.330  27.675 -0.0226  0.2631  0.3481
 3117W        W 5317   0.042   0.893  20.616  0.2883  0.2307  0.2652
 3118W        W 5318   7.048   2.804  18.147  0.0519 -0.0569  0.0272
 3119W        W 5319   9.352   1.584  18.152  0.4700  0.1680  0.0837
 3120W        W 5320  10.605   4.192  14.776  0.2574 -0.0176  0.0435
 3121W        W 5321  22.976   3.079   9.277 -0.2573  0.1818  0.0342
 3122W        W 5322   2.146   5.186  32.004  0.1114  0.0188 -0.1766
 3123W        W 5323  11.111   3.838   7.123  0.2527 -0.2330 -0.2370
 3124W        W 5324   9.569   6.327  10.190 -0.0705 -0.1455  0.0410
 3125W        W 5325  15.418   1.176   0.373 -0.1015 -0.0538 -0.1403
 3126W        W 5326   9.136   4.556  31.180 -0.0016  0.2228  0.1047
 3127W        W 5327   0.577   1.661  19.899  0.0633 -0.0855  0.1965
 3128W        W 5328   4.587   0.723  11.540  0.0624  0.2348 -0.1614
 3129W        W 5329   6.930   1.388  23.194  0.1231  0.2393  0.4514
 3130W        W 5330  23.628   5.126  28.867  0.2795 -0.1721  0.2821
 3131W        W 5331  20.547   0.182   5.769  0.0951 -0.0943  0.1238
 3132W        W 5332  17.623   3.892  20.343 -0.0236 -0.0271  0.2563
 3133W        W 5333  15.843   2.860   1.273 -0.0106  0.1687 -0.0999
 3134W        W 5334  17.413   6.253  15.618  0.1652 -0.1561 -0.1006
 3135W        W 5335  15.660   2.179  21.515 -0.0573 -0.4703  0.0543
 3136W        W 5336  14.244   6.124  10.449 -0.0277  0.0661 -0.0418
 3137W        W 5337  16.618   4.308  28.308  0.0471 -0.0462  0.0110
 3138W        W 5338   0.295   0.516  11.479 -0.1007 -0.1453 -0.1202
 3139W        W 5339  21.029   4.654  17.383  0.1835 -0.2000  0.1958
 3140W        W 5340   5.859   0.084   0.895 -0.2938  0.0628 -0.1565
 3141W        W 5341   1.374   4.093  30.119 -0.2170 -0.2334 -0.1084
 3142W        W 5342   0.399   6.908  22.589 -0.1376 -0.0727  0.0943
 3143W        W 5343   5.344   2.256  27.304  0.0894  0.0451 -0.0343
 3144W        W 5344   9.657   5.555   2.414  0.0403 -0.1442 -0.3797
 3145W        W 5345   7.348   3.219  18.116 -0.2397  0.2725 -0.2162
 3146W        W 5346  15.095   3.738  20.996 -0.0156 -0.0826  0.0307
 3147W        W 5347   4.629   3.588  14.868  0.2868 -0.0960  0.0316
 3148W        W 5348   5.260   0.769  15.605  0.0218  0.1521  0.2163
 3149W        W 5349  15.800   7.680  30.219 -0.3016  0.1197  0.0640
 3150W        W 5350   5.756   4.620  23.648  0.2033  0.1388 -0.3322
 3151W        W 5351  24.090   3.519   9.795 -0.0936  0.2062  0.1378
 3152W        W 5352  10.145   6.068   3.036 -0.3802 -0.0645 -0.0297
 3153W        W 5353  12.683   4.578   6.371  0.1980  0.0090  0.1610
 3154W        W 5354  22.369   4.513  20.126 -0.0283  0.0087  0.2337
 3155W        W 5355  24.301   6.088   6.381  0.0815 -0.1799 -0.0012
 3156W        W 5356  17.065   5.346   2.804 -0.1204 -0.1392  0.0547
 3157W        W 5357   9.506   2.089  23.923 -0.1049  0.0419 -0.3584
 3158W        W 5358  10.260   0.866  26.696 -0.3720 -0.2259  0.1958
 3159W        W 5359   7.329   1.524   4.555 -0.2494  0.1893  0.0024
 3160W        W 5360   1.116   3.426   7.042 -0.2807 -0.1284  0.1168
 3161W        W 5361  21.499   5.094   3.928 -0.0985  0.1392 -0.1473
 3162W        W 5362  12.876   1.769   8.577 -0.2499  0.0326  0.1142
 3163W        W 5363  18.850   7.171   0.330  0.0834 -0.0340  0.0494
 3164W        W 5364   5.334   5.328  29.282  0.1425 -0.2285 -0.0708
 3165W        W 5365   3.420   0.618   7.705 -0.4444  0.0728 -0.2236
 3166W        W 5366   2.403   2.314   9.634  0.0569 -0.2110 -0.0170
 3167W        W 5367  21.876   1.649  29.076 -0.0688  0.1321 -0.2907
 3168W        W 5368   9.874   6.441   1.562 -0.0499 -0.1375 -0.0601
 3169W        W 5369  19.509   5.599   7.185  0.0400  0.0610  0.0799
 3170W        W 5370   4.298   3.689   2.314  0.2158  0.3835 -0.0167
 3171W        W 5371  11.493   4.009  16.577  0.1368  0.2365  0.0166
 3172W        W 5372   2.641   6.741  32.414 -0.0106 -0.1167 -0.0415
 3173W        W 5373  19.251   0.861  20.929  0.0372  0.0060  0.1210
 3174W        W 5374   3.298   7.312  24.704 -0.0236  0.0401  0.0681
 3175W        W 5375   2.283   0.454   8.732  0.0287  0.0911  0.1694
 3176W        W 5376   9.878   0.558  14.649 -0.2398  0.1206  0.1324
 3177W        W 5377  23.930   0.264   6.868  0.1146  0.0087  0.0105
 3178W        W 5378  20.014   2.825  24.499  0.0271  0.0324 -0.1814
 3179W        W 5379   8.274   7.574  12.880 -0.1280 -0.0059 -0.0317
 3180W        W 5380   0.004   2.364   5.138 -0.2097  0.0733  0.3530
 3181W        W 5381  17.208   5.455  23.122  0.3170 -0.2101  0.3144
 3182W        W 5382   0.089   3.313   8.111  0.1559 -0.0197 -0.0529
 3183W        W 5383  12.459   0.618  10.946  0.2131 -0.0902  0.1458
 3184W        W 5384  12.843   7.159  31.909 -0.2128  0.0886 -0.1393
 3185W        W 5385  24.122   5.338   7.074 -0.2057  0.0773  0.2993
 3186W        W 5386  16.987   7.025   2.429 -0.0278  0.3949 -0.2596
 3187W        W 5387  10.720   2.698  23.626 -0.0084  0.3780 -0.0212
 3188W        W 5388   0.193   4.845  27.249 -0.1879  0.2057 -0.1689
 3189W        W 5389   1.720   6.879   5.321 -0.0077 -0.0728 -0.0305
 3190W        W 5390  18.750   2.337  29.206 -0.2352  0.2200  0.0750
 3191W        W 5391  12.605   5.292  27.559  0.0585  0.1158 -0.3185
 3192W        W 5392  18.272   6.311  14.914  0.4880  0.1936 -0.2025
 3193W        W 5393  18.819   1.218  24.799  0.1706 -0.2047  0.2432
 3194W        W 5394   6.385   2.412  25.701 -0.1267  0.1127 -0.1314
 3195W        W 5395   8.826   0.309   5.904 -0.0023  0.2727  0.1108
 3196W        W 5396  21.130   2.573   8.119  0.0760 -0.1326  0.0105
 3197W        W 5397  10.475   7.364   7.563 -0.2889  0.1462  0.0577
 3198W        W 5398  23.837   2.066  18.768 -0.0901  0.0015  0.0462
 3199W        W 5399  20.429   7.384  20.281  0.2059 -0.0238 -0.0462
 3200W        W 5400  12.316   5.696   8.702  0.1357  0.1526 -0.1096
 3201W        W 5401  10.225   5.457  12.793 -0.1935 -0.0205  0.0475
 3202W        W 5402   4.356   5.050   6.008  0.2197  0.0023  0.0898
 3203W        W 5403  12.628   2.808  10.240 -0.1090 -0.0187 -0.2001
 3204W        W 5404   2.451   4.835   5.194 -0.0734  0.1910  0.1883
 3205W        W 5405   8.636   7.779  11.007  0.0988  0.0115  0.1629
 3206W        W 5406  12.652   2.835  21.797 -0.0548 -0.1821 -0.1429
 3207W        W 5407  14.817   1.006  22.312  0.0951  0.2240  0.0238
 3208W        W 5408   2.577   6.269   7.737 -0.0119  0.1686  0.1574
 3209W        W 5409   7.090   7.106  25.922 -0.1843 -0.0441  0.0590
 3210W        W 5410  13.856   1.691  12.351  0.1693  0.0069  0.3756
 3211W        W 5411   8.968   5.805   8.369 -0.0819 -0.0193 -0.1856
 3212W        W 5412   9.269   1.819  26.860  0.0566  0.2043 -0.1792
 3213W        W 5413  19.721   4.608  16.468  0.2861  0.2719  0.1418
 3214W        W 5414  24.029   4.528   0.178 -0.0841  0.2483 -0.1200
 3215W        W 5415  23.199   3.748  32.196 -0.0980  0.0409  0.0693
 3216W        W 5416  14.456   0.703  26.976 -0.0989  0.2611 -0.0592
 3217W        W 5417  11.952   4.865   3.257  0.0612 -0.2573 -0.1689
 3218W        W 5418   6.821   0.327   7.602  0.0416  0.1424  0.0010
 3219W        W 5419  18.857   5.127  16.678  0.0456  0.1025 -0.0448
 3220W        W 5420  19.958   3.960   3.206  0.1288 -0.0591  0.1306
 3221W        W 5421   7.515   4.315  23.769  0.1594 -0.1636 -0.0143
 3222W        W 5422  11.717   7.262   8.130 -0.4066 -0.1306  0.0638
 3223W        W 5423  22.436   5.012   6.880  0.2024 -0.2402  0.0301
 3224W        W 5424  23.237   3.646   8.399  0.2228  0.1284  0.0477
 3225W        W 5425  20.034   0.030  14.358 -0.2021 -0.1111  0.2219
 3226W        W 5426  20.940   7.222  31.145 -0.0420 -0.0053 -0.3813
 3227W        W 5427   5.130   4.948  24.590  0.1661 -0.1439  0.1651
 3228W        W 5428  23.062   1.531   6.556 -0.2236 -0.0788 -0.1342
 3229W        W 5429  20.122   3.263  22.936  0.1235  0.0523  0.1582
 3230W        W 5430  11.433   5.126  26.386 -0.0283 -0.0632  0.1918
 3231W        W 5431  21.117   0.150  22.777 -0.0455  0.2817 -0.1516
 3232W        W 5432   9.758   4.921  27.185 -0.1631 -0.1310 -0.2348
 3233W        W 5433  20.548   5.859  22.918  0.1310 -0.1465 -0.0239
 3234W        W 5434   9.876   5.366  32.403 -0.2900  0.0930 -0.1411
 3235W        W 5435  24.295   6.804  28.476  0.0541 -0.1898  0.0931
 3236W        W 5436  14.784   4.538   1.838 -0.1787 -0.2892 -0.0023
 3237W        W 5437  17.620   1.363   5.108 -0.3666 -0.1315 -0.1205
 3238W        W 5438  11.625   5.794   2.851 -0.0845 -0.3957 -0.0750
 3239W        W 5439   7.084   5.680   1.544  0.3977  0.0530 -0.2156
 3240W        W 5440   0.601   4.462  18.364  0.1602 -0.2818  0.2061
 3241W        W 5441   0.676   0.973   0.656 -0.0695  0.2248  0.0785
 3242W        W 5442  11.585   3.074   6.874 -0.1539  0.2572  0.0716
 3243W        W 5443  19.471   6.344  31.503 -0.0502  0.4309 -0.1315
 3244W        W 5444   8.615   0.592   9.543  0.3263  0.1991  0.1224
 3245W        W 5445   8.522   2.999   4.505 -0.1793 -0.1921  0.2046
 3246W        W 5446  22.546   0.354   9.058  0.1035  0.0402  0.1052
 3247W        W 5447  16.938   4.646   9.192  0.0943  0.5044  0.0090
 3248W        W 5448  24.703   3.642  30.145  0.3165  0.0710  0.0803
 3249W        W 5449   7.364   4.467  28.381  0.1799  0.1098  0.1735
 3250W        W 5450   5.937   4.202  23.297 -0.2019 -0.2807 -0.0529
 3251W        W 5451  16.065   0.687  18.935  0.0341 -0.0263  0.1506
 3252W        W 5452  12.844   4.791   5.133 -0.0977 -0.0047 -0.1699
 3253W        W 5453  18.198   3.052  17.954 -0.2215 -0.0554  0.0360
 3254W        W 5454  19.365   1.080  14.989 -0.0346  0.1678  0.1181
 3255W        W 5455   4.993   6.415  24.351  0.2199 -0.1796  0.2848
 3256W        W 5456  14.796   0.943   8.061 -0.1123  0.1704 -0.0189
 3257W        W 5457  18.473   1.662   7.033 -0.0699  0.1174 -0.1239
 3258W        W 5458  19.460   7.404  24.338  0.2451 -0.0252  0.0480
 3259W        W 5459  12.494   0.396  30.325 -0.0561 -0.0362  0.1311
 3260W        W 5460  22.968   2.002   8.646  0.0100 -0.0983  0.0960
 3261W        W 5461  20.106   0.220  17.577  0.3659  0.0288 -0.0626
 3262W        W 5462  22.733   4.035  23.245 -0.1381 -0.0350  0.1891
 3263W        W 5463  13.587   3.043   0.213 -0.4147 -0.3183  0.1140
 3264W        W 5464  21.737   1.622  31.670 -0.1798 -0.2042 -0.0989
 3265W        W 5465  18.627   4.084  19.710 -0.0373 -0.0624  0.0921
 3266W        W 5466  16.425   4.079  25.056  0.0008 -0.0938 -0.1800
 3267W        W 5467  17.649   1.140   9.144  0.1005  0.0324 -0.2122
 3268W        W 5468  11.912   1.508  10.312  0.1667  0.1400  0.1345
 3269W        W 5469  22.974   3.034   6.519 -0.0487  0.1665 -0.2288
 3270W        W 5470  23.856   1.364  26.168 -0.0576 -0.0102 -0.2980
 3271W        W 5471  19.806   0.338  26.608 -0.0328  0.2068  0.1872
 3272W        W 5472  17.507   4.316   5.767 -0.0389  0.2833 -0.1352
 3273W        W 5473  24.867   5.043  32.663  0.1566  0.1757  0.0243
 3274W        W 5474   9.138   4.116  14.074  0.4038  0.2200 -0.1757
 3275W        W 5475  19.268   7.249  26.961 -0.2924 -0.1451  0.0132
 3276W        W 5476  12.250   6.860  15.335  0.2814  0.1009 -0.2706
 3277W        W 5477   2.637   5.232  10.592  0.1142  0.0729  0.3907
 3278W        W 5478  24.831   1.087  30.789 -0.0650 -0.1319  0.1260
 3279W        W 5479   9.360   3.666  14.133 -0.1533  0.2264  0.0258
 3280W        W 5480   6.434   0.522  27.156 -0.0043 -0.2394 -0.2925
 3281W        W 5481   1.348   3.959   1.463 -0.0572  0.1954  0.3891
 3282W        W 5482   0.866   5.464  10.624  0.1546  0.1280  0.2253
 3283W        W 5483  13.171   1.336   4.390  0.1436  0.2027 -0.0835
 3284W        W 5484  13.410   2.693  26.986 -0.0671 -0.0818  0.0059
 3285W        W 5485  24.672   4.455  20.732  0.1883  0.0143 -0.2558
 3286W        W 5486   2.115   1.453  26.278 -0.2793  0.1820  0.0861
 3287W        W 5487  15.303   7.559   2.295  0.0790  0.0226 -0.2812
 3288W        W 5488  21.670   2.978  30.277 -0.0160  0.2285  0.1967
 3289W        W 5489  16.679   7.039  29.034  0.3029  0.3519  0.1069
 3290W        W 5490   9.237   5.330   9.768 -0.0419  0.2077  0.0839
 3291W        W 5491  24.802   0.669  18.058  0.0841  0.1264 -0.1874
 3292W        W 5492   4.678   4.114   9.391 -0.1594  0.2793  0.1198
 3293W        W 5493  18.667   0.811   2.406 -0.0027 -0.1045  0.3183
 3294W        W 5494   5.254   6.180  31.030  0.1393 -0.0641  0.1202
 3295W        W 5495  19.994   2.424   8.027  0.0943  0.3556  0.2772
 3296W        W 5496  19.732   4.676  18.629 -0.0968 -0.1151 -0.0615
 3297W        W 5497  15.013   4.417  22.328 -0.2324  0.0706  0.0535
 3298W        W 5498   3.490   5.838  23.952  0.0128 -0.2227 -0.1800
 3299W        W 5499  22.982   7.101  27.376  0.0907  0.2676  0.2423
 3300W        W 5500   1.087   6.443  22.355 -0.1611  0.1451 -0.0026
 3301W        W 5501   9.280   4.648  14.246  0.1169  0.2231 -0.0447
 3302W        W 5502   6.182   3.352   6.694  0.0388  0.0659  0.0840
 3303W        W 5503  15.152   2.758  12.271  0.2425  0.1368 -0.2229
 3304W        W 5504  20.559   5.231  30.506  0.1379 -0.1528  0.1568
 3305W        W 5505  12.007   7.097   1.522  0.1139  0.2133 -0.0917
 3306W        W 5506   3.201   4.579  21.396  0.0860  0.2278 -0.0153
 3307W        W 5507   1.045   5.181  17.916  0.0684  0.2245 -0.0169
 3308W        W 5508   9.540   0.887  10.100 -0.1009  0.0451  0.1843
 3309W        W 5509  13.256   6.267   3.984  0.0248  0.2187 -0.1321
 3310W        W 5510  17.581   4.571  29.424 -0.5005  0.2471 -0.1120
 3311W        W 5511   2.147   5.655  10.259 -0.0219  0.2463  0.2188
 3312W        W 5512  10.315   0.172  13.765 -0.1695  0.1755 -0.0808
 3313W        W 5513  22.873   4.253  28.627  0.1420  0.0683  0.1114
 3314W        W 5514  24.552   7.543   2.922 -0.1909  0.1357 -0.1286
 3315W        W 5515   0.906   6.028  25.072 -0.3080 -0.1019 -0.1078
 3316W        W 5516   8.689   6.083   2.984 -0.1345  0.0233  0.0404
 3317W        W 5517   9.511   5.732  19.033 -0.0859  0.5657 -0.3341
 3318W        W 5518   2.125   4.347  26.973 -0.1082 -0.0566  0.1047
 3319W        W 5519   4.357   5.918  11.010  0.0414  0.0920  0.0885
 3320W        W 5520  12.764   2.353  31.536  0.0448  0.3524 -0.1172
 3321W        W 5521  16.100   7.378   9.511 -0.2528 -0.1546 -0.1187
 3322W        W 5522   9.902   0.050  32.655 -0.4095  0.0600  0.0231
 3323W        W 5523   9.731   6.282  23.822  0.0263  0.0710 -0.1244
 3324W        W 5524  22.092   7.506  16.566 -0.1580 -0.0683  0.0978
 3325W        W 5525  11.245   5.088   2.427 -0.0974 -0.0282 -0.2787
 3326W        W 5526   7.361   5.303   4.057 -0.2974 -0.1705  0.0228
 3327W        W 5527  21.603   7.712   4.197  0.0752 -0.3471 -0.0102
 3328W        W 5528  19.911   1.428  17.541 -0.0084  0.0643 -0.2860
 3329W        W 5529  22.004   0.464  19.671 -0.3307  0.2705 -0.3256
 3330W        W 5530   9.222   0.204  12.235  0.0521  0.2736  0.0129
 3331W        W 5531  21.161   4.656  22.053  0.3289 -0.0643 -0.2654
 3332W        W 5532   6.299   4.402  10.058 -0.3196 -0.0006  0.0125
 3333W        W 5533  12.748   4.961  12.154  0.3622 -0.1668  0.0765
 3334W        W 5534   7.228   1.775  23.205  0.0806 -0.3048 -0.0926
 3335W        W 5535  23.113   3.558  29.489 -0.2418 -0.1234  0.0007
 3336W        W 5536  20.157   5.533  21.958 -0.2924 -0.0577 -0.4108
 3337W        W 5537  21.281   0.184  29.154 -0.1438  0.0216  0.1716
 3338W        W 5538  17.735   1.711   9.965 -0.0779 -0.2103 -0.0080
 3339W        W 5539  24.544   4.510  31.240  0.0228  0.2650  0.1148
 3340W        W 5540  16.702   0.968  30.874  0.2240 -0.2334  0.0287
 3341W        W 5541   2.373   3.730  24.588 -0.0404 -0.0106 -0.4214
 3342W        W 5542  16.136   6.003  25.067  0.0052 -0.0434  0.0578
 3343W        W 5543  13.682   1.269  31.444  0.0844  0.0229 -0.0357
 3344W        W 5544  13.886   3.907   3.753 -0.0945 -0.1355  0.2209
 3345W        W 5545  23.314   4.239  14.190  0.0503  0.0608 -0.3557
 3346W        W 5546  24.901   2.490  10.067 -0.0734 -0.0120 -0.1931
 3347W        W 5547   9.514   4.024  26.958  0.1493  0.2196  0.0394
 3348W        W 5548  23.967   1.858   1.930 -0.0190  0.0316 -0.1229
 3349W        W 5549   5.907   1.235  12.690 -0.2871  0.2525 -0.0144
 3350W        W 5550  13.571   6.484   8.153  0.0958 -0.0633  0.0863
 3351W        W 5551   6.182   5.863  15.200  0.1371  0.0882  0.0265
 3352W        W 5552  10.421   6.428   0.341  0.3286  0.1674 -0.0840
 3353W        W 5553  21.380   2.981  24.140  0.0007  0.1990  0.3890
 3354W        W 5554  12.171   0.478  22.950  0.0999  0.0170 -0.0878
 3355W        W 5555   9.121   3.226  10.877 -0.0145 -0.2112  0.1722
 3356W        W 5556  17.857   4.071  21.185 -0.2031  0.1520  0.1156
 3357W        W 5557  20.162   5.001  27.335  0.1425  0.2720  0.0956
 3358W        W 5558  15.726   0.043   2.489  0.2095 -0.1808  0.1675
 3359W        W 5559   8.796   0.411  18.188  0.1031  0.1181  0.0651
 3360W        W 5560  15.034   5.692  20.618 -0.2064 -0.0835  0.1069
 3361W        W 5561   2.802   7.193  20.344  0.1713 -0.3738 -0.1352
 3362W        W 5562   7.323   1.314  14.154 -0.0706  0.2131  0.1198
 3363W        W 5563  17.390   7.426  17.833 -0.2466 -0.3249 -0.5081
 3364W        W 5564  19.169   6.792  17.842  0.0215 -0.2279 -0.0102
 3365W        W 5565  24.655   5.553  20.213  0.0867 -0.2120 -0.2426
 3366W        W 5566  10.460   0.770   4.767 -0.1768  0.0959  0.2264
 3367W        W 5567  18.433   0.918  26.256  0.0669  0.2389 -0.4332
 3368W        W 5568  16.869   1.403  23.007 -0.1078 -0.1304  0.2141
 3369W        W 5569  11.660   5.286  13.949 -0.4036 -0.1700  0.0657
 3370W        W 5570  22.330   3.467   5.553 -0.2773  0.2318  0.1024
 3371W        W 5571  17.052   0.097   8.451  0.2005 -0.1440 -0.0537
 3372W        W 5572   1.675   4.581  11.657 -0.0661  0.3546  0.0352
 3373W        W 5573   3.059   3.915  28.193  0.1302  0.0587  0.0181
 3374W        W 5574  18.404   4.513  17.831  0.0392 -0.0596 -0.3454
 3375W        W 5575  11.547   6.495   0.785 -0.2385 -0.0307 -0.0536
 3376W        W 5576   3.675   7.452   1.001  0.1793  0.0747 -0.0365
 3377W        W 5577  11.479   1.619  15.281  0.1826 -0.1852 -0.2075
 3378W        W 5578  16.523   5.410   0.259 -0.0590 -0.0099  0.2036
 3379W        W 5579  20.547   0.829   2.298 -0.0310 -0.0339 -0.1379
 3380W        W 5580  16.209   4.611  31.150  0.3517 -0.2902 -0.0051
 3381W        W 5581   7.817   1.025   3.692  0.3082 -0.4847  0.0450
 3382W        W 5582   2.301   5.074  22.165 -0.1496  0.3577 -0.1589
 3383W        W 5583   5.822   7.447   1.185 -0.0500  0.2751  0.2787
 3384W        W 5584   1.818   6.557  26.993 -0.0729  0.0659 -0.3326
 3385W        W 5585  20.750   3.193   4.198  0.2237 -0.0436 -0.1506
 3386W        W 5586  12.565   2.514  23.487 -0.0178 -0.1623  0.0749
 3387W        W 5587   8.281   3.894  13.720 -0.0478 -0.0828  0.0208
 3388W        W 5588  21.423   5.311   2.570 -0.0163  0.0952 -0.0084
 3389W        W 5589   7.471   7.454   4.315  0.0076 -0.1760  0.0403
 3390W        W 5590  14.826   6.899  21.152  0.0897  0.0149  0.0587
 3391W        W 5591  11.498   2.365  28.115 -0.0345 -0.0985  0.1728
 3392W        W 5592   5.979   2.193  13.836 -0.4105  0.1374 -0.0527
 3393W        W 5593   9.039   1.565   9.551  0.2151 -0.0075 -0.2526
 3394W        W 5594  22.792   7.680  25.149 -0.0173  0.0454 -0.0607
 3395W        W 5595  13.097   6.432   5.396 -0.1027  0.1034 -0.2086
 3396W        W 5596  20.377   2.545  21.778  0.0855 -0.4329  0.1602
 3397W        W 5597  11.384   0.536   9.679 -0.0099  0.2437  0.0795
 3398W        W 5598  20.765   4.515   4.047 -0.0228  0.0832  0.1030
 3399W        W 5599   5.283   2.779   0.721 -0.4222  0.1502  0.1658
 3400W        W 5600   0.768   4.884   3.552 -0.2104 -0.1402 -0.0627
 3401W        W 5601   0.198   5.306   6.193  0.1531  0.2032 -0.1485
 3402W        W 5602  10.566   1.048  25.251 -0.0401  0.1277  0.1620
 3403W        W 5603   5.252   0.157  16.290  0.1385  0.1171 -0.1986
 3404W        W 5604  15.869   3.220  31.746  0.2242 -0.2861  0.0261
 3405W        W 5605  16.841   4.745  24.583  0.0510  0.1629 -0.3044
 3406W        W 5606   3.639   2.812  29.435  0.1074  0.1202 -0.0275
 3407W        W 5607   2.768   1.618  22.445 -0.2422 -0.0814  0.0421
 3408W        W 5608   7.360   7.524  23.252 -0.0422 -0.2018  0.0207
 3409W        W 5609   7.535   3.833   3.818 -0.0480 -0.0883  0.0236
 3410W        W 5610  22.129   1.125  30.092  0.0211  0.3525 -0.0738
 3411W        W 5611   9.142   7.806  30.469 -0.1540  0.1106 -0.2004
 3412W        W 5612  13.696   2.432  13.047 -0.0099 -0.3315 -0.1996
 3413W        W 5613  20.932   1.932   9.945 -0.2512 -0.1680 -0.0451
 3414W        W 5614  11.341   3.077  32.329 -0.1009  0.0408  0.0456
 3415W        W 5615  23.651   6.523  31.203 -0.1145  0.0503 -0.1065
 3416W        W 5616  24.572   6.633   6.326  0.0062  0.2122  0.3607
 3417W        W 5617   1.932   1.335  27.619 -0.0795 -0.1514 -0.0355
 3418W        W 5618   4.105   3.812   6.452  0.0509 -0.1487 -0.1418
 3419W        W 5619  12.278   4.458   3.097 -0.3103  0.0865 -0.0252
 3420W        W 5620  24.639   5.746  29.466  0.3787  0.1672 -0.0763
 3421W        W 5621  10.438   2.319   4.228  0.0005 -0.0544 -0.2159
 3422W        W 5622  13.006   4.792   3.102 -0.0518  0.0338 -0.1199
 3423W        W 5623  14.903   0.426  28.236  0.0201 -0.1299 -0.1255
 3424W        W 5624  19.261   5.278   3.060  0.1095 -0.2445  0.0615
 3425W        W 5625   0.821   3.638  23.288 -0.2118 -0.1382  0.0515
 3426W        W 5626   1.126   7.246   2.274  0.1457  0.1962  0.0099
 3427W        W 5627   3.706   1.776  27.158 -0.1397 -0.1753  0.3062
 3428W        W 5628   8.217   5.501   3.697 -0.0141  0.1930 -0.1116
 3429W        W 5629  14.105   5.680  11.985  0.0224  0.3158 -0.1550
 3430W        W 5630  16.254   6.011   9.066  0.1738  0.2595 -0.2200
 3431W        W 5631   2.562   2.451  20.286  0.0332 -0.0312 -0.0764
 3432W        W 5632  12.812   3.696   9.061 -0.0612 -0.3271  0.2566
 3433W        W 5633  23.467   5.345   1.905  0.1428  0.0753 -0.0579
 3434W        W 5634  13.185   2.087  23.098 -0.1360 -0.0601  0.2358
 3435W        W 5635   4.036   3.333  26.581 -0.0081  0.3872 -0.4026
 3436W        W 5636  14.953   3.899   6.403 -0.1108  0.1833  0.0594
 3437W        W 5637  20.172   3.354   9.240  0.3940  0.0476  0.0630
 3438W        W 5638   9.892   4.649  28.668  0.2033 -0.1483 -0.3094
 3439W        W 5639   4.543   5.524   7.360  0.0847 -0.4111 -0.1279
 3440W        W 5640  10.582   5.791  29.887 -0.1616 -0.1183 -0.1102
 3441W        W 5641  24.553   7.685   5.238 -0.1757  0.0885 -0.0474
 3442W        W 5642  19.676   6.268  26.106 -0.5290  0.4806  0.2236
 3443W        W 5643  13.060   7.391   7.383 -0.0061  0.0968 -0.3751
 3444W        W 5644  13.613   4.264  13.694 -0.1966  0.4634  0.0717
 3445W        W 5645   5.858   0.177   9.647  0.2766 -0.0723  0.0707
 3446W        W 5646  14.701   7.078  31.036  0.1154  0.2035 -0.3354
 3447W        W 5647  23.390   3.261  27.878  0.0783  0.1054  0.0711
 3448W        W 5648   8.308   5.224   5.871 -0.0806  0.0465  0.1631
 3449W        W 5649   4.794   7.101  27.132  0.0591 -0.2073  0.2713
 3450W        W 5650   2.080   1.243  28.565 -0.0599  0.1589 -0.1514
 3451W        W 5651   6.752   2.305  15.123  0.3410 -0.1431  0.0907
 3452W        W 5652  18.720   3.840  31.523  0.1518 -0.4084 -0.0983
 3453W        W 5653  13.823   4.900   4.225 -0.0490  0.1724  0.0175
 3454W        W 5654  15.781   4.744  21.461 -0.2340 -0.1495  0.6476
 3455W        W 5655  23.109   4.971  10.332 -0.1424  0.2117  0.0190
 3456W        W 5656  20.574   6.843  17.374  0.1229  0.2940 -0.0497
 3457W        W 5657  11.710   7.535  23.653  0.0049  0.1802 -0.0499
 3458W        W 5658  13.695   6.581  31.885 -0.1866 -0.2970 -0.1310
 3459W        W 5659  23.187   1.727  18.325 -0.0808 -0.0279  0.1058
 3460W        W 5660   9.335   0.901  22.651  0.0510  0.1716  0.1284
 3461W        W 5661   5.669   6.608  17.544  0.1443  0.2016  0.2423
 3462W        W 5662   7.821   0.729  15.416 -0.3955 -0.0984 -0.1723
 3463W        W 5663  14.122   1.738  11.025  0.0203 -0.5168  0.1533
 3464W        W 5664   1.437   7.161  20.126 -0.0422 -0.1603 -0.2394
 3465W        W 5665  13.888   6.152  28.293  0.0913 -0.0457  0.2242
 3466W        W 5666  10.970   1.544  12.627  0.1418  0.2989 -0.2916
 3467W        W 5667  11.411   0.305   9.178  0.0289  0.0668 -0.0898
 3468W        W 5668   5.278   0.755   8.180  0.2436 -0.0929  0.0605
 3469W        W 5669   8.294   3.612  27.307  0.1264  0.2074 -0.1146
 3470W        W 5670  10.691   4.284  23.777  0.1621 -0.0207 -0.1092
 3471W        W 5671   9.473   4.314   5.087  0.4697 -0.2524  0.1382
 3472W        W 5672   5.377   4.166   5.065  0.2279  0.1008  0.0304
 3473W        W 5673   7.815   3.054   8.111  0.0277  0.0175 -0.0013
 3474W        W 5674  18.717   1.823   6.662 -0.0679 -0.0125  0.0757
 3475W        W 5675   3.117   5.412  10.772 -0.1010  0.2051  0.1417
 3476W        W 5676  16.365   2.395  26.718 -0.0315 -0.5106  0.0703
 3477W        W 5677   1.628   1.644   2.077  0.0083 -0.2191  0.2434
 3478W        W 5678  11.780   3.048   4.161 -0.4222 -0.1470 -0.2555
 3479W        W 5679  21.895   5.056  15.915  0.1340 -0.1315 -0.1699
 3480W        W 5680   0.028   7.794   4.468  0.0404 -0.2190 -0.3253
 3481W        W 5681   1.865   0.661  20.818  0.3663  0.0396  0.1291
 3482W        W 5682  22.297   4.375   3.241 -0.0482 -0.1917  0.2101
 3483W        W 5683   1.100   2.919  11.817  0.0053 -0.2231  0.0627
 3484W        W 5684  11.314   5.424  32.707  0.0258  0.6150  0.0206
 3485W        W 5685   6.178   5.068   2.514  0.1059 -0.0692  0.1111
 3486W        W 5686   4.848   2.857  13.899 -0.2737 -0.2215 -0.2153
 3487W        W 5687  18.428   7.047  26.094 -0.1388  0.0935  0.2383
 3488W        W 5688  15.973   1.866  20.940  0.2308  0.0412 -0.4145
 3489W        W 5689  11.162   4.959   1.597  0.1927 -0.2556 -0.0211
 3490W        W 5690  14.189   1.894  28.962 -0.0791 -0.3191  0.0128
 3491W        W 5691  21.789   6.804  18.770  0.0735  0.4515 -0.0508
 3492W        W 5692  22.395   6.323   3.613 -0.1861 -0.0100 -0.0697
 3493W        W 5693   9.510   2.467  16.614  0.0673 -0.0443 -0.2332
 3494W        W 5694  10.090   2.600   8.770 -0.0044  0.1895 -0.2817
 3495W        W 5695  11.055   5.382   6.528 -0.1797 -0.0217  0.1218
 3496W        W 5696  24.536   5.338  22.737 -0.2252  0.1645  0.2906
 3497W        W 5697  15.198   0.959   1.745  0.3291  0.2939 -0.0899
 3498W        W 5698   0.964   1.580  25.574  0.0149 -0.1580 -0.3193
 3499W        W 5699   9.712   3.196   3.021  0.3538  0.0994 -0.0094
 3500W        W 5700   8.263   6.585  17.372 -0.1778  0.2496  0.0739
 3501W        W 5701  22.502   1.826   9.719  0.0907 -0.0227 -0.3856
 3502W        W 5702   8.637   0.080  23.247 -0.1042  0.0772  0.0546
 3503W        W 5703  19.476   2.891  10.373  0.0863  0.2990 -0.2827
 3504W        W 5704   2.188   2.674  26.301  0.1626 -0.1471 -0.1120
 3505W        W 5705  16.057   5.095  32.308  0.1210  0.3840 -0.1581
 3506W        W 5706  18.800   1.347  21.514 -0.0525  0.1432  0.1620
 3507W        W 5707  20.285   0.489   2.631  0.5178 -0.0926 -0.2832
 3508W        W 5708  11.004   2.956  28.232 -0.1083  0.0950  0.1100
 3509W        W 5709   6.091   0.542  16.719 -0.0324  0.2348  0.1249
 3510W        W 5710  12.189   5.758  26.829 -0.0754  0.1300  0.0018
 3511W        W 5711  11.770   7.162  14.151  0.1323  0.0431 -0.1909
 3512W        W 5712   5.590   1.644   1.808 -0.0764 -0.4902  0.0801
 3513W        W 5713  14.527   5.020  29.091 -0.0828  0.0577 -0.1014
 3514W        W 5714  24.430   5.355  17.102 -0.6017 -0.2562 -0.1228
 3515W        W 5715  11.658   3.620   2.760 -0.0349  0.1625 -0.0854
 3516W        W 5716   7.099   0.130  26.132  0.0627  0.1394  0.2510
 3517W        W 5717  22.431   7.492   4.516  0.1034 -0.1970 -0.0892
 3518W        W 5718  18.809   4.214   7.309  0.1241 -0.0916  0.3335
 3519W        W 5719   5.980   1.513   5.536  0.1162 -0.1309 -0.0693
 3520W        W 5720   9.185   7.612   6.757 -0.0522  0.0990 -0.1353
 3521W        W 5721   2.427   6.375  25.785 -0.1550  0.0513  0.0193
 3522W        W 5722  15.297   6.286  21.954  0.0200  0.1939 -0.4549
 3523W        W 5723  15.749   3.177  11.631 -0.3025 -0.2072  0.0688
 3524W        W 5724  16.232   3.619  31.633 -0.0583  0.0229 -0.0892
 3525W        W 5725   7.507   3.283   0.757  0.2113 -0.1475 -0.1464
 3526W        W 5726   0.052   2.976  28.741  0.0668 -0.1619 -0.0216
 3527W        W 5727  16.040   4.666  25.621 -0.1005  0.3102  0.1540
 3528W        W 5728   4.013   0.938  31.194 -0.1155  0.2142  0.0571
 3529W        W 5729   1.421   7.290   2.782 -0.0409 -0.2027 -0.0203
 3530W        W 5730   2.057   6.134  29.642  0.1348  0.2450 -0.1880
 3531W        W 5731  14.232   1.339   5.253 -0.2816  0.0821 -0.2016
 3532W        W 5732  18.845   3.823  28.245  0.0105 -0.0451  0.2829
 3533W        W 5733   4.435   3.337   2.690  0.2040 -0.3279 -0.1040
 3534W        W 5734  15.016   0.923   0.661 -0.0434 -0.0198  0.1599
 3535W        W 5735   4.525   0.143  23.511  0.1884 -0.2392 -0.3082
 3536W        W 5736   0.464   1.240  31.985  0.0655  0.0412  0.1338
 3537W        W 5737  13.088   7.585   6.916  0.1404  0.0117 -0.1199
 3538W        W 5738  21.944   3.033  31.453  0.5664 -0.1742 -0.1356
 3539W        W 5739   7.069   7.529   1.578 -0.1586 -0.1627  0.3368
 3540W        W 5740   2.182   3.911  20.177  0.0501 -0.2350 -0.4575
 3541W        W 5741   5.569   2.318   1.411 -0.0516 -0.1991  0.0996
 3542W        W 5742   5.473   7.242  24.133 -0.0897  0.0182  0.0255
 3543W        W 5743  16.606   6.400  27.420 -0.3453 -0.0055  0.2513
 3544W        W 5744  18.730   3.124  19.561  0.3368 -0.0945  0.2735
 3545W        W 5745  20.094   3.974   3.793  0.0210  0.0369 -0.0050
 3546W        W 5746  18.467   3.686   9.225  0.1323  0.3160 -0.0780
 3547W        W 5747  24.549   7.633  31.376  0.4557  0.1776 -0.1815
 3548W        W 5748  17.340   7.099  17.194  0.0131  0.0110 -0.2077
 3549W        W 5749  16.549   1.575   6.491  0.0514  0.1027  0.1753
 3550W        W 5750   3.288   3.997   2.819  0.0898  0.1962 -0.0718
 3551W        W 5751  11.854   0.254   6.548  0.0375  0.4067 -0.3675
 3552W        W 5752  13.223   7.264  10.765  0.2427  0.0637  0.0324
 3553W        W 5753  11.407   0.053   2.505 -0.1095  0.1435 -0.1772
 3554W        W 5754   7.214   2.704   1.338  0.1854  0.3037  0.0432
 3555W        W 5755   2.297   1.603   4.362 -0.0046 -0.0766  0.0629
 3556W        W 5756  12.280   3.610   9.900  0.0922 -0.0487  0.2187
 3557W        W 5757  19.563   3.545   0.685 -0.2187  0.1371 -0.0984
 3558W        W 5758  20.869   6.672  17.006 -0.0003  0.1861 -0.0925
 3559W        W 5759  15.026   1.132  27.654 -0.1070 -0.1961 -0.0175
 3560W        W 5760   4.593   1.801  15.289 -0.0145  0.0412  0.1821
 3561W        W 5761   2.099   5.949   3.089  0.1983 -0.1802  0.0185
 3562W        W 5762   4.981   0.674   7.639  0.0929  0.2926 -0.1211
 3563W        W 5763   0.216   5.445  24.695  0.1476  0.0581 -0.0563
 3564W        W 5764   0.417   2.775   5.870 -0.1507  0.1298 -0.1517
 3565W        W 5765   8.523   4.438  18.240 -0.2378 -0.2272  0.2217
 3566W        W 5766   6.209   3.493   5.072 -0.1216  0.2171 -0.2257
 3567W        W 5767  13.397   0.124   0.473  0.2206  0.1553 -0.1471
 3568W        W 5768   7.022   4.481  16.919 -0.2443 -0.3049  0.0403
 3569W        W 5769   5.059   4.915  25.818 -0.2020 -0.0705 -0.1002
 3570W        W 5770  12.048   4.197  29.828  0.2168  0.0773  0.1074
 3571W        W 5771  22.754   0.443   1.878 -0.0005 -0.0123 -0.0265
 3572W        W 5772   9.743   7.296  25.341 -0.0566 -0.0978 -0.1357
 3573W        W 5773  22.617   2.465  30.683  0.2045  0.3795  0.0275
 3574W        W 5774   3.274   2.114   9.627  0.5036  0.1166  0.3133
 3575W        W 5775  11.513   4.921   9.409 -0.1606 -0.2002  0.1967
 3576W        W 5776   7.230   1.426   7.439 -0.2226 -0.2427 -0.0084
 3577W        W 5777  17.496   3.272   5.866  0.0977 -0.2462  0.3809
 3578W        W 5778  15.713   6.661  30.325  0.2400  0.3372  0.1773
 3579W        W 5779   3.986   0.221  20.999 -0.1971 -0.2284  0.0592
 3580W        W 5780  20.293   2.494  25.390 -0.1420  0.2642 -0.2827
 3581W        W 5781  14.570   6.058   3.921 -0.2458 -0.0855  0.0853
 3582W        W 5782   9.536   0.098   7.501  0.0934  0.0739 -0.0266
 3583W        W 5783   6.393   4.814   5.618 -0.0947 -0.0574  0.1160
 3584W        W 5784   8.546   5.147   5.410  0.1804 -0.0554  0.1832
 3585W        W 5785   2.885   6.057  29.203 -0.0206 -0.2042  0.1528
 3586W        W 5786  15.942   6.426   5.156 -0.1614 -0.1149 -0.1337
 3587W        W 5787  15.591   2.069  23.676 -0.0872  0.1236 -0.0370
 3588W        W 5788  18.251   5.081   5.520  0.1360 -0.3398 -0.0065
 3589W        W 5789   2.133   5.790  23.540 -0.1189  0.1135 -0.2058
 3590W        W 5790  20.306   4.008  26.891 -0.1392  0.1235 -0.0490
 3591W        W 5791   5.548   2.054  25.480 -0.3321  0.0843 -0.1392
 3592W        W 5792  15.602   0.853  26.347 -0.5995  0.1247  0.4026
 3593W        W 5793   7.832   4.866  17.990  0.0296  0.0187  0.0758
 3594W        W 5794  12.304   3.564  24.056  0.0232  0.1030 -0.1651
 3595W        W 5795  21.767   0.642  16.403  0.1805  0.2365 -0.0461
 3596W        W 5796  12.759   3.224  13.801  0.2783  0.2940 -0.2708
 3597W        W 5797  22.228   1.768  31.985  0.0398  0.3886  0.3693
 3598W        W 5798  12.941   5.345   4.239  0.1948  0.5376  0.0915
 3599W        W 5799  12.705   2.663   8.201  0.0768 -0.0813 -0.0944
 3600W        W 5800  22.208   5.597  26.043 -0.0001  0.3092 -0.1078
 3601W        W 5801   0.965   6.716   6.105 -0.3081 -0.1895  0.0251
 3602W        W 5802   8.717   7.459  15.816 -0.1357 -0.1026 -0.1607
 3603W        W 5803  13.232   6.441  22.553  0.3126  0.1301  0.0277
 3604W        W 5804  20.754   1.415  31.575  0.1154  0.1809 -0.1957
 3605W        W 5805  22.195   0.098   7.156  0.1447  0.2145 -0.0677
 3606W        W 5806  22.518   0.320  23.988  0.1358  0.1447  0.0750
 3607W        W 5807  21.647   5.101   3.291 -0.2532  0.2090  0.0884
 3608W        W 5808  20.871   0.440   1.206 -0.0246 -0.1947  0.2233
 3609W        W 5809   2.254   3.479  25.586 -0.3593  0.2942 -0.1103
 3610W        W 5810  23.696   1.307   9.598  0.3100 -0.0935  0.3398
 3611W        W 5811  18.391   5.445  20.016  0.1586  0.2275  0.1949
 3612W        W 5812  12.286   2.174  27.542 -0.1059 -0.3340  0.0003
 3613W        W 5813   1.143   3.559  21.196  0.4187  0.0027 -0.2154
 3614W        W 5814   6.545   2.595  11.695 -0.1308  0.0573 -0.2113
 3615W        W 5815   1.862   3.184   7.645 -0.1233 -0.1286  0.1800
 3616W        W 5816  19.834   0.949  15.216 -0.1867  0.0033 -0.4034
 3617W        W 5817  17.603   1.416   3.087  0.1706 -0.1109  0.0401
 3618W        W 5818   9.730   4.642  14.803  0.2263 -0.1226  0.1151
 3619W        W 5819  13.208   5.194   7.998  0.0427 -0.1665 -0.2602
 3620W        W 5820   9.896   5.686  27.831 -0.1501 -0.2058  0.0972
 3621W        W 5821   0.017   4.286  20.236  0.0121 -0.1396  0.3471
 3622W        W 5822  22.230   3.389  28.529 -0.1370  0.2527  0.1392
 3623W        W 5823  15.649   1.284  19.697 -0.2960 -0.2097 -0.1237
 3624W        W 5824  13.016   6.252  28.336  0.0861 -0.0395  0.2175
 3625W        W 5825   4.297   1.353   1.838  0.1824  0.2155  0.1711
 3626W        W 5826  14.671   5.790  24.759 -0.0050 -0.1264 -0.2168
 3627W        W 5827  17.784   3.252  15.638  0.1025 -0.0214  0.0738
 3628W        W 5828  18.202   3.789   6.055  0.2736 -0.0247 -0.1760
 3629W        W 5829  20.793   4.375   1.650  0.4321 -0.1266 -0.0485
 3630W        W 5830  21.328   0.100  25.978  0.0880 -0.1291 -0.3322
 3631W        W 5831  18.873   0.210   7.675  0.1759  0.1685 -0.0254
 3632W        W 5832  16.753   2.333   0.472 -0.1078  0.1999  0.0298
 3633W        W 5833   9.002   1.851   6.856  0.1088 -0.1901 -0.0265
 3634W        W 5834   0.916   1.505  18.185 -0.2476  0.1876  0.3683
 3635W        W 5835   4.861   2.958   5.352  0.1357  0.2334  0.0237
 3636W        W 5836   0.012   4.379   6.140  0.0357 -0.4754 -0.0312
 3637W        W 5837   2.804   5.453   7.412 -0.0109  0.2351  0.2229
 3638W        W 5838  20.082   2.864  18.924  0.1074  0.1175 -0.2646
 3639W        W 5839  23.723   1.918  25.112  0.2600 -0.0888  0.1031
 3640W        W 5840  11.062   5.683   7.596 -0.2638 -0.1686 -0.0848
 3641W        W 5841  19.139   6.598  28.164  0.0440  0.4107  0.1000
 3642W        W 5842  18.598   0.262  32.171 -0.0247 -0.2673 -0.3121
 3643W        W 5843   9.111   5.825   5.153 -0.2384 -0.0172 -0.1378
 3644W        W 5844   7.187   7.687  27.898 -0.1313 -0.0843  0.2355
 3645W        W 5845   0.287   4.768   3.599  0.0208  0.2848  0.3924
 3646W        W 5846   6.140   4.976   1.983  0.1224  0.2111 -0.1525
 3647W        W 5847  17.658   2.099  32.357  0.0209 -0.0059 -0.0032
 3648W        W 5848   0.875   2.294   7.684  0.0897  0.2841 -0.0563
 3649W        W 5849  24.125   0.847   2.504  0.1200  0.3470 -0.0136
 3650W        W 5850  24.100   1.110  15.625 -0.1195  0.2543 -0.0770
 3651W        W 5851   5.797   1.745  31.844 -0.2661  0.2762  0.1327
 3652W        W 5852   5.968   0.852   1.394 -0.4380  0.2065  0.2454
 3653W        W 5853   9.698   3.057  30.652 -0.1089 -0.2517  0.0942
 3654W        W 5854  24.785   3.848   8.413  0.1613 -0.2581  0.0920
 3655W        W 5855  22.520   0.955   9.650 -0.1263 -0.2490 -0.0445
 3656W        W 5856  19.569   2.210  31.723  0.0805 -0.2474  0.1407
 3657W        W 5857  12.245   0.190  31.693 -0.1561  0.0198 -0.0333
 3658W        W 5858   1.980   3.714   4.947 -0.0984 -0.1264 -0.0846
 3659W        W 5859  24.658   7.445  19.703 -0.2432 -0.3229  0.0075
 3660W        W 5860  14.383   2.062  10.163  0.1036  0.1211 -0.1992
 3661W        W 5861   4.862   2.101  24.760 -0.0605  0.0904  0.1883
 3662W        W 5862  18.746   4.907  21.201 -0.1836  0.0972 -0.1757
 3663W        W 5863   8.680   3.375  27.530 -0.0898 -0.1771  0.1893
 3664W        W 5864  18.439   2.032  20.034  0.0475 -0.3094 -0.0994
 3665W        W 5865  16.807   4.304  27.875  0.1516  0.0635  0.2452
 3666W        W 5866  22.113   3.832  31.099 -0.1708 -0.5498 -0.1112
 3667W        W 5867  17.047   1.687   1.508  0.1044  0.0183  0.0494
 3668W        W 5868   3.494   2.757   6.092 -0.3144  0.1421  0.1559
 3669W        W 5869  14.517   5.888  30.439 -0.3645  0.0013 -0.1077
 3670W        W 5870  10.185   3.370  29.139  0.2223  0.0371  0.1208
 3671W        W 5871  24.200   3.040   9.524  0.2199  0.3033  0.0589
 3672W        W 5872   7.290   6.999   5.646  0.0410 -0.0237 -0.0262
 3673W        W 5873  17.550   6.888  25.168 -0.1622  0.0723  0.1290
 3674W        W 5874   6.010   6.409  16.486 -0.0869 -0.2401  0.1247
 3675W        W 5875  15.322   3.281  10.032 -0.2455 -0.1949 -0.3460
 3676W        W 5876   6.534   1.964  29.351  0.0896 -0.0051  0.1004
 3677W        W 5877  23.867   1.653  19.159 -0.2382 -0.1808  0.0220
 3678W        W 5878   7.165   0.471   7.160  0.1324 -0.0562 -0.4375
 3679W        W 5879  20.242   7.458  14.731 -0.0847  0.0391  0.1616
 3680W        W 5880  23.107   1.117  10.189  0.2169  0.0530  0.0116
 3681W        W 5881  15.243   7.296   1.912  0.0971 -0.1331 -0.0059
 3682W        W 5882   3.543   7.539   0.552  0.0750  0.0124  0.1962
 3683W        W 5883  24.106   4.707  31.561 -0.0274 -0.0330  0.3584
 3684W        W 5884  24.490   5.299  27.763 -0.2319  0.1885 -0.0929
 3685W        W 5885  12.112   0.795   6.989  0.1907 -0.0412 -0.2400
 3686W        W 5886   3.045   5.984  12.853 -0.0358  0.0233  0.4464
 3687W        W 5887  24.643   1.583  26.507 -0.1610 -0.1768 -0.0587
 3688W        W 5888  15.147   4.196  10.505  0.1135 -0.0379 -0.0842
 3689W        W 5889  14.849   0.889  22.813  0.2243 -0.0274  0.0002
 3690W        W 5890   5.808   0.200  23.893  0.3505 -0.3411 -0.0116
 3691W        W 5891  17.113   3.712  28.771 -0.2183  0.0734  0.0346
 3692W        W 5892   3.716   3.586   2.628  0.3513 -0.2115  0.0410
 3693W        W 5893  21.489   5.390   0.733  0.1149 -0.1374  0.2213
 3694W        W 5894   4.987   5.372  15.774 -0.3992 -0.2690  0.1182
 3695W        W 5895   6.308   3.819  17.071  0.1706 -0.2390 -0.2224
 3696W        W 5896   2.215   4.826  21.062  0.0171  0.1423 -0.0313
 3697W        W 5897  13.821   7.766   7.994  0.0634 -0.1962 -0.3290
 3698W        W 5898   6.941   1.246  12.982  0.4414  0.0037  0.0566
 3699W        W 5899  13.662   0.616  25.697 -0.0905  0.0726  0.2105
 3700W        W 5900   1.221   3.896  11.431 -0.1163  0.3308 -0.1488
 3701W        W 5901  22.097   7.254   3.112 -0.0607  0.0339  0.0275
 3702W        W 5902   8.694   3.763  31.055 -0.3147 -0.0148  0.2671
 3703W        W 5903  13.732   4.278   6.474  0.1279 -0.0808  0.1934
 3704W        W 5904   9.912   2.704   2.664  0.3085  0.2940 -0.1764
 3705W        W 5905  15.927   3.837   8.959  0.0073 -0.0496 -0.0513
 3706W        W 5906  23.088   3.750  31.123  0.0561 -0.2892  0.2059
 3707W        W 5907  16.891   2.382   4.493 -0.1328 -0.1394 -0.2268
 3708W        W 5908  24.943   7.256   2.474 -0.0033  0.2009 -0.0296
 3709W        W 5909  10.888   1.034   3.686  0.2252  0.2658  0.1381
 3710W        W 5910  23.707   1.463   3.295  0.1304 -0.0783  0.1770
 3711W        W 5911  18.788   4.661  26.310 -0.2237 -0.0011 -0.1847
 3712W        W 5912  21.240   1.038  27.235 -0.0797  0.1102 -0.0323
 3713W        W 5913  11.609   0.647  16.392  0.2664  0.1423  0.1730
 3714W        W 5914   4.004   4.645   7.483 -0.2041  0.1046 -0.1390
 3715W        W 5915   7.162   5.627   4.389  0.0811  0.1040 -0.0279
 3716W        W 5916   6.395   5.014  24.498  0.0213 -0.0986 -0.1856
 3717W        W 5917   9.414   6.468   3.543  0.0148 -0.0350 -0.3017
 3718W        W 5918  10.023   7.602  24.710  0.0153  0.3503 -0.1970
 3719W        W 5919  23.356   3.876  24.897  0.0036 -0.0017 -0.1637
 3720W        W 5920  24.939   4.299   2.066  0.0359 -0.5597  0.3228
 3721W        W 5921  21.642   0.370  18.730 -0.1593  0.1596  0.0390
 3722W        W 5922   2.031   2.006  12.777  0.0840  0.1434 -0.0328
 3723W        W 5923   6.553   6.700   9.097 -0.1055 -0.0737  0.3017
 3724W        W 5924   2.786   1.450  25.006 -0.2705  0.1891 -0.0632
 3725W        W 5925  24.569   3.000  21.406  0.1413 -0.0894 -0.0765
 3726W        W 5926   8.577   0.227  17.063  0.0901 -0.1305 -0.0960
 3727W        W 5927  23.901   1.761  23.296  0.2135  0.0148 -0.1038
 3728W        W 5928  16.237   6.116   6.157  0.1202 -0.0711 -0.0197
 3729W        W 5929  13.582   0.338   8.291  0.0373  0.3130  0.0185
 3730W        W 5930   7.631   0.240  29.175  0.1408  0.3025  0.0056
 3731W        W 5931  12.482   4.944   3.096 -0.0245  0.4707 -0.0695
 3732W        W 5932   8.260   1.093  13.931 -0.0285 -0.1224 -0.1769
 3733W        W 5933   9.536   6.916   8.921 -0.0107  0.2055  0.3243
 3734W        W 5934  17.032   7.579  24.834 -0.0283  0.3008  0.1404
 3735W        W 5935   7.339   7.243  13.179  0.2020  0.1364 -0.0794
 3736W        W 5936  17.102   0.302   0.325  0.2685 -0.1186  0.2491
 3737W        W 5937  11.584   0.141  26.347 -0.2756 -0.2880 -0.1865
 3738W        W 5938   0.524   4.623   6.599 -0.1905 -0.2764  0.1120
 3739W        W 5939  12.188   2.167  23.322  0.0066  0.1532  0.1531
 3740W        W 5940   0.855   6.011   9.111  0.1193 -0.0220  0.1753
 3741W        W 5941  24.919   4.533   3.383 -0.2179 -0.0328 -0.1754
 3742W        W 5942   5.029   4.518  32.602  0.1315 -0.2280 -0.2179
 3743W        W 5943   0.672   5.291   2.833 -0.3282  0.0636  0.0002
 3744W        W 5944  15.698   5.710   1.012 -0.2277 -0.0462 -0.3747
 3745W        W 5945  13.269   4.443   1.925 -0.1578 -0.0389  0.0949
 3746W        W 5946  17.534   0.251  10.976 -0.0338  0.0358  0.2575
 3747W        W 5947  21.862   5.654  23.080  0.1979 -0.1000  0.1354
 3748W        W 5948  14.723   1.768   7.158  0.1598  0.1214 -0.5524
 3749W        W 5949  19.991   6.746  32.702 -0.0973  0.0656  0.1765
 3750W        W 5950  20.521   3.656  29.006  0.2498  0.0801  0.1605
 3751W        W 5951  22.252   0.394   8.265  0.2380  0.1530  0.0522
 3752W        W 5952  24.969   4.582  19.469 -0.1249 -0.2275  0.1970
 3753W        W 5953  18.811   5.417  26.612  0.2551 -0.1087 -0.0099
 3754W        W 5954  21.756   0.051  25.407 -0.0705 -0.0427  0.3963
 3755W        W 5955  11.091   0.613  31.950 -0.0795 -0.1679  0.0788
 3756W        W 5956  15.058   1.131   4.181 -0.2159 -0.2243  0.0118
 3757W        W 5957  12.947   1.255  25.497  0.0702 -0.2453 -0.2431
 3758W        W 5958   6.694   1.025   9.094 -0.3519  0.1048 -0.3352
 3759W        W 5959  20.699   4.990  31.288 -0.0619  0.0909  0.0920
 3760W        W 5960  15.714   7.277  30.944  0.0885 -0.1488 -0.2033
 3761W        W 5961  11.687   5.970   0.163  0.2012 -0.0965 -0.0605
 3762W        W 5962   1.319   2.457  17.583 -0.0097  0.1804  0.0863
 3763W        W 5963  15.694   7.712  22.614  0.1120  0.2235 -0.2190
 3764W        W 5964   2.766   6.907  24.011  0.0424  0.1813 -0.0575
 3765W        W 5965   5.639   5.659  12.891  0.1971 -0.0220 -0.0458
 3766W        W 5966   7.664   5.583  22.904 -0.0642 -0.4867  0.0907
 3767W        W 5967   3.515   0.797   2.179 -0.1099 -0.2541 -0.1371
 3768W        W 5968  14.391   5.843   8.025 -0.0457  0.1003  0.1333
 3769W        W 5969   1.910   5.665   6.624 -0.0963  0.0614 -0.1553
 3770W        W 5970  18.913   6.956  18.347 -0.2555  0.0383 -0.3002
 3771W        W 5971  21.032   2.195  19.612  0.0503  0.0339 -0.1730
 3772W        W 5972  19.525   5.766   5.700  0.2346  0.0161 -0.0802
 3773W        W 5973   6.822   0.341  16.301 -0.0617 -0.0279 -0.0035
 3774W        W 5974  18.355   1.280  21.157 -0.1945 -0.1387  0.1972
 3775W        W 5975   6.480   1.393  26.666  0.2268 -0.0648  0.1667
 3776W        W 5976   7.691   6.114  24.340  0.1799 -0.1150 -0.1172
 3777W        W 5977  16.859   6.813  22.155 -0.2547  0.1826 -0.1947
 3778W        W 5978   1.962   2.207  10.809  0.2060  0.1179  0.1411
 3779W        W 5979   5.604   0.567  30.756 -0.0940 -0.0549  0.0975
 3780W        W 5980   3.717   0.996   2.806 -0.1676 -0.2500 -0.1891
 3781W        W 5981  15.847   2.802  30.641  0.0470  0.2595 -0.1733
 3782W        W 5982   6.617   7.222  26.119 -0.0550  0.0709  0.0121
 3783W        W 5983  11.904   1.603  32.624  0.1169  0.1705  0.3766
 3784W        W 5984  17.194   1.597   8.343 -0.2733  0.2480  0.1970
 3785W        W 5985  23.851   7.806  23.125  0.1982  0.1129  0.1778
 3786W        W 5986  20.075   7.620  26.654 -0.0389  0.1416  0.0221
 3787W        W 5987   7.452   6.143  30.756  0.0610 -0.0103 -0.1086
 3788W        W 5988  23.230   6.088  20.732 -0.3836  0.0815  0.4975
 3789W        W 5989   8.443   7.675   0.576 -0.0481  0.1248 -0.0389
 3790W        W 5990  15.181   7.631  12.864 -0.0074  0.0200  0.0657
 3791W        W 5991  23.027   6.373  23.144 -0.0974  0.1609 -0.1658
 3792W        W 5992  12.899   5.036  10.706 -0.1145  0.0068  0.1451
 3793W        W 5993   0.005   0.776  27.071  0.1772  0.1420  0.0979
 3794W        W 5994  18.935   0.074  30.764  0.0736 -0.2825 -0.1092
 3795W        W 5995  12.467   0.422   7.824 -0.0315 -0.3654 -0.0671
 3796W        W 5996   7.208   3.113   4.787 -0.0605 -0.2186  0.0773
 3797W        W 5997   5.810   2.179  30.955 -0.0526  0.0815 -0.1257
 3798W        W 5998  10.519   3.029   0.994 -0.3371 -0.2075  0.0436
 3799W        W 5999  15.508   7.113  25.745  0.0840 -0.0389 -0.3794
 3800W        W 6000  23.170   3.951  14.559 -0.0637 -0.1998 -0.1933
 3801W        W 6001   1.195   6.493  20.430 -0.0407 -0.2632  0.3146
 3802W        W 6002  18.159   2.449   9.270 -0.1298 -0.0167 -0.0707
 3803W        W 6003   8.559   1.216   5.708  0.0487  0.5385  0.0798
 3804W        W 6004  18.674   6.138   4.179  0.1297  0.0508  0.2225
 3805W        W 6005   9.366   3.535   6.565  0.1875 -0.0421  0.0137
 3806W        W 6006  13.939   7.740  30.160  0.0709  0.2930 -0.0848
 3807W        W 6007  11.473   7.100   9.025  0.0095  0.0129 -0.1291
 3808W        W 6008  14.759   1.120  31.439 -0.0851  0.1247  0.3108
 3809W        W 6009  11.361   2.437  27.473 -0.2158  0.0103 -0.0915
 3810W        W 6010  16.423   2.668   8.963 -0.0037  0.4833  0.1466
 3811W        W 6011   6.965   7.332   9.620  0.0076 -0.0706 -0.0566
 3812W        W 6012   6.406   4.347  13.786 -0.0147 -0.0847 -0.0205
 3813W        W 6013  24.299   7.489  20.462 -0.2242 -0.0863 -0.1616
 3814W        W 6014  21.872   3.861  15.285  0.0723  0.1078  0.1103
 3815W        W 6015  21.859   4.249  30.777  0.1190  0.0259 -0.2920
 3816W        W 6016  10.556   2.377  17.148  0.2689  0.0535 -0.0176
 3817W        W 6017  16.384   2.515  30.630  0.1281  0.1567 -0.3353
 3818W        W 6018   5.950   2.529  23.826 -0.0085 -0.2731  0.3551
 3819W        W 6019   3.256   7.682  21.488 -0.2720 -0.1907  0.0426
 3820W        W 6020  10.566   5.180   1.873 -0.3399  0.2460  0.0662
 3821W        W 6021   7.296   0.565  25.956  0.2563  0.0708  0.1004
 3822W        W 6022   4.779   5.292  23.520  0.3470  0.2981 -0.4527
 3823W        W 6023  24.040   3.868  25.603  0.2629 -0.3870  0.0982
 3824W        W 6024  17.862   1.584  18.514  0.0401 -0.1569 -0.2801
 3825W        W 6025  15.743   0.165   1.440 -0.1117  0.1205  0.0592
 3826W        W 6026   8.452   5.209  30.840 -0.1311  0.1384  0.3559
 3827W        W 6027  22.228   6.959   1.347  0.0248 -0.1693 -0.1071
 3828W        W 6028  14.385   3.124  25.996 -0.0875 -0.1935 -0.1176
 3829W        W 6029  11.760   1.451  28.538  0.1566 -0.1156 -0.1458
 3830W        W 6030  11.032   0.362   8.255 -0.0505  0.3989  0.3358
 3831W        W 6031   7.671   1.735   9.860 -0.0821  0.0840  0.2023
 3832W        W 6032  23.053   3.906  24.380 -0.2695 -0.1476 -0.2998
 3833W        W 6033  16.789   6.506  23.561 -0.0741 -0.3054 -0.0862
 3834W        W 6034   1.221   1.749  19.177 -0.0767 -0.1939  0.0881
 3835W        W 6035   5.455   7.368  16.185 -0.1285  0.0806 -0.1771
 3836W        W 6036  14.042   3.434  10.486 -0.1885 -0.1046  0.1708
 3837W        W 6037   7.777   6.928   0.105 -0.1952 -0.2166 -0.1907
 3838W        W 6038  17.297   3.310  16.795 -0.1925  0.0883  0.2310
 3839W        W 6039   9.579   4.699   6.960  0.0372  0.1610 -0.0160
 3840W        W 6040  14.889   7.220  21.995 -0.3878  0.1104 -0.0948
 3841W        W 6041  20.822   6.931  17.771 -0.0926 -0.0452 -0.1201
 3842W        W 6042  23.748   2.283  19.817 -0.2689  0.0704 -0.0735
 3843W        W 6043  18.097   6.235  25.586  0.0976 -0.1014 -0.1762
 3844W        W 6044   3.442   6.840   5.100 -0.0222 -0.0298 -0.0144
 3845W        W 6045  13.665   2.185  26.758 -0.0491  0.0428 -0.1279
 3846W        W 6046   5.630   0.782  24.209 -0.0955 -0.1621 -0.1906
 3847W        W 6047  14.369   2.264  25.130 -0.0387  0.2106 -0.0526
 3848W        W 6048   8.390   0.850  28.128  0.2432  0.0844 -0.0135
 3849W        W 6049  11.980   3.376  30.671 -0.0400  0.1932  0.0203
 3850W        W 6050   7.779   3.733  13.917  0.0630  0.0178  0.2730
 3851W        W 6051  23.741   4.823  24.386 -0.0100  0.1787  0.0199
 3852W        W 6052   1.612   6.001   9.623  0.1256 -0.0635  0.1169
 3853W        W 6053   7.763   6.504  15.371  0.0329  0.1582 -0.1067
 3854W        W 6054  22.422   2.211  31.869  0.0443  0.2533  0.0932
 3855W        W 6055   8.860   2.486  28.497  0.0782 -0.1889  0.1786
 3856W        W 6056  23.253   4.827  26.762 -0.1003 -0.1090 -0.2407
 3857W        W 6057   1.489   1.183   8.679 -0.3428  0.2988  0.3200
 3858W        W 6058  13.116   3.087  14.259 -0.1034 -0.2352  0.0887
 3859W        W 6059  17.277   5.926  23.085  0.0327 -0.0184  0.0367
 3860W        W 6060   2.172   4.307  28.943 -0.1140  0.0866 -0.0782
 3861W        W 6061   7.125   0.099  12.101  0.1193 -0.0880 -0.0539
 3862W        W 6062   2.207   6.330  24.494  0.1528  0.1662  0.1741
 3863W        W 6063  10.692   0.371  29.733 -0.1373 -0.2005 -0.1129
 3864W        W 6064  12.425   7.027  25.087 -0.1700 -0.5372 -0.1228
 3865W        W 6065  10.489   3.409   5.949 -0.0159  0.1333 -0.0036
 3866W        W 6066  22.377   2.384   6.976  0.1175  0.0746 -0.2220
 3867W        W 6067  13.067   5.558   5.242  0.0475 -0.1370  0.1830
 3868W        W 6068   8.847   3.843  13.678 -0.1216 -0.1409 -0.3529
 3869W        W 6069   6.483   5.173  22.381  0.1502 -0.1319  0.0757
 3870W        W 6070   1.399   0.510  27.303 -0.0248 -0.0795 -0.1634
 3871W        W 6071  12.217   2.512  15.454 -0.3059  0.1187  0.1652
 3872W        W 6072  24.010   3.303   6.136 -0.4804 -0.0519  0.0241
 3873W        W 6073   4.517   7.616  11.641  0.1439 -0.1441  0.0652
 3874W        W 6074  11.440   1.587   1.956 -0.0463 -0.0749 -0.1696
 3875W        W 6075  15.028   5.587   4.471 -0.3316  0.1279  0.0008
 3876W        W 6076  17.029   3.368   6.696 -0.1220 -0.2111  0.2336
 3877W        W 6077   5.963   0.698  26.491  0.1373 -0.1535  0.0120
 3878W        W 6078  17.376   0.451  29.547 -0.0765  0.2242 -0.2239
 3879W        W 6079   2.788   2.442  23.422  0.0418  0.0996 -0.1892
 3880W        W 6080  24.187   7.808  19.426  0.0967 -0.2315  0.2045
 3881W        W 6081   1.360   7.680  30.927 -0.0266  0.0573  0.0652
 3882W        W 6082  23.638   6.580  15.198 -0.2634 -0.1439 -0.0389
 3883W        W 6083  21.698   4.159   4.952  0.1296  0.1730  0.0272
 3884W        W 6084  12.425   6.511  25.985  0.1694  0.2150 -0.0796
 3885W        W 6085  15.404   4.051   6.540  0.2989 -0.0695 -0.7162
 3886W        W 6086  10.564   1.217  28.854 -0.1099  0.3097 -0.1937
 3887W        W 6087   7.638   0.505   0.766 -0.0820  0.1672  0.3911
 3888W        W 6088   0.904   3.398  22.020 -0.0117 -0.2178 -0.1238
 3889W        W 6089  19.978   5.236  25.049 -0.0014 -0.0438  0.3512
 3890W        W 6090   6.881   6.168  24.402 -0.1327 -0.0286 -0.4524
 3891W        W 6091  20.176   3.668  28.538  0.1122  0.2470  0.0936
 3892W        W 6092  19.136   4.337  19.953  0.5744  0.2236 -0.2937
 3893W        W 6093   8.308   4.886  13.482 -0.2071  0.0298  0.0120
 3894W        W 6094  23.389   3.985  16.406 -0.0857 -0.2368 -0.0447
 3895W        W 6095  19.528   1.775   6.284  0.0721 -0.0435  0.0620
 3896W        W 6096   1.087   2.724   9.769 -0.0829 -0.2115 -0.0126
 3897W        W 6097  13.914   0.163  25.378  0.0993 -0.0961  0.0123
 3898W        W 6098  14.280   4.633  23.821 -0.2539  0.0951  0.1306
 3899W        W 6099  20.544   5.331  24.437 -0.0580  0.0587  0.1295
 3900W        W 6100   7.325   0.167  23.144 -0.3111 -0.4060  0.4599
 3901W        W 6101   9.677   5.300  31.869  0.0883 -0.2613 -0.0419
 3902W        W 6102  12.253   3.649  25.987  0.0488 -0.2203  0.1028
 3903W        W 6103   9.422   0.514  26.651 -0.3131  0.0164  0.2962
 3904W        W 6104  23.919   7.374  30.180  0.0227 -0.2666 -0.1946
 3905W        W 6105  12.867   0.302   0.413  0.2012  0.1715  0.0150
 3906W        W 6106   0.650   4.403   5.354 -0.0357  0.0373  0.0915
 3907W        W 6107   6.838   0.560  31.555  0.1120 -0.0243 -0.1531
 3908W        W 6108   7.359   6.040   5.368  0.2521 -0.2475  0.0296
 3909W        W 6109  17.440   5.582  15.699  0.2772  0.2455 -0.2481
 3910W        W 6110  17.904   7.042  15.191  0.1226 -0.1061  0.0810
 3911W        W 6111   0.171   3.477  20.368  0.0958  0.1014 -0.0444
 3912W        W 6112   7.601   4.952   5.997  0.1448  0.0667 -0.1941
 3913W        W 6113   7.514   7.736   4.807 -0.0409  0.2675 -0.1058
 3914W        W 6114  19.844   6.648   4.132  0.0316 -0.0739  0.2849
 3915W        W 6115   8.043   2.865  30.582 -0.2705 -0.2450 -0.2462
 3916W        W 6116  10.200   7.203   8.277 -0.2059 -0.0215 -0.0337
 3917W        W 6117   2.579   5.254  31.774  0.0095  0.2265 -0.3581
 3918W        W 6118  15.691   6.255   8.784 -0.0068  0.1137 -0.2447
 3919W        W 6119  19.632   6.384  17.088 -0.0049 -0.1059 -0.3704
 3920W        W 6120  13.049   2.320   4.997 -0.0701 -0.0521 -0.0958
 3921W        W 6121  14.151   4.890  11.990 -0.1568  0.0041  0.2531
 3922W        W 6122  14.015   2.140  12.289 -0.2694 -0.4366 -0.1342
 3923W        W 6123  20.169   3.657  17.742 -0.3674  0.0017 -0.2621
 3924W        W 6124  16.069   5.042  26.094 -0.0683  0.0246 -0.3005
 3925W        W 6125  12.294   2.945  10.869  0.0728 -0.0017 -0.2641
 3926W        W 6126  22.065   1.759  18.893 -0.1414  0.0684  0.0788
 3927W        W 6127   6.324   1.339  24.231 -0.0806  0.0377 -0.0075
 3928W        W 6128   5.861   5.280  14.806  0.2041 -0.0723 -0.0419
 3929W        W 6129  10.844   7.522   3.921  0.0731 -0.1919  0.0021
 3930W        W 6130  14.753   1.362  21.898  0.1976  0.2529 -0.0691
 3931W        W 6131   1.546   7.197   0.782 -0.1378 -0.1766 -0.1878
 3932W        W 6132  11.188   2.886  29.779  0.1907  0.3254 -0.1403
 3933W        W 6133  19.579   2.322  31.179 -0.0633  0.0405 -0.0074
 3934W        W 6134   5.156   0.800  22.320  0.0101  0.0220  0.2237
 3935W        W 6135  23.922   2.120  16.170  0.1184  0.2349  0.2638
 3936W        W 6136  20.454   1.174  21.520 -0.0363 -0.1007  0.1281
 3937W        W 6137  22.997   4.208  19.406  0.2131 -0.2485  0.0595
 3938W        W 6138  19.645   7.015  22.320  0.1732 -0.0165  0.1077
 3939W        W 6139  19.465   6.047   8.903  0.0112 -0.1400  0.1376
 3940W        W 6140  21.402   0.555   7.256 -0.1386 -0.1047  0.0387
 3941W        W 6141  22.540   1.961   1.845 -0.1964  0.3197  0.0161
 3942W        W 6142  14.556   3.218   1.108  0.1132 -0.1713  0.2504
 3943W        W 6143  21.504   7.693   2.413  0.0817  0.1477  0.2283
 3944W        W 6144  14.513   5.912  13.793  0.0866 -0.0209  0.0108
 3945W        W 6145   6.278   2.098   9.118 -0.0771 -0.0379  0.0446
 3946W        W 6146  11.147   7.256  14.750  0.2319  0.2662  0.0600
 3947W        W 6147   7.840   2.049   7.377  0.2855  0.1903 -0.0128
 3948W        W 6148   0.480   1.677  30.688  0.0390 -0.0558 -0.0447
 3949W        W 6149   0.656   0.591  23.336  0.1029  0.0040  0.0527
 3950W        W 6150  20.096   6.372  32.360  0.0301  0.3448  0.3270
 3951W        W 6151  10.159   7.807  30.369  0.1591  0.0521 -0.0632
 3952W        W 6152  13.281   3.340   8.458  0.0595 -0.1740  0.0605
 3953W        W 6153   9.353   3.086  25.195  0.4248  0.3722 -0.0886
 3954W        W 6154  21.374   4.230   0.063 -0.4026 -0.0829 -0.0406
 3955W        W 6155  15.327   6.774  24.369  0.1854 -0.1841  0.0473
 3956W        W 6156   5.954   0.477  30.132  0.2058 -0.1313  0.0676
 3957W        W 6157  16.403   3.900   2.811 -0.2700  0.0144  0.0562
 3958W        W 6158  17.432   0.564  29.027 -0.0135 -0.0853  0.2576
 3959W        W 6159  23.192   5.313   7.445  0.1109 -0.2734  0.1872
 3960W        W 6160  22.650   3.238  18.497 -0.2106 -0.0542 -0.1281
 3961W        W 6161   7.004   7.423  15.787 -0.2708 -0.1862  0.0802
 3962W        W 6162  11.266   4.460  32.585 -0.1268  0.0628  0.1613
 3963W        W 6163  22.836   0.840   4.156  0.1451  0.2708  0.0645
 3964W        W 6164  20.929   4.097  30.955 -0.0238 -0.1435 -0.0914
 3965W        W 6165   5.212   2.712   8.038  0.0237  0.0744  0.1668
 3966W        W 6166  24.604   2.907  27.163  0.2572  0.1228 -0.0057
 3967W        W 6167   8.745   4.609  27.020  0.1035  0.1782  0.1484
 3968W        W 6168  16.613   0.985  25.255  0.2232 -0.0261  0.2329
 3969W        W 6169  12.762   2.457  12.539  0.0335  0.0069 -0.0948
 3970W        W 6170  13.324   6.209  26.159  0.3010 -0.1655  0.0508
 3971W        W 6171  17.217   6.311  23.418 -0.0150 -0.1241 -0.1643
 3972W        W 6172   7.269   6.033   0.295 -0.2232  0.1680  0.1773
 3973W        W 6173  19.520   0.715  31.830 -0.1440  0.1155  0.2403
 3974W        W 6174  16.284   7.517  21.267 -0.0333  0.0579  0.1114
 3975W        W 6175  18.380   6.436  17.666 -0.0388  0.3159  0.0219
 3976W        W 6176  18.607   3.483  15.711  0.3705 -0.0469 -0.2770
 3977W        W 6177   5.210   0.291  22.100 -0.2691 -0.0918 -0.2998
 3978W        W 6178  13.144   3.165  23.812 -0.0025  0.2051 -0.1416
 3979W        W 6179   1.148   2.634   3.183 -0.0693  0.2079 -0.2143
 3980W        W 6180  13.645   7.353  30.910 -0.1874  0.2395 -0.0556
 3981W        W 6181   9.744   1.107  15.200  0.1526  0.0688  0.0887
 3982W        W 6182   7.299   5.259  29.240  0.3144  0.2825 -0.0980
 3983W        W 6183  19.757   5.728  25.746  0.0927  0.2369 -0.2538
 3984W        W 6184  17.951   4.852   9.013  0.3159 -0.0820 -0.2748
 3985W        W 6185   4.579   2.430  24.511  0.0579 -0.0671 -0.1954
 3986W        W 6186   3.160   5.213  27.407 -0.2388  0.1100  0.0559
 3987W        W 6187   7.778   1.047  13.960  0.1701  0.2421 -0.0834
 3988W        W 6188   3.870   1.994  13.153 -0.2184 -0.0308 -0.0957
 3989W        W 6189  23.604   6.074  20.393  0.1822  0.3637  0.0210
 3990W        W 6190   7.859   1.450  18.536 -0.2301 -0.0897  0.0784
 3991W        W 6191  22.629   0.185  15.107  0.1927  0.0451  0.0796
 3992W        W 6192   8.875   3.475   1.864 -0.1832  0.1199 -0.2478
 3993W        W 6193  24.220   5.458   0.072 -0.1678  0.0006  0.0632
 3994W        W 6194  23.403   3.367  22.065  0.0421  0.0467  0.0648
 3995W        W 6195   3.436   2.701  27.685  0.1685 -0.0297 -0.1131
 3996W        W 6196  14.754   7.148   4.999  0.0026 -0.4377 -0.0856
 3997W        W 6197   5.374   0.296  30.376  0.0476 -0.0181 -0.0867
 3998W        W 6198  20.975   7.647  21.322  0.1988 -0.4427  0.0812
 3999W        W 6199   6.502   3.631  31.080  0.1499  0.1301  0.0612
 4000W        W 6200  10.216   7.816  29.854  0.0621 -0.2667  0.5422
 4001W        W 6201  14.781   1.405  32.014  0.0339 -0.3088 -0.1128
 4002W        W 6202  23.671   2.616   1.807  0.2031  0.2565  0.1717
 4003W        W 6203   5.360   0.267  23.118  0.1800  0.0034  0.1154
 4004W        W 6204  10.104   1.713  24.709 -0.0219  0.0680  0.2419
 4005W        W 6205  12.523   0.270  14.067 -0.1705 -0.0840 -0.1323
 4006W        W 6206  18.405   3.458  22.965  0.1911  0.0288  0.1369
 4007W        W 6207  11.871   0.613  10.396  0.0014  0.2353 -0.2746
 4008W        W 6208   6.602   5.802  26.217  0.1242  0.1948 -0.0975
 4009W        W 6209   3.609   1.988  22.906 -0.2998 -0.0407  0.0774
 4010W        W 6210  20.550   0.988  26.476  0.2212 -0.4039  0.1056
 4011W        W 6211   1.893   3.792  28.378  0.0214  0.0677  0.1453
 4012W        W 6212   8.119   0.887  32.318 -0.4131 -0.0900  0.2716
 4013W        W 6213  16.256   1.550  24.711  0.0960  0.0303  0.1127
 4014W        W 6214   5.702   2.888  10.875  0.2496  0.2389  0.2212
 4015W        W 6215  22.428   2.006  22.018 -0.3461 -0.1351 -0.2222
 4016W        W 6216  13.391   2.343  10.316  0.0494 -0.0474 -0.1575
 4017W        W 6217  20.264   1.598   0.032  0.2537  0.0799  0.2611
 4018W        W 6218   9.012   0.371   7.405 -0.1602  0.0789 -0.1221
 4019W        W 6219  16.216   1.021  29.771 -0.1736  0.1761 -0.0111
 4020W        W 6220  24.715   6.559   3.989  0.1176 -0.1441 -0.1609
 4021W        W 6221  23.391   2.720   3.543 -0.1901 -0.1003 -0.1722
 4022W        W 6222  20.408   1.492   1.193  0.0105 -0.3548  0.1689
 4023W        W 6223  14.701   2.363   4.250 -0.2128  0.3872  0.1771
 4024W        W 6224   5.958   1.964  11.470  0.0587 -0.0146  0.1447
 4025W        W 6225  12.467   4.155  12.002 -0.1407  0.2105  0.0552
 4026W        W 6226   3.944   0.433   5.386 -0.0807 -0.0197 -0.2504
 4027W        W 6227   4.094   0.578   1.093  0.2015  0.0016  0.0307
 4028W        W 6228  17.014   3.167  18.757  0.2411  0.2926  0.0244
 4029W        W 6229   0.817   4.665  24.475 -0.1919 -0.2182 -0.0851
 4030W        W 6230   8.336   7.565  14.261 -0.0228  0.0282  0.2181
 4031W        W 6231  10.507   1.890  11.809  0.1346  0.2697 -0.1255
 4032W        W 6232  10.673   6.916   0.868  0.1884 -0.0080 -0.0878
 4033W        W 6233   1.723   6.216  18.669  0.1234  0.1499  0.0324
 4034W        W 6234  20.817   6.490  22.171  0.2087  0.0557 -0.0505
 4035W        W 6235  19.572   2.937  24.167  0.2150  0.3829  0.1194
 4036W        W 6236   8.034   1.599  15.727  0.1135 -0.1638 -0.0504
 4037W        W 6237   4.363   7.331  31.836 -0.0396 -0.0989  0.1094
 4038W        W 6238   0.454   2.721  23.497 -0.0512  0.1698 -0.0892
 4039W        W 6239  18.443   3.872  17.480 -0.1221  0.3157  0.1323
 4040W        W 6240   6.371   2.223  22.966  0.3423  0.4696 -0.0249
 4041W        W 6241   7.755   6.983   5.721 -0.1605  0.0596 -0.0863
 4042W        W 6242  14.059   4.912  24.225  0.1853  0.1545 -0.1576
 4043W        W 6243   2.805   0.342  30.645  0.2101 -0.0209  0.1184
 4044W        W 6244  18.126   3.025  22.491  0.2233 -0.0274 -0.0886
 4045W        W 6245   8.394   1.059   0.456 -0.0765 -0.0451  0.0421
 4046W        W 6246  22.217   6.604   2.441 -0.1113  0.3230  0.1605
 4047W        W 6247  22.184   3.794  29.330 -0.0461  0.3084  0.4457
 4048W        W 6248  19.208   7.571  28.886  0.2316 -0.1227 -0.0151
 4049W        W 6249  15.389   1.157  27.344  0.0159  0.2175 -0.3186
 4050W        W 6250   6.407   3.135  28.406 -0.0912  0.1136  0.0775
 4051W        W 6251  15.630   2.245   0.486  0.3442 -0.2051  0.0476
 4052W        W 6252   8.326   4.392  12.104  0.1909  0.2078 -0.0625
 4053W        W 6253   8.748   5.429  16.840 -0.0410  0.2916  0.0640
 4054W        W 6254  18.636   3.743   3.199  0.0240 -0.2275 -0.1308
 4055W        W 6255  22.264   6.882   3.431  0.1391  0.0141  0.1818
 4056W        W 6256   5.501   4.087  24.255  0.2711 -0.0716  0.0963
 4057W        W 6257   4.673   4.649  25.836  0.1376  0.0196  0.0648
 4058W        W 6258   5.402   4.217  11.932  0.0832 -0.0867  0.2011
 4059W        W 6259   8.943   0.745  23.855 -0.0542  0.3498  0.0644
 4060W        W 6260   5.665   3.476   4.227  0.0057  0.0464  0.3985
 4061W        W 6261  14.973   2.009  10.969 -0.0389 -0.0436  0.1219
 4062W        W 6262  20.746   6.524   4.445 -0.2109 -0.2101  0.0432
 4063W        W 6263   7.134   6.258   6.584  0.2928  0.0632 -0.1403
 4064W        W 6264  15.707   4.966   0.425 -0.2356 -0.1218 -0.0955
 4065W        W 6265  14.361   3.497   2.850  0.0382  0.2507 -0.1566
 4066W        W 6266   3.748   2.031   9.385 -0.1712 -0.1149 -0.0228
 4067W        W 6267  24.821   1.554  11.095 -0.0424 -0.1462  0.1408
 4068W        W 6268  17.548   5.043  20.337  0.2610  0.1450 -0.0718
 4069W        W 6269  19.259   7.421   4.167 -0.0189 -0.0074  0.2927
 4070W        W 6270  22.694   1.083  20.878 -0.1259 -0.0146  0.2001
 4071W        W 6271  15.615   6.327  18.575  0.0745 -0.1158  0.0015
 4072W        W 6272  20.324   6.090  20.360  0.0954 -0.1853 -0.0765
 4073W        W 6273  16.321   0.554  31.048 -0.2331  0.1325  0.0019
 4074W        W 6274   2.680   6.160  24.335  0.1040 -0.0595  0.0208
 4075W        W 6275  15.534   7.153   3.880  0.0699  0.0997 -0.1088
 4076W        W 6276   7.085   4.429  15.149  0.0815 -0.2615  0.0505
 4077W        W 6277   0.771   5.607  25.565  0.0834  0.0819  0.0114
 4078W        W 6278  16.593   7.183  12.064 -0.2085 -0.3184  0.0872
 4079W        W 6279  17.808   4.483  25.780  0.0093  0.0273  0.1884
 4080W        W 6280  20.167   4.709  16.871  0.2329 -0.1347  0.1848
 4081W        W 6281  10.358   5.767  32.347  0.0248 -0.1636 -0.1914
 4082W        W 6282   0.380   3.166  27.309  0.2075  0.2547  0.5456
 4083W        W 6283  20.608   6.071   2.882  0.0136 -0.3526  0.0562
 4084W        W 6284  23.206   3.487  31.547 -0.2194  0.0181  0.2542
 4085W        W 6285  12.678   6.339  29.670 -0.1248  0.1127 -0.1858
 4086W        W 6286   2.369   7.135  20.969  0.0624  0.0249 -0.1593
 4087W        W 6287   4.815   0.195  30.432  0.0819  0.1921  0.0129
 4088W        W 6288   0.655   3.513   6.888 -0.0170  0.0648  0.3255
 4089W        W 6289  13.240   3.914  31.000  0.0801  0.0353  0.0347
 4090W        W 6290  14.082   3.240  26.671 -0.0218 -0.0160 -0.3449
 4091W        W 6291  16.295   3.883   4.728 -0.1302  0.1418 -0.0356
 4092W        W 6292   1.043   4.676   1.868 -0.1015 -0.6299  0.0572
 4093W        W 6293   4.132   2.032  16.093 -0.0786  0.0403 -0.2401
 4094W        W 6294  18.677   4.579   4.802  0.0323  0.3047  0.1470
 4095W        W 6295  12.070   4.041   6.394  0.2433 -0.3171  0.0814
 4096W        W 6296   9.046   0.009  30.013  0.0441  0.0463 -0.0165
 4097W        W 6297  12.307   4.037   8.004 -0.2963 -0.0053 -0.2325
 4098W        W 6298  10.788   1.561  15.435 -0.0529 -0.1178 -0.1365
 4099W        W 6299   6.353   0.779  30.076 -0.0314  0.2781  0.0106
 4100W        W 6300   7.873   7.372  10.514  0.2880  0.0424  0.0733
 4101W        W 6301   0.539   0.762   1.662 -0.0269  0.3263  0.2548
 4102W        W 6302  19.226   3.865  16.003 -0.0028 -0.3440 -0.0566
 4103W        W 6303  17.711   4.003   9.788 -0.1830 -0.0330 -0.1674
 4104W        W 6304   0.465   0.816   4.496  0.0636  0.0202  0.1136
 4105W        W 6305  16.067   0.251  30.402 -0.1786 -0.0519  0.0976
 4106W        W 6306   6.203   4.924   1.501 -0.0953 -0.1383 -0.0567
 4107W        W 6307  23.336   3.068  17.391 -0.0055  0.1643  0.1409
 4108W        W 6308  12.761   4.945  10.212 -0.2813  0.2628  0.0753
 4109W        W 6309  19.552   6.268   1.875 -0.2730 -0.0243  0.0802
 4110W        W 6310   5.618   0.577   4.722  0.2426 -0.1459  0.1394
 4111W        W 6311   7.970   3.999   1.674 -0.0581  0.1715  0.1753
 4112W        W 6312  17.555   2.243  26.391 -0.0325 -0.0206 -0.0744
 4113W        W 6313   1.668   5.833  23.259 -0.1410 -0.0817 -0.1446
 4114W        W 6314   8.536   2.696  28.766  0.1724 -0.0904 -0.4037
 4115W        W 6315  13.909   7.441  32.127 -0.2352  0.1044 -0.2185
 4116W        W 6316   7.530   0.878  28.577 -0.0080 -0.1170 -0.1095
 4117W        W 6317  16.185   4.212  20.364  0.1827 -0.0612  0.0033
 4118W        W 6318  23.239   5.317   0.446  0.0313 -0.0559 -0.1868
 4119W        W 6319   6.182   7.322   6.977 -0.0351 -0.1081  0.0210
 4120W        W 6320   0.792   4.635  29.791  0.0093 -0.0826  0.1286
 4121W        W 6321   7.233   4.346  10.013 -0.0897  0.1174  0.0961
 4122W        W 6322  13.706   4.349   4.248 -0.0136  0.0108  0.0687
 4123W        W 6323  23.837   0.210  20.605 -0.2965 -0.0264  0.0414
 4124W        W 6324  20.223   0.062   8.526  0.1387 -0.2842  0.3625
 4125W        W 6325  21.783   3.642   2.100 -0.0619 -0.0008 -0.0658
 4126W        W 6326  16.869   3.186  18.235  0.1964 -0.0072  0.0862
 4127W        W 6327  18.034   7.427  29.791  0.2223  0.1189 -0.0918
 4128W        W 6328  14.266   7.672   2.366  0.0510 -0.0533  0.2317
 4129W        W 6329  21.508   6.450  31.530  0.0386 -0.2162  0.1886
 4130W        W 6330  15.229   3.362  29.870 -0.2467 -0.1822  0.2621
 4131W        W 6331  24.603   3.654  16.680 -0.1521  0.1035  0.2021
 4132W        W 6332   5.446   7.301   3.084 -0.0179  0.2630  0.0650
 4133W        W 6333   1.202   3.615   5.335  0.1617  0.4165 -0.1849
 4134W        W 6334  23.802   1.019  22.876 -0.1213 -0.1938  0.0535
 4135W        W 6335  15.396   4.091   4.833 -0.2231  0.3591  0.0800
 4136W        W 6336   5.911   2.611  15.373  0.1478  0.0110  0.0574
 4137W        W 6337   0.144   5.165  28.491 -0.2893 -0.0155  0.2303
 4138W        W 6338   4.811   7.379   4.905 -0.0197  0.1790  0.0438
 4139W        W 6339   8.726   2.603  15.414  0.0474 -0.1378 -0.0480
 4140W        W 6340  19.497   1.883  23.127 -0.0235  0.2138 -0.0243
 4141W        W 6341   6.150   7.102   4.487  0.1021  0.0121  0.0131
 4142W        W 6342  10.759   2.824  16.232  0.1410 -0.0388  0.2515
 4143W        W 6343  12.939   6.777   9.459  0.1395 -0.0267  0.0883
 4144W        W 6344  18.633   2.192  23.143 -0.0256 -0.2927 -0.0092
 4145W        W 6345   8.004   6.791  15.833 -0.1434  0.2732 -0.0444
 4146W        W 6346  20.275   2.722  24.957  0.0342  0.2440  0.0764
 4147W        W 6347  11.123   3.282   8.597 -0.1742 -0.1609 -0.0837
 4148W        W 6348  23.396   2.206  31.094 -0.3711 -0.1673 -0.0987
 4149W        W 6349  23.285   3.398   0.508 -0.2016 -0.3452  0.0393
 4150W        W 6350   0.247   1.198  26.856  0.0565  0.3219  0.1633
 4151W        W 6351   4.218   2.958   6.159 -0.0018 -0.0877 -0.1581
 4152W        W 6352   4.108   1.344  30.964  0.0764 -0.0379  0.0810
 4153W        W 6353   9.860   2.898  25.119  0.5240  0.0169  0.1658
 4154W        W 6354   3.304   3.270   5.254 -0.1348  0.4517 -0.0742
 4155W        W 6355   9.961   1.535  27.572 -0.0828 -0.1466  0.1025
 4156W        W 6356   9.462   1.072  16.447  0.1952 -0.0823  0.2186
 4157W        W 6357   3.080   0.099   4.999  0.2314 -0.1226 -0.1437
 4158W        W 6358  20.120   1.106  25.269  0.0487  0.2495  0.1207
 4159W        W 6359   5.918   4.034  32.093  0.1337  0.1080 -0.0856
 4160W        W 6360  17.418   1.907   9.606  0.0079  0.1721 -0.1424
 4161W        W 6361   2.340   5.658  25.176 -0.0522  0.3900 -0.3489
 4162W        W 6362   6.495   2.439  11.166  0.1773 -0.0556 -0.0986
 4163W        W 6363  13.817   3.863  11.423 -0.3299  0.2531 -0.1858
 4164W        W 6364  18.161   7.550  20.262  0.2320  0.3892 -0.1277
 4165W        W 6365   6.946   6.961  11.526 -0.2289  0.2666  0.0128
 4166W        W 6366   5.834   3.312  30.530  0.3316  0.1168 -0.2777
 4167W        W 6367   3.392   1.969  28.943  0.0881 -0.1031 -0.0087
 4168W        W 6368  11.434   1.050   5.608 -0.3450 -0.0351  0.0851
 4169W        W 6369  15.339   2.551  21.413 -0.1955  0.0157  0.2342
 4170W        W 6370   3.655   1.295  30.762 -0.2346 -0.2393 -0.0177
 4171W        W 6371  24.091   1.257  22.527 -0.1843  0.2635  0.0446
 4172W        W 6372   8.812   6.696   5.384 -0.1030  0.3534 -0.1798
 4173W        W 6373   9.803   5.248  31.406 -0.1648 -0.2362  0.1879
 4174W        W 6374   3.797   4.495  29.970  0.1613  0.1409 -0.1941
 4175W        W 6375  10.495   0.725   1.838  0.0757  0.0261  0.0097
 4176W        W 6376   2.281   5.513   4.442 -0.0646  0.4421  0.0874
 4177W        W 6377  18.621   4.180   9.688  0.0533  0.1376 -0.0414
 4178W        W 6378  23.957   3.477  31.181  0.0244 -0.1212 -0.1153
 4179W        W 6379   2.689   1.616   7.209  0.1875 -0.1004 -0.1267
 4180W        W 6380  12.674   4.569  11.848 -0.1509 -0.0223 -0.0999
 4181W        W 6381   5.475   2.035   0.495 -0.1391 -0.4417  0.0919
 4182W        W 6382  12.049   2.533  25.078  0.0013 -0.0133  0.3159
 4183W        W 6383   0.286   5.502  26.442  0.2319  0.1325 -0.1023
 4184W        W 6384   0.350   7.431  22.516 -0.0633  0.0071 -0.1191
 4185W        W 6385   4.839   5.090  22.279  0.1997  0.3060  0.2009
 4186W        W 6386  11.210   7.005  24.312 -0.1775 -0.0329 -0.1091
 4187W        W 6387  13.707   6.859   4.615 -0.3162  0.1105  0.1721
 4188W        W 6388  12.190   4.266   4.399 -0.0062 -0.0279  0.0009
 4189W        W 6389  14.076   6.586   5.542 -0.0712  0.1459  0.1051
 4190W        W 6390   7.696   2.213  14.073  0.2609 -0.0651 -0.0439
 4191W        W 6391  20.761   0.135  28.955 -0.3846 -0.1468  0.0778
 4192W        W 6392   6.691   7.661   9.363 -0.0954 -0.0804  0.3484
 4193W        W 6393   7.626   2.417  32.535 -0.0938  0.0989  0.1120
 4194W        W 6394  15.031   2.640  23.803  0.1026 -0.1477 -0.2510
 4195W        W 6395   7.576   4.614  13.294  0.1843  0.2141 -0.3396
 4196W        W 6396   4.421   4.439  14.306  0.0932  0.0821 -0.0067
 4197W        W 6397   8.792   0.438  31.506 -0.3603  0.3276  0.1185
 4198W        W 6398  14.807   7.587  26.818  0.2839 -0.3299 -0.3119
 4199W        W 6399  15.822   2.540  24.447 -0.2062 -0.0027 -0.0064
 4200W        W 6400  16.637   3.786  22.530  0.0129 -0.1078 -0.0077
 4201W        W 6401  17.994   4.190  23.301 -0.1807 -0.2231  0.4243
 4202W        W 6402   8.282   7.592   1.085  0.0368  0.2393 -0.0991
 4203W        W 6403  24.012   6.214   5.424 -0.0295 -0.4363  0.0326
 4204W        W 6404  11.633   3.796  27.506  0.0486  0.0601  0.0348
 4205W        W 6405   0.377   1.548   3.446 -0.3069 -0.0139 -0.1987
 4206W        W 6406   1.641   3.973  31.016  0.1779 -0.2853  0.4350
 4207W        W 6407  12.610   0.499   3.136  0.3167 -0.1324  0.1293
 4208W        W 6408  15.345   6.908  29.173  0.3890  0.0084  0.0676
 4209W        W 6409  18.605   1.721   4.819 -0.1063 -0.0505 -0.0006
 4210W        W 6410   9.767   6.984  26.467 -0.0072 -0.3662  0.0711
 4211W        W 6411   8.108   6.790  26.772  0.0983  0.3854 -0.1852
 4212W        W 6412   7.948   5.227  24.724  0.0884 -0.1636 -0.3030
 4213W        W 6413  14.632   1.735  22.797  0.1038 -0.2618  0.2408
 4214W        W 6414   4.558   1.535  10.259  0.2563 -0.4054 -0.0740
 4215W        W 6415  23.320   0.617   9.422 -0.3414 -0.0627  0.2459
 4216W        W 6416   9.369   3.258  11.276  0.0252  0.0672  0.0778
 4217W        W 6417  14.192   3.840   9.159  0.0000  0.0827 -0.1206
 4218W        W 6418  24.127   5.805   5.712  0.0006 -0.3184  0.1632
 4219W        W 6419  21.457   1.177  15.921  0.2726 -0.2985 -0.0708
 4220W        W 6420  17.780   3.304   6.964 -0.0500 -0.3489  0.0434
 4221W        W 6421   0.593   4.010  28.540  0.0424  0.2003 -0.1829
 4222W        W 6422  19.712   3.714  30.459  0.1685  0.3512 -0.0482
 4223W        W 6423  24.472   1.824  19.287 -0.1381  0.0174 -0.0737
 4224W        W 6424   6.817   1.178  24.011 -0.1053  0.1240  0.0448
 4225W        W 6425   7.593   6.177  11.999 -0.4421 -0.0860  0.0669
 4226W        W 6426   5.296   3.954  30.858  0.0067 -0.0310 -0.0139
 4227W        W 6427  15.760   3.786  23.297 -0.0486  0.1309 -0.2951
 4228W        W 6428  11.881   2.374  27.348  0.1306  0.0185 -0.0618
 4229W        W 6429   0.308   0.790  22.354  0.0928 -0.1493  0.0568
 4230W        W 6430  19.072   1.846   2.386  0.2968  0.2136 -0.0156
 4231W        W 6431  24.126   1.036   3.297 -0.1940  0.2441  0.1573
 4232W        W 6432  16.830   7.590  27.570  0.0050  0.1440 -0.1072
 4233W        W 6433  14.150   6.877   9.303 -0.2126 -0.0334 -0.2832
 4234W        W 6434  17.893   2.927  19.261 -0.1999  0.2382  0.0707
 4235W        W 6435   8.194   6.829  16.372  0.0873  0.2902 -0.2311
 4236W        W 6436  23.151   0.127   5.927  0.1461  0.3128 -0.0080
 4237W        W 6437  25.036   0.870   7.206  0.0162  0.2497 -0.0905
 4238W        W 6438   8.940   5.312   7.054  0.0128 -0.3269 -0.0761
 4239W        W 6439  17.470   5.385   6.095 -0.3874 -0.2616 -0.2500
 4240W        W 6440   1.721   3.051   5.977 -0.1786 -0.4187 -0.0174
 4241W        W 6441  23.171   1.483  16.073 -0.0126 -0.0046 -0.0259
 4242W        W 6442  10.853   2.931  32.502 -0.2011 -0.0978 -0.1707
 4243W        W 6443   7.273   0.066  26.726 -0.0399  0.0704  0.0024
 4244W        W 6444  22.967   7.285  17.035 -0.2617  0.0017 -0.0361
 4245W        W 6445  21.992   2.140  19.671  0.2197 -0.2832  0.1659
 4246W        W 6446  24.636   0.838   5.513  0.2293  0.0795 -0.0692
 4247W        W 6447   2.263   7.722   8.806  0.0430 -0.0685  0.0496
 4248W        W 6448   5.570   1.934  23.426 -0.0549  0.0206  0.1453
 4249W        W 6449  24.543   4.474  18.646 -0.0055 -0.0647  0.1799
 4250W        W 6450  17.138   0.174  18.467 -0.1854  0.1792 -0.0775
 4251W        W 6451  15.489   7.609   1.195  0.2082 -0.3483 -0.0157
 4252W        W 6452  24.025   2.884  16.281 -0.0185 -0.1195  0.0576
 4253W        W 6453   3.423   2.735   8.977  0.3159  0.2616  0.1482
 4254W        W 6454  15.351   4.652  32.071 -0.1429  0.3108  0.3810
 4255W        W 6455  14.682   7.140   5.880  0.4187  0.0219 -0.0134
 4256W        W 6456  21.428   0.760  16.790 -0.0992  0.1986  0.0125
 4257W        W 6457  20.278   1.928  30.029  0.1020  0.0919 -0.0363
 4258W        W 6458  17.862   3.278   0.255 -0.0108 -0.0283 -0.0917
 4259W        W 6459  12.133   1.669  31.199 -0.4873  0.0133  0.0125
 4260W        W 6460  21.034   2.944  16.480  0.0122 -0.3255 -0.0619
 4261W        W 6461  19.953   0.994  19.760  0.1276  0.0297  0.2806
 4262W        W 6462   8.954   4.831  12.879 -0.1175 -0.2368 -0.1925
 4263W        W 6463  15.676   4.982  32.692 -0.2110  0.1950  0.0421
 4264W        W 6464  23.292   4.557  31.796  0.0823  0.1596  0.1029
 4265W        W 6465  20.428   5.367  24.901 -0.1760  0.0661  0.0610
 4266W        W 6466  23.835   1.754   5.484 -0.0141 -0.0750  0.0641
 4267W        W 6467   5.600   4.950  23.025 -0.1536  0.2179  0.2711
 4268W        W 6468   1.674   0.331   7.211  0.0916  0.1452 -0.4947
 4269W        W 6469  14.413   1.627   9.238  0.0229 -0.0349  0.0773
 4270W        W 6470  12.773   7.259   9.679  0.2258  0.0210 -0.0316
 4271W        W 6471  20.267   0.158  28.942  0.2414 -0.4806  0.1424
 4272W        W 6472   9.395   6.278  18.324 -0.1589  0.0854  0.3426
 4273W        W 6473  10.288   6.485  26.571 -0.0367 -0.0571 -0.0635
 4274W        W 6474  24.811   3.403   2.563  0.0976  0.2675 -0.0920
 4275W        W 6475   8.832   6.347  19.043 -0.1436 -0.0642  0.3371
 4276W        W 6476  21.918   2.619  24.710 -0.2935  0.0914 -0.0007
 4277W        W 6477  11.013   7.113  10.943 -0.0945 -0.1096 -0.2062
 4278W        W 6478   6.219   2.791  15.681  0.1471 -0.4241 -0.0382
 4279W        W 6479   1.223   2.779  24.027 -0.0727 -0.1508 -0.4054
 4280W        W 6480   0.972   3.440  11.487 -0.2946  0.0703  0.0926
 4281W        W 6481  24.942   5.610  30.283  0.0025  0.0441  0.0449
 4282W        W 6482   8.814   2.066   1.158 -0.2658  0.2348  0.0687
 4283W        W 6483  17.163   4.136  20.978 -0.0682 -0.1047  0.1280
 4284W        W 6484   1.985   2.370  28.141 -0.2615  0.2670 -0.1560
 4285W        W 6485   9.551   5.805  29.031  0.3231 -0.1420  0.0037
 4286W        W 6486  11.959   0.117  27.158 -0.2921  0.0277 -0.3166
 4287W        W 6487  18.735   5.727  32.087 -0.2684 -0.2562  0.2001
 4288W        W 6488  17.775   0.586  25.014 -0.1927  0.0217 -0.0127
 4289W        W 6489   2.943   6.860   7.595  0.1585 -0.2343 -0.1087
 4290W        W 6490  22.086   0.389   2.891  0.3056  0.1566  0.2245
 4291W        W 6491   3.290   2.355   8.625  0.0692  0.0446 -0.0450
 4292W        W 6492  10.968   5.132  13.244 -0.1369  0.0608 -0.0717
 4293W        W 6493  14.034   1.844   0.233  0.0452 -0.0368  0.4101
 4294W        W 6494  17.225   5.748   5.852 -0.1755  0.0984 -0.0153
 4295W        W 6495   4.815   1.858  16.514  0.2166  0.2224 -0.2484
 4296W        W 6496  21.536   5.822   2.669  0.0060  0.0811 -0.0176
 4297W        W 6497  15.382   5.375  12.355 -0.1538 -0.2402 -0.1914
 4298W        W 6498  20.946   5.642  25.565 -0.1919  0.1751  0.2464
 4299W        W 6499  23.497   2.654   9.648  0.1296  0.1651  0.1408
 4300W        W 6500  20.157   4.715   8.650  0.1578 -0.0764  0.2423
 4301W        W 6501  10.620   1.386  12.998  0.2022 -0.1326  0.0678
 4302W        W 6502   3.301   1.577  24.135 -0.0150 -0.0376 -0.0767
 4303W        W 6503   2.912   5.595  11.153 -0.0614  0.3108 -0.0291
 4304W        W 6504  19.877   6.342  27.774  0.1259 -0.0693  0.0675
 4305W        W 6505   7.924   0.226  10.264  0.0890  0.0547  0.0422
 4306W        W 6506  18.005   5.172  17.628 -0.0617 -0.2007  0.1021
 4307W        W 6507   5.892   5.747  23.046 -0.2922 -0.0469 -0.1143
 4308W        W 6508  13.799   5.706  11.632 -0.1194 -0.0664 -0.2985
 4309W        W 6509   8.786   2.942   3.835  0.0875 -0.0387  0.3323
 4310W        W 6510  15.719   7.213  19.650 -0.2486  0.0192  0.0403
 4311W        W 6511  10.456   3.054  13.928  0.1288 -0.1220  0.0846
 4312W        W 6512  11.622   2.103   7.737  0.1286 -0.0362  0.0454
 4313W        W 6513  21.249   4.295  31.378 -0.0868  0.1299 -0.4611
 4314W        W 6514  23.661   2.702  32.463  0.1575 -0.2673  0.1628
 4315W        W 6515  13.938   0.593  23.113  0.3549 -0.1353 -0.0049
 4316W        W 6516  21.847   7.291  27.204  0.1881  0.3438  0.0940
 4317W        W 6517   8.404   2.618   4.931  0.0701 -0.1154  0.5574
 4318W        W 6518  12.035   7.344  15.905 -0.1438 -0.2139  0.1019
 4319W        W 6519  16.723   2.193   3.906  0.1617  0.0419 -0.0575
 4320W        W 6520  12.462   6.646  23.215  0.1562 -0.3607 -0.0537
 4321W        W 6521   8.668   6.408  13.635  0.0052 -0.0185  0.2114
 4322W        W 6522  24.218   7.062   8.351 -0.1319  0.1671  0.1524
 4323W        W 6523   8.392   0.201   4.625 -0.1661  0.1545 -0.2334
 4324W        W 6524  22.690   1.844   4.190  0.0889 -0.2918  0.3251
 4325W        W 6525  18.841   1.207  21.018 -0.1930  0.0379  0.0152
 4326W        W 6526  13.453   3.550  30.703 -0.0839  0.0304 -0.0537
 4327W        W 6527  12.904   3.086   2.246  0.3106 -0.3353  0.0912
 4328W        W 6528  22.764   4.587  23.110  0.1201 -0.1702 -0.0069
 4329W        W 6529  15.576   5.091   3.341  0.1090  0.0107  0.3012
 4330W        W 6530  12.533   4.924  30.473 -0.1940 -0.0436  0.0760
 4331W        W 6531  15.394   1.087   6.315  0.1688 -0.0950 -0.0025
 4332W        W 6532  22.740   6.882  22.883 -0.1227  0.4116  0.0136
 4333W        W 6533  12.398   6.886   1.082  0.2144  0.1457 -0.0373
 4334W        W 6534   3.338   7.181  14.072 -0.2161  0.0153  0.0308
 4335W        W 6535   8.258   3.074  26.368 -0.0509 -0.2088 -0.3058
 4336W        W 6536  11.740   1.895   9.627 -0.1247  0.0733  0.0762
 4337W        W 6537  16.294   5.616  26.400  0.0520 -0.0403  0.3801
 4338W        W 6538   8.068   0.195  16.107 -0.0209 -0.2110  0.3432
 4339W        W 6539   6.741   1.228  26.260  0.1540  0.2104  0.0088
 4340W        W 6540  14.027   0.841   9.899 -0.2143 -0.3083  0.0893
 4341W        W 6541   4.324   4.755   2.546 -0.0280  0.0887 -0.0513
 4342W        W 6542   5.278   1.299  15.853  0.0908  0.1647  0.1599
 4343W        W 6543   9.847   1.324   3.749 -0.0590 -0.1632  0.0080
 4344W        W 6544   6.442   6.091  28.366 -0.0818  0.0024  0.0708
 4345W        W 6545   6.397   3.725  24.097  0.1467 -0.1013  0.1398
 4346W        W 6546   8.248   2.778  12.970  0.0109  0.0596 -0.2372
 4347W        W 6547   8.170   3.654  32.333 -0.2860  0.2647  0.1199
 4348W        W 6548   2.543   3.606   6.023  0.2628  0.0105 -0.0068
 4349W        W 6549  10.618   2.147   8.013  0.0349  0.0081 -0.0076
 4350W        W 6550  16.010   0.503  10.628  0.1698 -0.0826 -0.2475
 4351W        W 6551  11.657   3.362  24.669 -0.1083  0.1646 -0.0496
 4352W        W 6552  21.055   6.858  30.821 -0.0532  0.2898  0.1257
 4353W        W 6553  23.754   1.292  30.499 -0.0807  0.2244  0.0129
 4354W        W 6554  21.239   5.666   4.569 -0.0465 -0.0824  0.0071
 4355W        W 6555  13.805   7.792   4.654  0.5066  0.2126 -0.1426
 4356W        W 6556   2.135   7.623  11.190 -0.0622 -0.1903 -0.3271
 4357W        W 6557  13.162   7.785   2.396  0.1561 -0.0393  0.3514
 4358W        W 6558  19.574   0.696   2.165 -0.0613  0.0164  0.1203
 4359W        W 6559  24.348   5.874  17.323  0.3455  0.2174  0.0180
 4360W        W 6560  23.071   5.135  23.616 -0.0569 -0.0712  0.1265
 4361W        W 6561  19.775   3.780   6.549 -0.3820  0.0194 -0.0967
 4362W        W 6562  16.591   3.928  22.000 -0.1157  0.2920 -0.1754
 4363W        W 6563   4.391   3.328  11.678 -0.2579 -0.4943  0.0405
 4364W        W 6564  16.895   2.865   9.547 -0.3487 -0.1711 -0.1093
 4365W        W 6565   1.847   7.494   1.613  0.0138  0.2261 -0.3459
 4366W        W 6566  17.699   7.640  31.974 -0.0595  0.2457 -0.0075
 4367W        W 6567  18.119   2.685   1.180  0.0580 -0.0182  0.3651
 4368W        W 6568  24.139   3.965   7.563  0.1258  0.1624  0.2509
 4369W        W 6569  24.383   3.292  25.051  0.2124  0.1077 -0.1489
 4370W        W 6570  20.343   0.021   0.482 -0.0167  0.1207 -0.0466
 4371W        W 6571  23.330   2.986   0.149 -0.0564 -0.1654  0.2277
 4372W        W 6572  17.991   3.075  24.863  0.0357  0.0261  0.0013
 4373W        W 6573   3.447   4.422  24.844  0.1362  0.2726  0.2328
 4374W        W 6574  11.534   5.259  28.471  0.1256  0.0430 -0.1084
 4375W        W 6575  19.767   0.524  14.321  0.0070  0.0012 -0.3125
 4376W        W 6576   1.395   7.016  27.648 -0.1552 -0.5706 -0.2153
 4377W        W 6577  23.637   7.821   1.106 -0.1419 -0.0674 -0.1144
 4378W        W 6578  12.419   1.732  13.440 -0.1562  0.0924 -0.3063
 4379W        W 6579   2.779   6.963  19.892 -0.1962  0.1014  0.1059
 4380W        W 6580  19.909   1.592  27.438 -0.0538 -0.2869 -0.0530
 4381W        W 6581  10.924   4.683  12.973  0.5201 -0.1287  0.1422
 4382W        W 6582  23.562   7.635  32.451 -0.0318 -0.0971 -0.0342
 4383W        W 6583   4.308   6.207  28.332 -0.1166 -0.2410  0.1797
 4384W        W 6584   2.104   0.364   9.640 -0.2726  0.1104 -0.2584
 4385W        W 6585  17.568   6.672   4.909  0.0267 -0.1996  0.0720
 4386W        W 6586  19.734   4.882   0.606  0.3323  0.0713  0.1750
 4387W        W 6587  15.414   0.226  21.008  0.0442 -0.2238 -0.1090
 4388W        W 6588  11.271   0.779  15.055 -0.1944  0.0524  0.0986
 4389W        W 6589   1.288   6.040  12.377  0.0459 -0.2565  0.0250
 4390W        W 6590  24.814   2.302   8.946 -0.1326 -0.0246  0.3634
 4391W        W 6591  23.275   5.077  15.958 -0.0658 -0.3478  0.1518
 4392W        W 6592  23.756   7.003   4.509 -0.2151  0.1235 -0.3646
 4393W        W 6593  19.364   4.347  15.878 -0.3570 -0.2820 -0.0434
 4394W        W 6594  22.769   7.199  16.452  0.1011  0.2346  0.1271
 4395W        W 6595  11.387   5.820  13.865 -0.0442 -0.3305 -0.2446
 4396W        W 6596  11.340   4.825  22.473  0.1005  0.0091  0.2169
 4397W        W 6597  10.321   3.919  32.257  0.0279  0.3259 -0.0420
 4398W        W 6598  17.740   1.530  30.799  0.0745 -0.0646 -0.0546
 4399W        W 6599  14.706   5.408  30.406  0.1824 -0.3043 -0.1790
 4400W        W 6600  14.038   4.561  12.379  0.0452 -0.1482 -0.1166
 4401W        W 6601  18.097   3.097  31.592 -0.1416  0.1819 -0.3194
 4402W        W 6602   4.642   6.384   9.332 -0.0490 -0.2962 -0.3427
 4403W        W 6603   0.364   6.491  19.920 -0.0174 -0.0055  0.0295
 4404W        W 6604  21.469   4.789   9.048 -0.0916 -0.0618  0.2852
 4405W        W 6605  23.021   6.772   8.232 -0.1118 -0.0340  0.1406
 4406W        W 6606   2.455   4.288   1.839 -0.0394 -0.5106 -0.2400
 4407W        W 6607  21.313   7.368  29.646 -0.1546  0.1399  0.1849
 4408W        W 6608  16.232   5.938   2.543 -0.3847 -0.0800  0.1185
 4409W        W 6609  15.413   7.060  23.431 -0.0209 -0.1233  0.1845
 4410W        W 6610  18.567   4.508  22.637 -0.0864 -0.2841  0.1499
 4411W        W 6611  14.690   4.664   6.492 -0.1736  0.1125 -0.1864
 4412W        W 6612  14.709   4.669  30.281  0.0264 -0.0089 -0.2413
 4413W        W 6613   4.587   4.564   9.616  0.1268  0.1075 -0.0501
 4414W        W 6614  24.647   4.595  24.418  0.1197  0.0263  0.0028
 4415W        W 6615   7.969   2.691  31.196 -0.0604 -0.0961  0.2107
 4416W        W 6616   0.559   2.210  22.533  0.2317  0.3390  0.1517
 4417W        W 6617  11.716   4.294   9.200 -0.1022 -0.0142 -0.2350
 4418W        W 6618   0.007   4.387  22.808 -0.0398  0.2296 -0.0477
 4419W        W 6619  14.731   3.449   6.086 -0.1304  0.4267 -0.1830
 4420W        W 6620  21.761   3.858  29.908 -0.4896  0.0762  0.3157
 4421W        W 6621   9.267   3.172   6.264  0.4555 -0.0751 -0.0545
 4422W        W 6622  10.800   1.737  17.940 -0.1564  0.2776  0.3350
 4423W        W 6623  16.271   2.500   0.590  0.1459  0.2728  0.0769
 4424W        W 6624   0.214   0.199   0.413 -0.0547  0.1889  0.0304
 4425W        W 6625   1.843   7.079   5.895  0.4596  0.1094  0.0625
 4426W        W 6626   2.840   2.503  13.176  0.1347 -0.2161 -0.2658
 4427W        W 6627  18.745   5.019   1.486 -0.0758  0.1665  0.0339
 4428W        W 6628  24.403   4.254   4.059  0.1780 -0.0409 -0.1049
 4429W        W 6629   9.970   2.612  16.447  0.2670 -0.0464  0.3714
 4430W        W 6630  24.317   1.005  29.874  0.0002  0.1305 -0.1758
 4431W        W 6631   4.390   5.219   1.121 -0.1859  0.1315  0.0770
 4432W        W 6632  23.533   3.038   1.466  0.0255 -0.1204 -0.2498
 4433W        W 6633  24.663   2.188   1.753  0.1680  0.1485 -0.1924
 4434W        W 6634  12.639   0.604  25.255 -0.1447  0.2136  0.0119
 4435W        W 6635   1.193   6.524  10.825  0.2384  0.0277  0.1862
 4436W        W 6636  18.878   6.071   1.711 -0.1787 -0.0018 -0.1202
 4437W        W 6637  24.088   2.868  29.942 -0.2281  0.1019 -0.0681
 4438W        W 6638   3.305   6.964  27.607  0.0745  0.2202 -0.1260
 4439W        W 6639  19.534   0.070  16.103 -0.1326  0.1770 -0.0160
 4440W        W 6640  24.347   2.666   7.886 -0.0981 -0.3170  0.1706
 4441W        W 6641   2.912   5.117  31.060 -0.1589 -0.1591  0.2832
 4442W        W 6642  18.587   0.755   4.466  0.0413 -0.1119 -0.3105
 4443W        W 6643  24.944   6.142   5.591  0.0598 -0.1958 -0.0529
 4444W        W 6644  19.121   3.537  21.355  0.1262 -0.0484 -0.4167
 4445W        W 6645   4.607   7.805  10.128  0.2484 -0.1873  0.1099
 4446W        W 6646   7.248   0.743   5.096  0.0905  0.1801  0.2254
 4447W        W 6647   7.234   6.175   1.768 -0.0714  0.1071  0.0210
 4448W        W 6648   1.892   0.476  28.145  0.0910 -0.0387  0.0261
 4449W        W 6649  22.528   5.278   4.978  0.1202  0.0672  0.0509
 4450W        W 6650  22.619   7.416   5.288  0.2740  0.0665 -0.1533
 4451W        W 6651  17.830   7.011  19.496  0.2050  0.0646 -0.2436
 4452W        W 6652  11.164   4.066  32.214 -0.0868 -0.0014 -0.0572
 4453W        W 6653   9.584   3.376  29.094  0.0554 -0.0861 -0.2157
 4454W        W 6654  10.325   4.985  12.439  0.1015  0.1203 -0.3543
 4455W        W 6655  18.216   2.587  29.937 -0.0879  0.0988 -0.3278
 4456W        W 6656  17.691   6.826  22.641  0.2999 -0.1196 -0.2766
 4457W        W 6657   5.571   5.712   7.258 -0.0714  0.0506  0.1491
 4458W        W 6658  17.508   2.493  25.415 -0.3372  0.0418  0.1501
 4459W        W 6659   1.117   5.807   3.756  0.0736 -0.2542  0.1070
 4460W        W 6660   8.017   2.296  23.079  0.0005 -0.3181  0.0953
 4461W        W 6661  14.101   5.085   5.405 -0.1478 -0.1632  0.0199
 4462W        W 6662  19.862   6.829  18.686 -0.0197  0.0149  0.2737
 4463W        W 6663  16.022   2.137  26.483  0.1103  0.0993  0.1122
 4464W        W 6664  13.258   3.408  26.983  0.1371  0.3552 -0.0241
 4465W        W 6665  21.949   2.939  18.905 -0.1423 -0.2616  0.3059
 4466W        W 6666  19.086   2.730   2.876 -0.0581 -0.0870 -0.1072
 4467W        W 6667  10.738   5.560  25.618 -0.0345  0.1330 -0.3521
 4468W        W 6668   0.655   0.361   1.983  0.0556 -0.0615  0.0166
 4469W        W 6669   6.625   7.277  28.478 -0.3117 -0.0634  0.2903
 4470W        W 6670   6.275   1.918   3.368 -0.0038  0.0320  0.0121
 4471W        W 6671  12.320   2.663   1.484 -0.4667  0.2804  0.0422
 4472W        W 6672  21.003   7.103  27.540  0.1170 -0.0219  0.2641
 4473W        W 6673   5.661   6.787  32.270 -0.1517  0.3811  0.2002
 4474W        W 6674   3.059   5.689  31.048  0.0888  0.2957  0.0650
 4475W        W 6675  10.580   3.359  16.172  0.1776  0.1754  0.1838
 4476W        W 6676  18.332   2.579   0.175 -0.0308  0.0216  0.0027
 4477W        W 6677  12.839   2.746  28.164  0.2118  0.0758  0.0304
 4478W        W 6678   0.200   7.464  20.739  0.2312 -0.0054  0.3790
 4479W        W 6679  21.510   0.447   3.259 -0.4698  0.1305  0.0346
 4480W        W 6680  14.545   6.912  27.274 -0.0507  0.0596 -0.3397
 4481W        W 6681   2.677   6.145  13.628  0.0781  0.0197  0.0760
 4482W        W 6682   2.776   3.743  19.629  0.1892 -0.0753  0.0200
 4483W        W 6683  14.483   1.524   4.705  0.3815 -0.2778  0.0325
 4484W        W 6684  12.096   1.021  12.702 -0.0321 -0.2161  0.0938
 4485W        W 6685  15.892   6.506   7.422 -0.1867  0.0158  0.0567
 4486W        W 6686  21.542   0.904  29.738  0.1833 -0.1925 -0.4228
 4487W        W 6687  18.553   1.732  21.947  0.0917 -0.0500  0.0017
 4488W        W 6688  20.875   2.862   9.407 -0.3283 -0.1052  0.3043
 4489W        W 6689   9.975   3.816  24.768 -0.1116 -0.0151  0.0596
 4490W        W 6690   1.434   5.802  11.231 -0.1012 -0.1731  0.0507
 4491W        W 6691  16.928   0.289  21.986  0.0386 -0.2828 -0.2223
 4492W        W 6692  17.780   2.657  25.083  0.0168 -0.0663  0.2629
 4493W        W 6693  11.176   3.483  25.373 -0.0249  0.1598 -0.1693
 4494W        W 6694  10.977   1.377   1.104 -0.0726 -0.0430  0.1093
 4495W        W 6695  12.061   4.370  11.093 -0.1375  0.1521 -0.1825
 4496W        W 6696  15.887   7.561   5.732 -0.1621 -0.1988  0.1038
 4497W        W 6697  23.698   3.333  31.676  0.0225  0.1245 -0.3139
 4498W        W 6698   0.823   5.065  26.947 -0.1145  0.2122 -0.2323
 4499W        W 6699  19.754   5.580  20.953 -0.2178 -0.0882 -0.0001
 4500W        W 6700   0.221   2.398  11.404 -0.0516  0.0419  0.1904
 4501W        W 6701   3.309   3.819  11.138 -0.1952  0.2735 -0.2743
 4502W        W 6702  11.393   1.313  13.525 -0.0731  0.2255 -0.2620
 4503W        W 6703  22.075   0.468  17.704  0.0421 -0.2415 -0.2504
 4504W        W 6704   5.112   3.174  10.062 -0.0141 -0.0297 -0.0272
 4505W        W 6705   9.262   4.037  22.874  0.0979  0.2743 -0.0873
 4506W        W 6706  16.560   1.741  30.156 -0.0406  0.1959  0.0572
 4507W        W 6707   1.222   0.019   6.981  0.2676 -0.1905  0.0406
 4508W        W 6708   9.743   0.893  26.436  0.0724  0.2120  0.4740
 4509W        W 6709  10.314   0.740  31.383  0.1452  0.0933  0.0071
 4510W        W 6710   3.184   4.347  25.971  0.1734  0.1131  0.4958
 4511W        W 6711   8.750   0.838  27.174 -0.1171  0.3466  0.0014
 4512W        W 6712  14.730   6.895  27.870  0.0931  0.0629 -0.1730
 4513W        W 6713  12.877   6.932   0.238  0.1965  0.3573  0.2143
 4514W        W 6714  12.966   6.978  31.408  0.0780 -0.0026  0.2039
 4515W        W 6715   8.973   2.485  28.001  0.0267 -0.2910 -0.3819
 4516W        W 6716  13.900   7.238  13.138  0.1534  0.0850  0.0573
 4517W        W 6717  24.903   4.320  15.982 -0.0726  0.2587  0.0218
 4518W        W 6718   6.423   1.854  14.528 -0.1049  0.1408 -0.2165
 4519W        W 6719   1.943   7.130  29.024 -0.1873 -0.0820 -0.1943
 4520W        W 6720   7.204   1.885   6.801 -0.0181  0.1583  0.0371
 4521W        W 6721  23.045   7.143   9.633 -0.0325  0.2014  0.2597
 4522W        W 6722  13.616   0.232   1.232  0.2864 -0.1479 -0.0886
 4523W        W 6723  20.200   1.324  22.566  0.3693  0.1993  0.2623
 4524W        W 6724  19.104   3.940  26.781 -0.0734  0.0067 -0.0454
 4525W        W 6725  22.760   2.643  22.589  0.1461  0.0142 -0.2171
 4526W        W 6726  24.046   6.511  29.849  0.2687 -0.2427 -0.2045
 4527W        W 6727  18.457   2.470  23.915 -0.1733 -0.0651  0.2864
 4528W        W 6728  14.871   1.432  30.358  0.2117  0.2290  0.0561
 4529W        W 6729  21.598   7.254  26.332  0.0737  0.1195 -0.0365
 4530W        W 6730  20.274   2.751  28.202  0.0751 -0.1157  0.0464
 4531W        W 6731   1.669   2.665  12.335  0.2229  0.1626  0.0395
 4532W        W 6732  20.001   5.855  18.478 -0.0883  0.0697 -0.0508
 4533W        W 6733  12.294   0.718  26.041 -0.1781 -0.1486  0.0105
 4534W        W 6734  13.475   1.364  23.539  0.0617  0.1352 -0.0116
 4535W        W 6735   3.580   7.504   3.279 -0.0848  0.0360  0.1041
 4536W        W 6736  14.588   0.173  22.692 -0.0925  0.2999 -0.0753
 4537W        W 6737  18.934   0.016  27.957 -0.2117  0.1259 -0.1803
 4538W        W 6738   6.921   4.425  24.454 -0.1612  0.0368  0.1158
 4539W        W 6739  14.354   0.769  11.357  0.2199 -0.1846  0.0421
 4540W        W 6740   0.614   6.211  17.393  0.0133  0.3567  0.0222
 4541W        W 6741   2.544   6.594   5.317  0.4514 -0.2597  0.0820
 4542W        W 6742  12.743   5.651  22.526  0.1759  0.0677 -0.0901
 4543W        W 6743  10.903   3.940  31.818 -0.1206  0.0383 -0.0570
 4544W        W 6744  10.236   4.792   8.351  0.1213 -0.0412 -0.3579
 4545W        W 6745   0.474   4.370   7.061 -0.2037 -0.2298 -0.2687
 4546W        W 6746   9.587   2.296  18.139 -0.2584  0.1399 -0.0886
 4547W        W 6747  21.784   0.534   7.570 -0.1393 -0.1489 -0.0947
 4548W        W 6748  22.584   4.585  17.877 -0.0251  0.1634 -0.3404
 4549W        W 6749  21.355   5.467  18.724 -0.1069  0.2583  0.1326
 4550W        W 6750  21.787   2.165  14.478 -0.2202 -0.1860  0.0633
 4551W        W 6751   8.053   4.918  16.093  0.0935  0.1672 -0.0759
 4552W        W 6752  10.403   1.837  13.126  0.0898  0.0290 -0.1255
 4553W        W 6753  11.014   0.031  10.682 -0.0125  0.0280 -0.0244
 4554W        W 6754  19.857   1.064   4.364  0.1570 -0.1572 -0.1633
 4555W        W 6755  16.460   6.555   4.385 -0.0378  0.3815  0.0364
 4556W        W 6756  14.383   3.995   8.676 -0.1220  0.1830  0.1056
 4557W        W 6757  16.484   6.073   3.652  0.1789 -0.0333 -0.0618
 4558W        W 6758  11.967   4.370  22.463  0.3788 -0.2048 -0.0833
 4559W        W 6759  15.223   2.798  28.307 -0.0345 -0.0596  0.3259
 4560W        W 6760   6.543   0.749  31.097  0.2288  0.0049 -0.1182
 4561W        W 6761  23.613   2.945   2.432  0.0076  0.1058  0.1659
 4562W        W 6762  22.573   2.531  32.178  0.0233 -0.2248  0.1368
 4563W        W 6763  10.436   4.331   6.249  0.0792 -0.0421 -0.0802
 4564W        W 6764  23.478   1.757  31.371  0.1888 -0.1718  0.1580
 4565W        W 6765  17.321   1.371  24.822 -0.1451 -0.1160 -0.1330
 4566W        W 6766  18.245   2.065   4.008 -0.0381 -0.0773  0.0617
 4567W        W 6767   6.636   6.146   4.985  0.1145 -0.1866 -0.0269
 4568W        W 6768  16.231   7.171  26.466  0.2692  0.3035  0.3325
 4569W        W 6769   2.931   3.774   7.970 -0.0654  0.0131 -0.2296
 4570W        W 6770  24.785   0.170  27.763 -0.0272  0.0153 -0.4628
 4571W        W 6771   6.535   2.841  17.310 -0.1144 -0.4753  0.1737
 4572W        W 6772   6.582   0.153  29.552  0.2611 -0.1709 -0.0832
 4573W        W 6773   6.286   7.099   4.989 -0.0423  0.0180  0.0590
 4574W        W 6774  18.602   3.599  20.090 -0.1847 -0.0126 -0.1666
 4575W        W 6775  18.814   2.184  23.669 -0.0035  0.1835  0.0079
 4576W        W 6776  20.983   0.532   2.089 -0.0714  0.0108 -0.0332
 4577W        W 6777  16.235   2.135  28.806 -0.0390  0.0483  0.0036
 4578W        W 6778  14.227   4.055   4.297  0.1379  0.0075  0.0340
 4579W        W 6779  18.087   2.314  27.493 -0.1402 -0.0273 -0.2012
 4580W        W 6780   2.153   6.720  10.932 -0.2366 -0.1595  0.0669
 4581W        W 6781  13.688   1.854   3.432 -0.6448 -0.1097 -0.0743
 4582W        W 6782  18.257   6.726  10.560  0.0839 -0.0109  0.0013
 4583W        W 6783  16.260   5.607   0.658  0.1982  0.1106 -0.0039
 4584W        W 6784   4.384   2.736  26.391  0.0428 -0.0460 -0.3352
 4585W        W 6785  20.723   4.817  10.332 -0.0607  0.1865 -0.0893
 4586W        W 6786   7.522   4.404  14.192  0.0737  0.3136 -0.0251
 4587W        W 6787  12.424   1.981   4.125 -0.0227 -0.2540  0.0592
 4588W        W 6788   9.334   1.097  27.974  0.4016 -0.0498  0.2777
 4589W        W 6789  10.648   5.915  11.616 -0.1316  0.1215 -0.0713
 4590W        W 6790   9.747   1.235   8.914 -0.1555 -0.0244  0.0647
 4591W        W 6791  21.498   7.557  24.034 -0.1394  0.0534 -0.0760
 4592W        W 6792  14.540   5.941  21.514  0.2835 -0.0638  0.4067
 4593W        W 6793  23.709   6.313  17.669 -0.0955  0.2688 -0.0795
 4594W        W 6794  18.159   1.210  27.769 -0.3067  0.1587 -0.2360
 4595W        W 6795   7.084   6.171  13.103 -0.1516  0.2702 -0.0290
 4596W        W 6796  22.516   5.588  17.057  0.0160  0.3230 -0.1978
 4597W        W 6797  21.353   0.886   3.263  0.1668 -0.1198  0.0361
 4598W        W 6798   1.348   2.192  10.781 -0.2145 -0.0726 -0.0129
 4599W        W 6799   2.681   4.050  27.519  0.1347 -0.0588  0.0386
 4600W        W 6800  16.165   6.537  30.664  0.0569 -0.2171  0.2490
 4601W        W 6801   5.530   2.054   4.792 -0.0920  0.1949  0.3557
 4602W        W 6802   1.380   3.143  24.906 -0.1414  0.1107  0.2164
 4603W        W 6803  19.275   4.870   9.323  0.2291  0.0542  0.2341
 4604W        W 6804   9.708   4.496  22.641  0.2863 -0.1039  0.0733
 4605W        W 6805   5.700   2.949  14.405 -0.0772  0.1634 -0.1028
 4606W        W 6806  24.984   7.646   0.724  0.0024 -0.1652 -0.0559
 4607W        W 6807  20.879   5.868  23.466 -0.0541 -0.0539 -0.0337
 4608W        W 6808   0.663   4.191  24.644 -0.4171  0.0931 -0.3863
 4609W        W 6809   7.250   5.765  12.829 -0.2025  0.1661 -0.0873
 4610W        W 6810   7.386   4.120   0.264  0.3220  0.2107 -0.2267
 4611W        W 6811   0.012   6.011   7.429  0.0047  0.1366 -0.0274
 4612W        W 6812   5.721   4.598   2.204 -0.4097 -0.3179 -0.2643
 4613W        W 6813  19.072   6.981   1.388  0.0777  0.3562 -0.2005
 4614W        W 6814  15.266   0.534  24.305 -0.1628 -0.3186 -0.0288
 4615W        W 6815   6.263   3.360  27.215  0.0097 -0.2231  0.2566
 4616W        W 6816   8.959   7.439   8.488  0.2373 -0.0184 -0.0024
 4617W        W 6817   8.041   2.382  18.509 -0.3057 -0.0833 -0.0811
 4618W        W 6818  23.848   1.071   2.104 -0.3094  0.1927 -0.1053
 4619W        W 6819  12.955   3.571  25.330 -0.0120  0.0539 -0.0947
 4620W        W 6820  17.050   2.378  30.571  0.0503 -0.3123 -0.0457
 4621W        W 6821  17.088   3.791   3.762  0.4008  0.3739  0.0281
 4622W        W 6822  13.705   7.724  21.633 -0.1026 -0.0865 -0.0089
 4623W        W 6823  21.502   1.666   1.899 -0.4716 -0.1844 -0.0457
 4624W        W 6824  14.408   2.513   2.632  0.2680 -0.0671  0.4906
 4625W        W 6825  16.693   6.726   9.239 -0.3522  0.3232  0.2425
 4626W        W 6826  23.558   6.881   5.040 -0.2130  0.0064  0.2674
 4627W        W 6827   1.148   7.563   5.610  0.1113  0.3358 -0.1701
 4628W        W 6828  10.661   1.194  29.495 -0.1679  0.2186 -0.1574
 4629W        W 6829   6.025   3.343   2.479 -0.1299 -0.2814  0.3067
 4630W        W 6830  11.579   5.984   0.639 -0.1635 -0.3147  0.1640
 4631W        W 6831  23.836   7.219  26.439  0.1949  0.1094  0.0723
 4632W        W 6832   2.880   5.219  26.909  0.3108  0.0027 -0.6288
 4633W        W 6833  24.793   6.049   7.892  0.0087 -0.2743  0.1726
 4634W        W 6834   4.453   5.824  26.151 -0.0303  0.1627 -0.1272
 4635W        W 6835   9.618   5.715   4.978 -0.1855 -0.0063 -0.0968
 4636W        W 6836  24.975   5.579  26.811 -0.2483 -0.0075  0.1531
 4637W        W 6837  21.084   0.118  30.839 -0.0621  0.0933 -0.0042
 4638W        W 6838  10.732   7.127   6.317  0.1337  0.0746  0.0435
 4639W        W 6839   0.487   7.668  17.890  0.0219 -0.1607 -0.0313
 4640W        W 6840  18.752   7.604   9.860 -0.0283  0.1990  0.1209
 4641W        W 6841   1.720   3.254  19.629 -0.0277 -0.0096 -0.1217
 4642W        W 6842  14.300   1.015  22.354 -0.1455  0.2103 -0.0717
 4643W        W 6843   8.431   6.435   5.596 -0.3239 -0.1388 -0.3338
 4644W        W 6844  12.770   3.737  31.102 -0.1544 -0.0461 -0.4395
 4645W        W 6845  18.838   3.603  19.447 -0.0626 -0.4410 -0.1183
 4646W        W 6846  23.938   5.756  19.046 -0.0758  0.1034 -0.0755
 4647W        W 6847   8.484   3.572  30.271  0.3687  0.1475 -0.2124
 4648W        W 6848   3.272   6.576   7.804  0.0580 -0.2084 -0.0156
 4649W        W 6849   6.987   2.694  31.332 -0.1202 -0.0963  0.1134
 4650W        W 6850  17.717   0.426  19.958 -0.0188  0.0436  0.0286
 4651W        W 6851   4.882   7.591  13.911  0.1316 -0.1299 -0.2461
 4652W        W 6852   4.202   2.028  29.168  0.1651 -0.2359 -0.1665
 4653W        W 6853  12.694   6.534   1.420  0.1470  0.0091  0.1489
 4654W        W 6854  23.481   6.527  16.172  0.2419  0.0441  0.2796
 4655W        W 6855   5.884   6.390  32.035  0.1081  0.2016 -0.3105
 4656W        W 6856  16.030   3.280   1.199  0.1067  0.0268 -0.0424
 4657W        W 6857   6.609   1.805  25.858 -0.2410 -0.0688 -0.1771
 4658W        W 6858  13.983   6.653  30.766 -0.0465  0.1395 -0.1867
 4659W        W 6859  13.408   6.957  21.913 -0.0227  0.0152 -0.2222
 4660W        W 6860   7.301   2.501  14.196 -0.0140 -0.0685 -0.1977
 4661W        W 6861   4.106   7.661   6.326 -0.3590  0.1334 -0.2219
 4662W        W 6862  17.247   6.559  24.000 -0.1802  0.0006 -0.0150
 4663W        W 6863  22.372   3.272  17.632  0.0526  0.2310  0.0989
 4664W        W 6864  21.460   0.390  20.842  0.1078 -0.0387  0.3446
 4665W        W 6865   9.389   5.872  32.516  0.2158 -0.3987 -0.2360
 4666W        W 6866   8.381   3.618   1.848 -0.0119  0.0503  0.1665
 4667W        W 6867   4.377   7.175   1.394  0.2354 -0.2881 -0.1419
 4668W        W 6868   4.036   2.950  27.965 -0.1307 -0.2255  0.0125
 4669W        W 6869  17.437   5.381  20.998  0.1830  0.0659 -0.1034
 4670W        W 6870  24.734   3.218   4.760 -0.2133 -0.0305 -0.0370
 4671W        W 6871  14.734   0.457  25.536 -0.0500 -0.2364  0.1031
 4672W        W 6872  24.781   1.759   7.617  0.0403  0.0979 -0.5782
 4673W        W 6873  22.519   3.437   4.400  0.3353  0.3025 -0.0503
 4674W        W 6874   8.873   0.704  22.783  0.1916 -0.3404  0.0341
 4675W        W 6875  24.281   4.214  19.599  0.1336 -0.1777 -0.1655
 4676W        W 6876   7.860   2.716  14.117  0.2765  0.1964  0.0270
 4677W        W 6877   4.426   4.820   0.837  0.0958  0.3742 -0.0487
 4678W        W 6878  24.554   0.978  20.515 -0.0018 -0.2363 -0.0483
 4679W        W 6879   7.178   4.074  30.723 -0.0751 -0.1122  0.0725
 4680W        W 6880   7.462   5.124  27.348  0.0312  0.1776 -0.0241
 4681W        W 6881  23.722   1.592  23.789 -0.0951 -0.1744  0.1544
 4682W        W 6882  15.392   3.392   7.126 -0.2264  0.0144  0.3568
 4683W        W 6883  20.962   6.811   7.286  0.1853 -0.0197 -0.0480
 4684W        W 6884  24.585   0.346  18.812  0.0646  0.4286  0.2464
 4685W        W 6885   9.110   2.907  12.540 -0.2468  0.3714 -0.1947
 4686W        W 6886   3.222   7.582   9.728  0.0279  0.1729  0.0514
 4687W        W 6887  22.163   3.351  20.737  0.3116  0.0989  0.0178
 4688W        W 6888   7.510   7.360  25.772 -0.3446  0.4426  0.0876
 4689W        W 6889   0.340   2.527  32.123  0.0606 -0.2652  0.1082
 4690W        W 6890  19.242   0.278  23.693  0.0086 -0.0328  0.1932
 4691W        W 6891   9.905   0.210  28.295  0.1417 -0.0348  0.0308
 4692W        W 6892  13.278   6.283   3.492 -0.3026  0.0390 -0.1260
 4693W        W 6893  11.719   5.174  28.956  0.1574 -0.0633  0.0919
 4694W        W 6894   3.740   7.461   4.955 -0.2487 -0.0688 -0.0691
 4695W        W 6895   3.342   5.405  27.902 -0.0977  0.1007  0.0145
 4696W        W 6896  12.153   3.093  23.773  0.0069 -0.0818 -0.1731
 4697W        W 6897  18.113   3.928   7.692 -0.2526  0.1154 -0.0975
 4698W        W 6898  15.269   5.940   8.738 -0.4531 -0.2210 -0.0158
 4699W        W 6899  10.944   3.807  24.104  0.0221 -0.1950  0.2714
 4700W        W 6900  14.063   6.785  25.217 -0.1776 -0.1650  0.1210
 4701W        W 6901  19.763   2.991  22.615  0.1962  0.0079 -0.0243
 4702W        W 6902  21.583   7.227  23.037  0.0177 -0.0720 -0.3011
 4703W        W 6903  24.425   6.279  18.372 -0.2585  0.0754 -0.0925
 4704W        W 6904  14.921   6.769   9.130 -0.2098  0.1610 -0.1341
 4705W        W 6905  22.716   1.545  14.878 -0.2520  0.3787  0.1940
 4706W        W 6906  23.183   6.308  17.599 -0.1540 -0.1046 -0.1235
 4707W        W 6907   4.316   4.310  26.396  0.1260 -0.0178  0.2102
 4708W        W 6908  19.227   1.321  18.434 -0.1407  0.0398 -0.2129
 4709W        W 6909   3.914   6.800  22.975 -0.1998  0.2424 -0.1100
 4710W        W 6910  11.249   7.267  25.128  0.2983  0.1058  0.1134
 4711W        W 6911  12.253   6.445  11.246  0.0351  0.1574 -0.0196
 4712W        W 6912   0.886   4.167   2.035 -0.2666  0.3627 -0.0589
 4713W        W 6913  22.934   2.619  14.770  0.1290 -0.0180  0.4485
 4714W        W 6914  15.965   5.513  26.011  0.1139 -0.1546  0.1583
 4715W        W 6915  15.404   6.689  28.521 -0.3537  0.0791 -0.0539
 4716W        W 6916   3.464   7.506  24.249  0.0941  0.2798  0.3793
 4717W        W 6917   6.142   6.040   4.965 -0.2072  0.0537 -0.1452
 4718W        W 6918   2.952   7.755  26.075  0.0602 -0.1527  0.0903
 4719W        W 6919   3.322   7.350   5.373  0.1690  0.0920  0.1606
 4720W        W 6920  13.058   2.390   1.341  0.0930 -0.1796 -0.2828
 4721W        W 6921  12.972   5.052   7.082 -0.1872 -0.0683 -0.0413
 4722W        W 6922  23.659   5.509   7.544  0.3852  0.2894 -0.1462
 4723W        W 6923   7.180   0.835   0.610 -0.0643  0.0274 -0.1643
 4724W        W 6924   7.572   7.450   5.623  0.0840 -0.2729 -0.0260
 4725W        W 6925  12.538   0.659   0.510 -0.1133  0.0203  0.0689
 4726W        W 6926  23.651   4.328   4.707 -0.1346 -0.0705  0.2073
 4727W        W 6927  13.926   1.634  28.477 -0.2324 -0.3507  0.0422
 4728W        W 6928   3.455   5.893   9.881  0.0080  0.1074  0.0324
 4729W        W 6929   7.664   4.176   0.918 -0.2777 -0.1580 -0.2897
 4730W        W 6930  19.137   7.325   8.524 -0.0303 -0.0613  0.2247
 4731W        W 6931   8.483   5.725  30.814  0.3557 -0.0809 -0.3193
 4732W        W 6932   8.861   4.947   3.027  0.1475  0.1949  0.1983
 4733W        W 6933   4.575   5.093  24.544  0.4125 -0.1835  0.0734
 4734W        W 6934  17.985   7.472  17.245  0.0863  0.1597  0.1606
 4735W        W 6935  20.980   5.146  18.191 -0.2275  0.0443 -0.0455
 4736W        W 6936  23.420   1.966  25.569 -0.1521 -0.2884 -0.1072
 4737W        W 6937   1.378   6.508  30.113 -0.0619  0.1147  0.0579
 4738W        W 6938   9.411   3.909  11.444  0.4049  0.3565 -0.1441
 4739W        W 6939   7.023   1.845   1.904 -0.2120 -0.0440  0.3802
 4740W        W 6940  10.040   1.546  15.061  0.1621  0.1544  0.2777
 4741W        W 6941  12.605   3.378   2.675 -0.1890  0.0830 -0.0886
 4742W        W 6942  21.601   3.728  16.529 -0.0690  0.2179 -0.4838
 4743W        W 6943  17.978   5.655  10.558  0.2529 -0.4323  0.2349
 4744W        W 6944  23.777   4.989  19.224 -0.0531 -0.1054  0.2145
 4745W        W 6945   6.742   3.142  18.449  0.2457  0.1080 -0.1601
 4746W        W 6946   6.519   3.111   0.135 -0.0151  0.1785 -0.0819
 4747W        W 6947  22.142   6.490  29.231 -0.0579  0.2492  0.2288
 4748W        W 6948  18.693   4.753  27.675  0.3529 -0.1218 -0.0618
 4749W        W 6949   4.440   6.420  14.939 -0.0631  0.0008 -0.2923
 4750W        W 6950   3.586   1.353  25.899  0.0731  0.2875  0.0628
 4751W        W 6951   5.892   4.639  26.979 -0.1500 -0.1157 -0.1393
 4752W        W 6952  18.400   3.722  31.155 -0.0482  0.0892  0.0683
 4753W        W 6953  18.760   3.806  30.452 -0.0752  0.0586  0.3956
 4754W        W 6954  14.849   6.956  32.422 -0.4344 -0.2201  0.1768
 4755W        W 6955   8.401   0.195   9.851 -0.0233 -0.1909  0.0336
 4756W        W 6956  22.274   1.914   6.783  0.1649  0.0027  0.2300
 4757W        W 6957  23.641   4.959  28.225 -0.2488 -0.0910  0.2401
 4758W        W 6958  21.120   0.402   8.503  0.1489 -0.1766 -0.1255
 4759W        W 6959  24.636   0.166  22.620  0.0501  0.0206 -0.3068
 4760W        W 6960  23.191   0.558   1.624  0.0396  0.2667 -0.0070
 4761W        W 6961  10.824   1.641  27.074 -0.3405  0.0749 -0.0982
 4762W        W 6962  16.649   3.600  18.610  0.0857  0.0315 -0.0465
 4763W        W 6963  23.733   6.174  16.483 -0.1451 -0.1600 -0.2415
 4764W        W 6964  12.212   5.966  29.300 -0.2172 -0.1751 -0.0481
 4765W        W 6965  14.503   7.145  22.324  0.1271  0.1499  0.2234
 4766W        W 6966   4.255   6.480   9.684  0.0806 -0.0592  0.0315
 4767W        W 6967  12.589   7.240  29.273  0.1472  0.1693  0.3183
 4768W        W 6968  11.447   4.438  15.016  0.0637 -0.0796 -0.1075
 4769W        W 6969  12.250   3.423   7.661  0.0259  0.1879 -0.0053
 4770W        W 6970  24.853   5.080  26.974  0.1007  0.1508 -0.0200
 4771W        W 6971  21.718   4.461  31.277  0.1216  0.2899  0.2048
 4772W        W 6972   1.983   1.244   5.673  0.0469  0.2588 -0.2636
 4773W        W 6973   2.635   2.576  30.375 -0.2195 -0.1172  0.1428
 4774W        W 6974  17.070   1.769  22.142 -0.2104  0.0505 -0.1142
 4775W        W 6975   1.656   3.515  10.607  0.2112  0.3689 -0.1245
 4776W        W 6976   3.137   0.719  31.601 -0.0644 -0.0908 -0.2205
 4777W        W 6977   9.954   4.005  27.195 -0.2384 -0.2859 -0.1405
 4778W        W 6978  23.162   6.736  15.323  0.1136 -0.1721  0.1469
 4779W        W 6979  24.979   7.479   8.498 -0.0242  0.1584 -0.1295
 4780W        W 6980  18.823   5.879  29.934 -0.0362  0.0926  0.0464
 4781W        W 6981  15.490   2.406   3.825  0.1394 -0.0038  0.0428
 4782W        W 6982   3.119   6.142   6.118 -0.0003  0.1298  0.1492
 4783W        W 6983  17.481   1.712   2.185 -0.0932 -0.3764  0.1759
 4784W        W 6984  21.399   7.308  28.461 -0.1293  0.1145  0.0305
 4785W        W 6985  13.126   2.659   3.094  0.2088  0.2504 -0.2392
 4786W        W 6986  24.653   7.603  17.363  0.1019  0.0176 -0.2275
 4787W        W 6987  21.126   4.162  22.540 -0.0921  0.1948 -0.0315
 4788W        W 6988  16.667   6.885  31.897  0.1786 -0.1455 -0.1655
 4789W        W 6989   2.596   6.655   7.272 -0.0850 -0.1981  0.1534
 4790W        W 6990   5.596   2.200  16.504 -0.0097  0.2231  0.0363
 4791W        W 6991  19.507   1.098   0.011 -0.1983  0.0746  0.1650
 4792W        W 6992  24.002   2.391  27.609  0.2604 -0.1782  0.2111
 4793W        W 6993  11.093   5.553  30.297 -0.2675 -0.2340 -0.0897
 4794W        W 6994  21.605   5.564   9.541 -0.2056  0.2522 -0.0286
 4795W        W 6995   8.883   6.102  23.894 -0.1343  0.0293 -0.2295
 4796W        W 6996  12.692   3.383   6.024 -0.0345  0.0206 -0.4495
 4797W        W 6997   7.182   5.963   8.558 -0.0298 -0.0852  0.1882
 4798W        W 6998  21.373   1.193  17.710 -0.1175 -0.0723 -0.1395
 4799W        W 6999   4.713   7.050  30.817 -0.2615 -0.3506  0.0629
 4800W        W 7000  22.567   1.049   4.822 -0.2109  0.1440  0.1660
 4801W        W 7001  22.310   5.152  27.537 -0.1150 -0.1508 -0.2632
 4802W        W 7002  12.048   6.988  31.206  0.1069 -0.0984  0.2542
 4803W        W 7003  13.496   7.505  29.068 -0.3582 -0.0910 -0.1089
 4804W        W 7004  13.732   4.301  14.694  0.1470  0.1242 -0.1948
 4805W        W 7005  20.038   4.050  14.542  0.2138  0.0658 -0.0133
 4806W        W 7006  18.033   6.829  30.661 -0.2502 -0.0410  0.3412
 4807W        W 7007  19.197   6.390  32.539 -0.1795  0.2881 -0.0014
 4808W        W 7008   4.624   0.763  31.884 -0.1397 -0.1172  0.0922
 4809W        W 7009  14.089   4.844  11.427  0.0210 -0.3163 -0.0992
 4810W        W 7010  12.699   1.800   2.759  0.1835 -0.1554  0.1714
 4811W        W 7011  20.404   0.282  21.963  0.0466  0.0107  0.0792
 4812W        W 7012   7.635   0.289  28.047  0.1829  0.1640 -0.0703
 4813W        W 7013  23.844   6.506  22.187 -0.2826 -0.0664 -0.0251
 4814W        W 7014  10.354   3.059  24.505 -0.0393  0.0560 -0.1265
 4815W        W 7015  24.170   7.536  29.772 -0.3611  0.0974 -0.2342
 4816W        W 7016   9.877   2.181   2.635  0.1389  0.1673  0.2329
 4817W        W 7017  22.915   2.263  32.427 -0.1895 -0.1223  0.0464
 4818W        W 7018   3.845   4.869   0.897 -0.0234  0.2082  0.0194
 4819W        W 7019   0.120   3.655  30.403 -0.0083  0.1269  0.1749
 4820W        W 7020  19.329   6.817   8.549  0.1036  0.1704 -0.0955
 4821W        W 7021   7.830   1.861   1.102  0.2498  0.1280 -0.0597
 4822W        W 7022  12.317   1.570   3.833 -0.0866 -0.1863  0.1530
 4823W        W 7023  10.631   0.348   8.499 -0.1060 -0.1777 -0.0572
 4824W        W 7024   9.231   4.735  27.087  0.4771 -0.1484 -0.1329
 4825W        W 7025   7.971   4.423  11.248  0.2003  0.0580 -0.1153
 4826W        W 7026   4.675   2.250   5.959  0.2619 -0.1652  0.1946
 4827W        W 7027  11.325   2.224  23.466 -0.0788  0.1099  0.1199
 4828W        W 7028  17.511   7.589   1.832 -0.0768 -0.1389 -0.1701
 4829W        W 7029   4.882   7.625  12.453  0.0841 -0.0751  0.2115
 4830W        W 7030   3.804   2.455  22.847  0.0291 -0.0455  0.1090
 4831W        W 7031  13.345   4.950  31.904  0.0457  0.0144 -0.0367
 4832W        W 7032   4.186   4.143  23.255 -0.1464 -0.2998  0.1318
 4833W        W 7033   6.834   5.624  31.410 -0.1121  0.1680 -0.0789
 4834W        W 7034  21.967   2.047  28.143  0.1775  0.2775 -0.0790
 4835W        W 7035  15.124   3.525  32.628 -0.1021  0.1075 -0.0069
 4836W        W 7036  17.247   7.553  23.041  0.1165  0.1122 -0.2210
 4837W        W 7037   3.472   1.784  24.662 -0.2934  0.2067 -0.1874
 4838W        W 7038  20.199   5.979   0.476 -0.2484 -0.0936 -0.4286
 4839W        W 7039  18.873   0.097  17.068  0.0495 -0.2831  0.2196
 4840W        W 7040  10.711   4.358   9.459 -0.3338  0.3569  0.0539
 4841W        W 7041  10.891   2.032   4.299 -0.0378 -0.0105 -0.0464
 4842W        W 7042  16.291   0.098   8.625 -0.0215  0.1716 -0.1237
 4843W        W 7043   9.884   6.594  18.510 -0.0971 -0.2218  0.0884
 4844W        W 7044  17.212   4.124  20.524  0.3343  0.1255  0.2010
 4845W        W 7045  22.863   4.755   0.942  0.1333  0.1778 -0.5947
 4846W        W 7046  18.066   2.005  27.124  0.0374 -0.0339  0.1575
 4847W        W 7047  24.302   5.670   5.263  0.1280  0.0362  0.1066
 4848W        W 7048   6.871   0.416   5.134 -0.0908 -0.1557  0.0775
 4849W        W 7049  21.667   0.883  18.938  0.0087  0.0794 -0.0025
 4850W        W 7050  15.882   5.253   6.452  0.1104  0.1242  0.1064
 4851W        W 7051  11.805   5.657  28.688  0.0269 -0.2394  0.1557
 4852W        W 7052  13.166   2.246  11.851  0.1594  0.0311  0.1592
 4853W        W 7053  23.222   6.503   0.611  0.1696 -0.0353 -0.2181
 4854W        W 7054  17.215   1.702  23.859  0.1794  0.0500 -0.3700
 4855W        W 7055  14.777   1.424  11.925  0.0412 -0.0755  0.0084
 4856W        W 7056   8.119   5.331   0.273  0.1247  0.1043 -0.0577
 4857W        W 7057  23.583   7.695   5.252  0.2769  0.0554  0.2974
 4858W        W 7058  24.934   4.142   3.126  0.1922 -0.2488 -0.1565
 4859W        W 7059  19.516   2.767  19.700 -0.0642  0.0197  0.0262
 4860W        W 7060  21.735   2.465  27.051  0.1914  0.1647  0.1771
 4861W        W 7061  21.713   5.893   9.892 -0.0094 -0.0149  0.0589
 4862W        W 7062   5.728   6.069   5.705 -0.1769  0.0666 -0.0210
 4863W        W 7063  15.692   3.964   5.665 -0.2326  0.0869 -0.0046
 4864W        W 7064   1.372   0.911   6.122 -0.0414  0.0816 -0.1168
 4865W        W 7065  12.575   1.839  30.906 -0.2802  0.1155  0.0325
 4866W        W 7066  18.986   7.192  10.838 -0.1714  0.1165  0.1994
 4867W        W 7067  22.954   3.581  24.900 -0.2452 -0.0282  0.1178
 4868W        W 7068  11.720   4.450  11.553  0.0647 -0.1041  0.3919
 4869W        W 7069  16.496   7.799  18.604 -0.0446 -0.0936  0.0710
 4870W        W 7070  23.059   6.259  15.214  0.1151 -0.0462  0.1754
 4871W        W 7071   0.831   5.571  20.411  0.1975  0.0921  0.1142
 4872W        W 7072   5.682   1.803  24.096 -0.2637  0.1904  0.0197
 4873W        W 7073   8.094   0.892  14.366 -0.0974 -0.0159  0.0574
 4874W        W 7074  16.972   0.752  22.289 -0.1227 -0.4530  0.0725
 4875W        W 7075   9.973   3.793   3.938 -0.2528  0.0166  0.4627
 4876W        W 7076   4.138   2.047  25.461 -0.0813  0.3217  0.2932
 4877W        W 7077  19.736   3.966   0.454 -0.1624  0.1988  0.4196
 4878W        W 7078   2.200   4.558  26.565 -0.1100 -0.1275 -0.1259
 4879W        W 7079  10.908   4.997  15.654 -0.1267 -0.0846 -0.1520
 4880W        W 7080  16.241   0.530  18.466 -0.1613  0.2297  0.2286
 4881W        W 7081  24.906   2.301  24.250 -0.1808 -0.1410 -0.2159
 4882W        W 7082  20.536   4.884  14.893 -0.1225  0.2990  0.1296
 4883W        W 7083  23.982   6.523  25.642 -0.1611 -0.1154 -0.0585
 4884W        W 7084  23.014   2.785   6.922  0.0583 -0.0180 -0.1345
 4885W        W 7085   2.749   4.228   3.472 -0.1919  0.4613  0.0520
 4886W        W 7086  16.195   2.575  31.979  0.2407 -0.0490  0.0554
 4887W        W 7087   2.740   4.889   2.597  0.1072 -0.0366  0.0558
 4888W        W 7088  12.873   3.554  13.239 -0.2099 -0.3808  0.1556
 4889W        W 7089  13.653   1.160  29.552  0.1137 -0.0117 -0.0745
 4890W        W 7090   7.267   6.453   8.343  0.0031  0.2028 -0.0404
 4891W        W 7091  13.927   0.403  11.285 -0.1032 -0.1183 -0.2314
 4892W        W 7092   8.394   6.364  14.657 -0.0445 -0.3754 -0.0413
 4893W        W 7093  13.307   5.655  10.630 -0.2461  0.0800  0.2295
 4894W        W 7094   9.417   1.440  14.872 -0.0506 -0.2454 -0.1980
 4895W        W 7095   9.134   5.849  14.770  0.2899 -0.3751 -0.0499
 4896W        W 7096  24.301   6.223  23.028  0.2250 -0.0287 -0.2303
 4897W        W 7097   8.066   4.582   6.531 -0.3155 -0.0403 -0.1230
 4898W        W 7098  15.875   3.261  29.387 -0.0725  0.1111  0.3497
 4899W        W 7099  13.820   6.657  28.114 -0.3551 -0.2741  0.0398
 4900W        W 7100   0.745   1.345  22.040  0.0775 -0.2789  0.0720
 4901W        W 7101  15.655   4.154  27.096  0.1978 -0.0200  0.2218
 4902W        W 7102  24.696   2.144   7.258  0.0373  0.0937  0.1454
 4903W        W 7103  22.917   4.784  15.009  0.0364  0.1794  0.4842
 4904W        W 7104   7.634   5.687  12.494  0.2511 -0.0327  0.2219
 4905W        W 7105  23.567   3.026  19.767 -0.1113  0.0688 -0.0828
 4906W        W 7106   4.356   1.189  23.455 -0.0963 -0.4070 -0.0010
 4907W        W 7107  17.935   1.824   4.327  0.0048 -0.1852 -0.1445
 4908W        W 7108   8.563   6.282  25.116  0.1474  0.2546  0.3560
 4909W        W 7109   9.031   1.943  31.036 -0.2029 -0.1923 -0.2209
 4910W        W 7110  20.085   6.246  22.592 -0.1359 -0.1583 -0.1484
 4911W        W 7111   1.756   4.130  26.269  0.3659  0.3831 -0.0246
 4912W        W 7112  13.101   0.924  25.122 -0.0188 -0.2405 -0.3743
 4913W        W 7113  12.186   0.657  29.464  0.0674 -0.0391  0.4234
 4914W        W 7114   2.122   4.458   0.695 -0.3169  0.1475  0.1771
 4915W        W 7115  22.357   5.781  18.174  0.0849 -0.2096  0.1839
 4916W        W 7116   5.430   5.775  32.427 -0.0327 -0.2079 -0.0131
 4917W        W 7117  23.491   6.620   4.206  0.0758 -0.4988  0.0136
 4918W        W 7118   2.214   0.735  28.442 -0.0375  0.1831  0.0494
 4919W        W 7119  11.209   7.277   8.566 -0.1680  0.0772  0.1198
 4920W        W 7120   9.910   1.998  13.210  0.0319  0.0328 -0.0054
 4921W        W 7121  16.089   2.710  27.729 -0.0887  0.2463  0.0001
 4922W        W 7122   9.620   3.101  22.972  0.0362  0.1464 -0.0182
 4923W        W 7123  21.086   0.217  15.445 -0.0096  0.0164  0.1062
 4924W        W 7124  20.352   0.648  22.347 -0.0866 -0.0007  0.0717
 4925W        W 7125  11.761   2.242  28.511  0.0365  0.0058 -0.2504
 4926W        W 7126   8.475   6.785  32.094 -0.1815 -0.1145  0.0832
 4927W        W 7127  22.477   0.804  31.720 -0.2033  0.1382  0.1083
 4928W        W 7128   0.633   6.425  26.081  0.0111  0.0930  0.2751
 4929W        W 7129   4.312   2.862  31.956 -0.5380  0.2509  0.4693
 4930W        W 7130   0.822   6.704   6.692 -0.2041  0.0032  0.1536
 4931W        W 7131  16.333   0.421   7.315 -0.1120 -0.1906  0.1049
 4932W        W 7132   1.800   7.047  32.603 -0.0855  0.1855  0.1921
 4933W        W 7133   5.623   5.766  29.508 -0.0687  0.2413 -0.1165
 4934W        W 7134  11.464   1.387   7.068  0.2466 -0.0984 -0.2366
 4935W        W 7135   3.377   6.121  22.407  0.1510 -0.2636  0.2102
 4936W        W 7136  14.038   3.816   9.728  0.1080 -0.2004  0.0391
 4937W        W 7137  22.391   1.706   2.763 -0.0236  0.0640 -0.3587
 4938W        W 7138   7.226   4.782   2.929  0.0783 -0.2685  0.0359
 4939W        W 7139   2.421   5.890  27.419 -0.0309 -0.0684  0.0700
 4940W        W 7140  15.780   2.324   8.629  0.1869 -0.1392  0.0908
 4941W        W 7141  10.433   6.482  13.586  0.0275  0.2276 -0.0243
 4942W        W 7142   9.848   3.584  23.081  0.2945  0.0255 -0.2427
 4943W        W 7143  19.592   5.812   2.693 -0.0306  0.0721 -0.0250
 4944W        W 7144   8.953   0.634   0.728  0.2689 -0.0579  0.1313
 4945W        W 7145  20.823   4.391  25.814  0.1085  0.2134 -0.0954
 4946W        W 7146  21.527   2.746  27.698  0.2909  0.0030 -0.0479
 4947W        W 7147  13.696   6.456  13.158 -0.0203  0.3265  0.0360
 4948W        W 7148   9.194   6.685   4.033  0.2163  0.1255  0.0807
 4949W        W 7149  22.064   6.754  22.458  0.1272 -0.0199  0.2594
 4950W        W 7150   3.023   4.735  27.571 -0.1789  0.3276  0.0215
 4951W        W 7151  16.485   3.140  17.315  0.1839  0.2232  0.1265
 4952W        W 7152   9.605   7.606   2.227 -0.0049  0.2066  0.2560
 4953W        W 7153  11.395   0.664   2.574  0.2390 -0.0284  0.0400
 4954W        W 7154  18.701   6.272  27.034  0.0467  0.1423  0.0976
 4955W        W 7155  17.484   7.726   6.341  0.0879 -0.0325  0.1282
 4956W        W 7156  10.601   3.851   9.346 -0.1487 -0.2611  0.0715
 4957W        W 7157  14.973   3.536  24.049 -0.0952 -0.1815 -0.0443
 4958W        W 7158   2.503   5.425   5.834 -0.2687  0.2013 -0.0950
 4959W        W 7159  14.416   1.507  21.517  0.1332 -0.1802 -0.0924
 4960W        W 7160  20.077   7.594  21.483 -0.0450 -0.0564 -0.0169
 4961W        W 7161  10.130   6.243   1.142  0.0795  0.1015  0.2565
 4962W        W 7162  15.645   3.300  30.807  0.0073  0.0039 -0.1788
 4963W        W 7163   1.864   4.901   7.262 -0.1444  0.1454  0.1725
 4964W        W 7164  20.632   4.300  25.354  0.1264  0.0686 -0.1194
 4965W        W 7165  24.200   7.177  16.747  0.2200  0.0016  0.2761
 4966W        W 7166  11.447   0.948   0.089  0.1070  0.1804  0.0966
 4967W        W 7167   3.036   2.645  10.255 -0.1447  0.0053  0.1024
 4968W        W 7168  21.670   3.079  21.143 -0.0261  0.1829  0.2677
 4969W        W 7169   9.988   5.607   6.384 -0.1057 -0.0692  0.1417
 4970W        W 7170  11.426   7.369   2.344 -0.0858 -0.4066  0.0681
 4971W        W 7171  14.371   2.715  23.751  0.0092  0.0424  0.1235
 4972W        W 7172  24.352   2.058  18.457 -0.3274 -0.0738  0.2382
 4973W        W 7173  24.772   6.924   8.378  0.0619 -0.0195  0.1985
 4974W        W 7174   9.898   1.817   6.223  0.0233  0.1435  0.1534
 4975W        W 7175  14.713   0.426   1.354 -0.0540 -0.0171  0.2216
 4976W        W 7176   0.813   4.707   5.691  0.1731  0.0751 -0.0368
 4977W        W 7177  21.452   6.231  18.110 -0.1244  0.1331  0.3411
 4978W        W 7178   8.369   0.970   8.342  0.2487 -0.0385  0.0018
 4979W        W 7179  17.574   2.840  25.770 -0.0027  0.0855 -0.1628
 4980W        W 7180  17.847   7.001   3.599 -0.0892 -0.0973  0.3969
 4981W        W 7181  22.657   4.279  27.472 -0.1949 -0.1317 -0.1111
 4982W        W 7182  23.346   1.596  21.405  0.1948 -0.0637  0.2276
 4983W        W 7183  14.196   5.793   7.197  0.2659 -0.1416 -0.0448
 4984W        W 7184  14.537   4.169   3.775 -0.1700 -0.0650  0.1521
 4985W        W 7185   9.921   4.386  27.507 -0.2598 -0.0898  0.1440
 4986W        W 7186  13.390   1.314   3.929  0.0218  0.1358 -0.1173
 4987W        W 7187  11.984   4.156  12.944 -0.1874  0.0790  0.0503
 4988W        W 7188  21.816   1.882   8.860  0.0370  0.0329  0.0794
 4989W        W 7189  19.189   7.810  26.094 -0.0480  0.3124 -0.0138
 4990W        W 7190   2.109   5.474   3.284 -0.1600 -0.1203  0.0881
 4991W        W 7191  11.790   2.384   5.294  0.0694  0.3449  0.0999
 4992W        W 7192  10.084   1.915  30.619  0.0786  0.2356  0.0612
 4993W        W 7193   5.432   6.496  11.134 -0.0937  0.1495 -0.1010
 4994W        W 7194  12.984   6.722  32.299  0.1139  0.0795  0.0359
 4995W        W 7195  13.117   5.046  28.625  0.0662  0.1316  0.0937
 4996W        W 7196   7.106   1.779   0.413  0.0950 -0.2994 -0.0702
 4997W        W 7197  19.943   1.622  15.049 -0.1127  0.0849 -0.0804
 4998W        W 7198  10.405   2.677   9.848 -0.0700  0.1294 -0.0452
 4999W        W 7199   0.462   4.060  21.575  0.0674 -0.1414 -0.4449
 5000W        W 7200  24.889   0.562  19.675  0.3380 -0.0193 -0.1948
 5001W        W 7201   7.944   0.353   8.378  0.0483  0.3089 -0.2242
 5002W        W 7202   9.341   7.039  31.723  0.1870 -0.0998  0.1116
 5003W        W 7203  18.683   0.445  27.714  0.0644  0.0347  0.0090
 5004W        W 7204   4.994   0.710  29.655  0.2607 -0.1726 -0.2029
 5005W        W 7205  23.927   2.228   0.468 -0.0086 -0.3490 -0.7360
 5006W        W 7206   7.632   0.257   2.742  0.1068 -0.1215  0.0347
 5007W        W 7207   6.864   0.070  13.648  0.0945  0.0754  0.1669
 5008W        W 7208  17.260   0.485   4.846 -0.1280 -0.0509 -0.0108
 5009W        W 7209  24.012   0.477  16.507  0.1448 -0.1635  0.0249
 5010W        W 7210   4.487   1.473   8.004 -0.0512  0.0385  0.0408
 5011W        W 7211  24.882   2.596   2.801 -0.0230  0.0585  0.1181
 5012W        W 7212   6.004   5.848   9.227 -0.4938  0.1817  0.1724
 5013W        W 7213  12.343   5.066  25.158  0.1556 -0.0676  0.0463
 5014W        W 7214  20.451   4.906  30.855 -0.1398 -0.0324 -0.0995
 5015W        W 7215  15.855   3.695  21.817  0.0270 -0.1388  0.2108
 5016W        W 7216  17.060   5.113   5.889 -0.3193  0.2552  0.0858
 5017W        W 7217   6.138   1.160  10.064 -0.0099 -0.0897 -0.2732
 5018W        W 7218   8.651   7.177  26.356 -0.0449  0.0027 -0.1292
 5019W        W 7219   1.950   1.405  25.319  0.1681  0.0557 -0.0477
 5020W        W 7220  20.597   2.548  16.585 -0.1524 -0.3408 -0.1936
 5021W        W 7221  16.360   6.851  20.185 -0.1215  0.0237  0.0963
 5022W        W 7222  15.980   7.296  30.471 -0.4229  0.0151  0.1131
 5023W        W 7223   5.946   6.113  14.618  0.3089 -0.0898  0.1300
 5024W        W 7224  24.964   4.758   8.492  0.1581 -0.0377  0.4175
 5025W        W 7225  13.530   4.087   1.235  0.0024  0.0771 -0.1682
 5026W        W 7226   0.991   4.145  17.663  0.2716  0.0394  0.1304
 5027W        W 7227   2.792   1.439   9.499 -0.2625 -0.1975 -0.0211
 5028W        W 7228  15.039   0.197  21.410 -0.0405  0.1727 -0.0340
 5029W        W 7229  13.819   4.207  26.867 -0.6295  0.4022 -0.1480
 5030W        W 7230   7.918   2.422  26.746 -0.0529 -0.0994  0.0574
 5031W        W 7231   0.178   7.266  23.030 -0.1428  0.0636 -0.1828
 5032W        W 7232  22.089   1.477   6.504 -0.0023  0.0143  0.1842
 5033W        W 7233  18.029   6.163   7.010  0.0142  0.1964  0.2544
 5034W        W 7234   2.079   0.106   6.992 -0.1188 -0.2789  0.0646
 5035W        W 7235   1.243   0.183  26.556  0.0083  0.2278  0.5133
 5036W        W 7236  11.829   0.980  12.259 -0.1324 -0.2113 -0.1264
 5037W        W 7237   4.256   5.418  27.014  0.1887  0.0905  0.4061
 5038W        W 7238   6.531   2.714   5.113  0.0073  0.0786 -0.2276
 5039W        W 7239   1.666   5.250   8.829  0.1075  0.4165 -0.0539
 5040W        W 7240   9.945   0.114   9.809 -0.1836  0.3078  0.0649
 5041W        W 7241  13.129   0.117   0.038  0.0274 -0.3184 -0.1327
 5042W        W 7242   8.475   7.261  16.393  0.0826 -0.1967 -0.0611
 5043W        W 7243  12.272   3.963   6.824  0.1950  0.2611 -0.0926
 5044W        W 7244  22.992   6.253  22.261  0.1344  0.4135 -0.2173
 5045W        W 7245   8.585   0.134  13.706  0.1903 -0.2257 -0.2345
 5046W        W 7246  24.219   4.226  23.253 -0.0294  0.1664 -0.2023
 5047W        W 7247  15.273   3.538  22.675  0.0952  0.0639  0.1437
 5048W        W 7248  23.510   4.995   0.189  0.0384 -0.0487  0.1635
 5049W        W 7249  18.939   5.248   7.207 -0.1781 -0.0272  0.1528
 5050W        W 7250  13.017   3.210   8.997 -0.0006  0.3945 -0.2499
 5051W        W 7251  13.276   4.054  28.863  0.1448  0.2640  0.0060
 5052W        W 7252   6.851   3.991   6.638  0.0824 -0.0753  0.4493
 5053W        W 7253  23.353   3.012  29.139 -0.0606  0.0173  0.2394
 5054W        W 7254  16.189   1.070  30.818 -0.0726  0.2313 -0.2813
 5055W        W 7255  24.103   7.612  26.623  0.0960 -0.0512 -0.3067
 5056W        W 7256   8.985   0.251  23.755 -0.0630  0.2161  0.1816
 5057W        W 7257   7.809   4.182  25.594 -0.1662  0.1337  0.0276
 5058W        W 7258   3.630   7.444  10.486 -0.1204  0.0449  0.0783
 5059W        W 7259  17.866   6.578   7.221 -0.0706  0.1771 -0.2045
 5060W        W 7260  20.359   1.025  24.040 -0.2462 -0.2842 -0.1670
 5061W        W 7261  16.838   6.291   6.433 -0.0726  0.0301 -0.2290
 5062W        W 7262  11.473   6.165  28.589 -0.1392 -0.1263  0.0949
 5063W        W 7263   8.453   6.493  31.351 -0.3445 -0.2700 -0.1563
 5064W        W 7264  10.082   2.954  26.043  0.1663 -0.2830 -0.1105
 5065W        W 7265  14.804   5.829   2.469 -0.1013 -0.0295  0.0653
 5066W        W 7266  10.538   6.876  10.755  0.3300 -0.0548  0.0607
 5067W        W 7267  10.598   5.856   2.739  0.0397  0.2125  0.1200
 5068W        W 7268  19.501   1.488  20.070 -0.2686  0.0062  0.2118
 5069W        W 7269  12.696   3.134   7.880  0.1420 -0.0670  0.0536
 5070W        W 7270  11.756   3.088   4.654  0.1182 -0.4017 -0.2851
 5071W        W 7271   9.435   2.393  13.331  0.0079  0.0130  0.1692
 5072W        W 7272  13.622   3.121  23.180 -0.4194  0.0472  0.2059
 5073W        W 7273  14.848   7.623  22.997 -0.2432  0.3918 -0.3455
 5074W        W 7274   5.462   4.094   3.625 -0.0430  0.2166  0.1784
 5075W        W 7275  15.511   5.864   3.824  0.0291 -0.2715  0.0922
 5076W        W 7276  13.789   7.820   2.467 -0.1889  0.0369 -0.3128
 5077W        W 7277   1.110   5.128   2.055  0.0261 -0.1691  0.2280
 5078W        W 7278   5.814   1.046   4.725  0.0130 -0.0858 -0.1657
 5079W        W 7279   9.778   3.432  29.979 -0.2245  0.0785  0.2163
 5080W        W 7280   8.739   2.558   6.146  0.0838 -0.1074  0.1516
 5081W        W 7281   7.483   4.692   0.125  0.0464 -0.1238 -0.0172
 5082W        W 7282   5.082   7.233  22.683 -0.0130  0.2070  0.0096
 5083W        W 7283   5.695   1.033   9.773 -0.1280  0.0263  0.0255
 5084W        W 7284  12.639   0.976  10.255 -0.2913 -0.3355 -0.2937
 5085W        W 7285   3.793   5.353  12.544  0.2043 -0.1697 -0.2991
 5086W        W 7286  20.793   4.307  24.513  0.3094  0.0699 -0.2468
 5087W        W 7287  16.476   4.276   4.993 -0.3434 -0.0239 -0.0863
 5088W        W 7288   1.258   5.298  12.380  0.1884 -0.1830  0.0762
 5089W        W 7289   5.092   3.450  13.275  0.0751  0.3010 -0.1475
 5090W        W 7290   9.901   0.588  11.654  0.0100 -0.0721  0.1551
 5091W        W 7291  18.283   7.271   2.662 -0.0597 -0.2625  0.1441
 5092W        W 7292  18.304   6.013  16.634  0.4400 -0.3797 -0.0809
 5093W        W 7293  20.216   1.210  26.207  0.0209 -0.1164 -0.0243
 5094W        W 7294   1.050   3.189  18.538  0.1705 -0.1630 -0.1222
 5095W        W 7295  18.673   3.473  32.299 -0.0334  0.0711  0.0636
 5096W        W 7296   3.009   6.474  21.483  0.0372 -0.2253  0.1499
 5097W        W 7297  19.647   5.255   0.937  0.0225  0.0161  0.0243
 5098W        W 7298  20.376   0.526   3.158  0.0595 -0.2476 -0.0040
 5099W        W 7299   0.280   7.138   3.341 -0.0279 -0.2621  0.2042
 5100W        W 7300   9.381   3.012   7.265 -0.0684 -0.0239 -0.0187
 5101W        W 7301  19.383   1.311  21.491 -0.0371  0.4365  0.1037
 5102W        W 7302  20.862   3.720   0.483 -0.3152  0.3275 -0.3659
 5103W        W 7303  21.150   2.832   6.735 -0.1677  0.0810  0.4405
 5104W        W 7304  11.581   4.205   5.495  0.0486  0.1567 -0.3538
 5105W        W 7305  20.862   1.150  18.949  0.4757  0.2118  0.1507
 5106W        W 7306  10.287   5.888  13.153 -0.0604  0.0006 -0.2583
 5107W        W 7307   8.706   5.290  31.653  0.1347 -0.1813 -0.0372
 5108W        W 7308  15.297   6.224  32.275  0.1620  0.0957 -0.1803
 5109W        W 7309  13.256   3.755  25.857 -0.1342 -0.0619 -0.2529
 5110W        W 7310  12.307   0.146   9.658  0.2464 -0.3394 -0.1327
 5111W        W 7311  15.833   3.441   3.522 -0.1573 -0.0093 -0.1800
 5112W        W 7312  14.164   3.375  12.350  0.0234  0.2140 -0.1214
 5113W        W 7313   3.308   3.405   1.503 -0.4141 -0.2271  0.0463
 5114W        W 7314  22.644   7.605  19.278 -0.3165 -0.3214  0.0831
 5115W        W 7315   4.559   2.150   5.432 -0.0559 -0.0229  0.2068
 5116W        W 7316  24.829   6.340  24.426  0.1106  0.2225  0.0691
 5117W        W 7317   0.642   6.499  10.290 -0.1612 -0.1164  0.0275
 5118W        W 7318   6.085   2.295  28.652  0.0489  0.1243  0.2431
 5119W        W 7319  12.280   6.756  10.251 -0.2157 -0.3455 -0.0859
 5120W        W 7320   5.214   7.457  24.464  0.4141  0.0716 -0.1377
 5121W        W 7321   7.239   1.351   5.693  0.1248 -0.0653  0.1066
 5122W        W 7322   4.570   1.108  10.060 -0.0956 -0.0195 -0.0306
 5123W        W 7323   8.765   7.671  17.290 -0.0947 -0.0888  0.1583
 5124W        W 7324   3.627   1.572  31.999  0.1942  0.2768 -0.1057
 5125W        W 7325  20.364   5.774   5.073  0.1754 -0.2636  0.1124
 5126W        W 7326  18.002   0.057  17.994  0.0314  0.1090 -0.0459
 5127W        W 7327  18.965   6.088   0.147 -0.4154 -0.1854 -0.0405
 5128W        W 7328  12.129   2.877   7.463  0.2031  0.0006 -0.3268
 5129W        W 7329  18.228   2.704  27.818  0.2205  0.0132  0.0503
 5130W        W 7330  19.828   2.842  26.136  0.0004  0.2080  0.1347
 5131W        W 7331   2.632   3.159   2.700  0.0637  0.0270 -0.3436
 5132W        W 7332  15.813   4.634   4.464  0.1850  0.1205 -0.0733
 5133W        W 7333   0.005   3.863  16.726 -0.0759  0.2178  0.0725
 5134W        W 7334  20.991   5.070  15.089 -0.0464  0.1616  0.0031
 5135W        W 7335  22.476   2.263  16.720 -0.2235  0.1343 -0.2289
 5136W        W 7336   3.873   7.820  11.466  0.0032 -0.0633  0.2013
 5137W        W 7337  21.782   6.873  22.006  0.2762 -0.0874 -0.1086
 5138W        W 7338  14.807   2.821   3.415  0.1753  0.0094 -0.2367
 5139W        W 7339   3.865   5.867   3.244  0.4234 -0.3712  0.1866
 5140W        W 7340  12.981   2.653  25.195 -0.4612 -0.1402 -0.1859
 5141W        W 7341   0.067   2.854  28.227  0.1045 -0.1698 -0.4799
 5142W        W 7342  11.387   7.625  31.823  0.0833  0.2285 -0.0017
 5143W        W 7343   1.012   5.037  28.933  0.1056  0.3377 -0.0151
 5144W        W 7344   3.755   7.018   3.308  0.0212 -0.1118  0.0771
 5145W        W 7345   6.870   1.070  14.018  0.1915  0.0659 -0.0552
 5146W        W 7346   1.751   7.556   2.178  0.0324 -0.1406 -0.0862
 5147W        W 7347   3.601   3.082   2.819  0.2296  0.1255  0.2429
 5148W        W 7348  22.711   0.411  18.437 -0.4182 -0.0079 -0.1055
 5149W        W 7349   7.386   4.894   3.828  0.0283 -0.2581  0.2381
 5150W        W 7350  16.288   5.584   4.344 -0.1768 -0.1634 -0.0730
 5151W        W 7351   8.806   7.537  29.488 -0.0778  0.2107 -0.2184
 5152W        W 7352   2.399   5.103   4.185 -0.1276 -0.1088  0.3286
 5153W        W 7353   7.602   4.226  13.676  0.2533  0.0847  0.0641
 5154W        W 7354   5.122   2.744  28.499  0.0785 -0.2178 -0.0662
 5155W        W 7355   4.148   0.418  30.654 -0.1508  0.1236 -0.1999
 5156W        W 7356  14.266   6.396  23.706  0.1407 -0.2380  0.1677
 5157W        W 7357   7.877   1.811  23.056 -0.0463 -0.3313 -0.0293
 5158W        W 7358  19.250   0.476   8.769  0.0180 -0.0040  0.0522
 5159W        W 7359  24.071   0.821  19.216  0.0427  0.3384  0.0344
 5160W        W 7360   8.955   7.158  14.911  0.0121 -0.2265 -0.0551
 5161W        W 7361   5.850   1.330   2.687  0.0011  0.0429  0.0797
 5162W        W 7362   1.089   3.590   2.861  0.1217  0.1010  0.1141
 5163W        W 7363  17.475   4.278   3.419 -0.0075 -0.3546  0.0669
 5164W        W 7364  19.541   2.575   4.856  0.1593 -0.3238 -0.2409
 5165W        W 7365  12.769   5.792  25.450  0.3100 -0.0772  0.0705
 5166W        W 7366  21.264   7.015  16.811 -0.1083  0.1714 -0.0168
 5167W        W 7367  20.080   5.257   0.695 -0.1713  0.0004 -0.0016
 5168W        W 7368  20.619   2.492  26.152  0.0444  0.0850  0.0586
 5169W        W 7369  19.245   4.029  30.505 -0.2165 -0.4160  0.1681
 5170W        W 7370   0.298   4.540   5.720 -0.0025 -0.3007 -0.1546
 5171W        W 7371  22.619   7.342  25.614 -0.0757  0.3282 -0.0126
 5172W        W 7372  18.598   6.168  31.818 -0.1355  0.3568  0.2012
 5173W        W 7373   6.040   2.203  16.731 -0.0227  0.1832 -0.0616
 5174W        W 7374  10.953   1.192   5.975  0.0062 -0.0981  0.1909
 5175W        W 7375  21.993   5.870  14.428 -0.0220 -0.0216 -0.0141
 5176W        W 7376  21.072   3.783  20.278  0.0087  0.1106 -0.1166
 5177W        W 7377   6.720   4.587   5.999  0.1178  0.0848 -0.2197
 5178W        W 7378   3.021   6.233   7.486  0.0102  0.1249 -0.1118
 5179W        W 7379  18.278   3.086   5.480 -0.0820 -0.2887 -0.1349
 5180W        W 7380  13.175   5.837  24.756 -0.0250 -0.1015 -0.3786
 5181W        W 7381   6.806   4.673  16.464 -0.1837  0.0094  0.2826
 5182W        W 7382   1.184   2.092  25.371 -0.1405  0.2865 -0.0902
 5183W        W 7383  13.564   7.672  25.256 -0.0306  0.3865  0.2907
 5184W        W 7384   3.210   7.808  23.875  0.1152 -0.1277 -0.1128
 5185W        W 7385  11.690   4.021  24.755 -0.4871 -0.0187  0.1348
 5186W        W 7386  21.862   0.837  17.458  0.2671 -0.2841 -0.0273
 5187W        W 7387  20.750   6.966  27.980 -0.2631 -0.2029 -0.0489
 5188W        W 7388  18.121   1.328  24.383  0.0579  0.1571  0.0606
 5189W        W 7389  24.570   6.150  24.970  0.2602 -0.0517 -0.1243
 5190W        W 7390  18.833   4.685  18.166 -0.0449  0.4019  0.2893
 5191W        W 7391   4.918   0.660   6.008  0.1048  0.1827 -0.0927
 5192W        W 7392  17.734   2.231   5.779  0.0794  0.3312 -0.0666
 5193W        W 7393   7.570   6.687   9.415  0.1718  0.1288 -0.1854
 5194W        W 7394  24.188   5.527   9.993  0.2136 -0.0918  0.2052
 5195W        W 7395   3.602   4.318  21.498  0.2551 -0.0529  0.2886
 5196W        W 7396  18.477   1.073   4.113  0.3063  0.2166  0.2743
 5197W        W 7397  13.028   4.098  27.903 -0.0461 -0.0441 -0.2638
 5198W        W 7398  21.686   3.713   8.553  0.1173 -0.0270 -0.3438
 5199W        W 7399   6.265   6.936  26.400  0.0819 -0.0882  0.1114
 5200W        W 7400  20.755   4.343  23.500  0.2049  0.2906  0.1627
 5201W        W 7401   4.531   7.299  14.365 -0.1771 -0.1671 -0.2404
 5202W        W 7402   5.343   7.000  10.331 -0.0458 -0.1341 -0.1313
 5203W        W 7403  23.583   4.112   9.799 -0.0239  0.1243  0.1977
 5204W        W 7404   9.300   2.382   7.966  0.0192 -0.1083  0.1096
 5205W        W 7405   7.264   1.638  26.334  0.0231  0.2205 -0.1264
 5206W        W 7406  12.949   3.649   2.185  0.0752  0.0252 -0.2277
 5207W        W 7407   6.769   4.492  10.078  0.3310 -0.2835  0.0066
 5208W        W 7408   6.946   2.301   0.652 -0.0099 -0.1971  0.2399
 5209W        W 7409   0.576   5.418  17.861  0.0118  0.1267  0.3731
 5210W        W 7410   4.564   2.099  23.363  0.0477  0.2628 -0.1257
 5211W        W 7411  22.886   6.793  22.024  0.1205  0.1653  0.0502
 5212W        W 7412  18.801   4.721   9.120  0.2979 -0.0320 -0.2406
 5213W        W 7413  10.066   1.992  26.054 -0.1596 -0.1700 -0.2025
 5214W        W 7414  13.869   2.373   1.851 -0.3694 -0.3603 -0.0922
 5215W        W 7415  13.437   6.763  30.930 -0.1843 -0.3558 -0.0238
 5216W        W 7416  22.441   7.004  30.678 -0.0995 -0.0451  0.2556
 5217W        W 7417   3.784   6.795   9.043  0.0974 -0.0596  0.2822
 5218W        W 7418   2.877   1.645  32.627  0.0496  0.1457  0.0619
 5219W        W 7419  24.750   1.346   0.738 -0.0317  0.0982 -0.1549
 5220W        W 7420  22.035   7.602  24.115 -0.0433  0.1173  0.0844
 5221W        W 7421  22.663   3.971   3.210 -0.3309  0.3399  0.0804
 5222W        W 7422   8.373   2.980  24.176 -0.4100 -0.1824  0.2552
 5223W        W 7423  11.596   1.554  26.987 -0.1368  0.1950  0.1682
 5224W        W 7424   5.511   4.241   0.183  0.1645 -0.0531  0.0684
 5225W        W 7425   6.001   2.370  10.954  0.0452 -0.1998 -0.1209
 5226W        W 7426  22.195   4.373   8.830 -0.0372 -0.0993 -0.0089
 5227W        W 7427  13.793   4.137  21.216 -0.2088 -0.2804  0.2231
 5228W        W 7428   9.530   0.754  29.389  0.3482  0.2068 -0.3958
 5229W        W 7429   7.529   4.277  17.220  0.1196 -0.2131  0.1707
 5230W        W 7430   7.423   7.552  24.454 -0.0271  0.1938 -0.0197
 5231W        W 7431   5.415   3.570  11.183  0.1297 -0.0339 -0.1912
 5232W        W 7432  11.217   7.050  22.693  0.0940 -0.1909  0.1573
 5233W        W 7433  10.819   4.624  28.244 -0.0127 -0.3212  0.0869
 5234W        W 7434   1.275   7.786   3.643  0.0143  0.1377 -0.0407
 5235W        W 7435   5.250   3.601  13.998  0.0393 -0.0364 -0.4138
 5236W        W 7436   5.926   4.862  13.044  0.1271 -0.4288  0.1050
 5237W        W 7437   4.725   3.374   8.326  0.1640 -0.1825  0.0628
 5238W        W 7438  14.789   1.472  24.563 -0.0153  0.2987 -0.0121
 5239W        W 7439  13.312   4.918   4.448  0.1713 -0.0366  0.3148
 5240W        W 7440   2.231   6.621   9.907  0.0518  0.0443  0.1473
 5241W        W 7441  13.553   2.132  32.148 -0.0892 -0.1068  0.2714
 5242W        W 7442   1.246   1.089   4.347 -0.2766  0.0812 -0.2661
 5243W        W 7443  24.839   2.601   7.068  0.1668  0.2065 -0.1791
 5244W        W 7444  16.194   2.094  31.981 -0.0008 -0.0141 -0.1581
 5245W        W 7445   4.574   1.078   2.789 -0.2218  0.1395  0.1332
 5246W        W 7446  21.669   4.626  23.325 -0.3818  0.2117  0.3742
 5247W        W 7447   9.202   5.678   2.917 -0.1586 -0.2395  0.2692
 5248W        W 7448   4.617   6.460  30.380  0.1432 -0.2960 -0.1629
 5249W        W 7449  18.738   7.493  18.296 -0.0243  0.0807  0.2299
 5250W        W 7450   3.768   3.929  25.127 -0.0430  0.0893 -0.2128
 5251W        W 7451   7.053   7.483  17.659 -0.0294 -0.0482 -0.2944
 5252W        W 7452  21.632   5.753   8.243 -0.0977 -0.2217  0.2882
 5253W        W 7453  10.650   6.673   5.985 -0.0093 -0.1233  0.2060
 5254W        W 7454  16.819   5.741  24.501 -0.2804  0.1461 -0.1093
 5255W        W 7455   3.232   3.622   6.030 -0.0068  0.0966  0.1566
 5256W        W 7456  21.632   4.750   9.482  0.0429  0.2304 -0.1985
 5257W        W 7457   4.449   6.549   5.654 -0.0775  0.1336 -0.1669
 5258W        W 7458  18.748   7.546   1.752  0.4023 -0.0653 -0.1574
 5259W        W 7459   5.809   5.132  23.795 -0.2096  0.2294  0.1460
 5260W        W 7460  14.691   7.262  24.823 -0.1940  0.1338  0.0265
 5261W        W 7461   7.122   0.413   4.713  0.1561 -0.0937 -0.0590
 5262W        W 7462  10.167   0.653  13.363  0.1866  0.1863 -0.2423
 5263W        W 7463  18.600   6.497  27.483 -0.2874 -0.0102  0.0793
 5264W        W 7464  17.177   5.131  20.016 -0.1110  0.0088  0.0642
 5265W        W 7465   0.171   6.635  22.215  0.0288  0.0462 -0.0700
 5266W        W 7466   7.734   6.665  26.472  0.3496 -0.3921 -0.2928
 5267W        W 7467   9.921   4.962  25.562 -0.1259 -0.0199  0.1456
 5268W        W 7468  11.335   2.547  26.833 -0.0455  0.0770 -0.0987
 5269W        W 7469   0.813   3.869   9.287  0.1083  0.1424 -0.0072
 5270W        W 7470  10.375   0.388  23.164  0.0428 -0.0468 -0.1044
 5271W        W 7471  11.509   0.029  25.816  0.1742  0.4060  0.1834
 5272W        W 7472  24.883   0.027   5.668  0.1559 -0.3084  0.0295
 5273W        W 7473   0.638   3.514  26.371  0.1956 -0.1181 -0.0371
 5274W        W 7474  11.522   6.730  22.840  0.0464  0.0755  0.1124
 5275W        W 7475   7.552   2.067  26.804  0.2822 -0.0700 -0.4351
 5276W        W 7476  17.353   2.098  10.599  0.0091  0.3887  0.0452
 5277W        W 7477   3.569   4.620   4.994 -0.2146 -0.1845 -0.0094
 5278W        W 7478  17.268   3.745  29.238  0.3319 -0.1116 -0.3761
 5279W        W 7479  12.982   3.395   0.712  0.0735  0.1210  0.1545
 5280W        W 7480   8.796   2.284   0.560 -0.0832 -0.1475 -0.2159
 5281W        W 7481  15.683   6.680  20.993 -0.1334  0.2268  0.0194
 5282W        W 7482   6.402   6.337  23.077  0.1038  0.1787 -0.1239
 5283W        W 7483  12.693   2.745   5.136 -0.4492 -0.1733 -0.1157
 5284W        W 7484   5.043   5.280  10.069  0.0597 -0.0699 -0.1741
 5285W        W 7485  14.045   1.227   1.040  0.1462  0.1988  0.2222
 5286W        W 7486   4.007   1.928  26.065  0.2923  0.0079  0.1407
 5287W        W 7487  18.452   3.715   6.467 -0.1810  0.0469 -0.0522
 5288W        W 7488   0.191   7.656   5.410  0.0349 -0.3278 -0.4481
 5289W        W 7489   4.698   1.503  29.728 -0.0622 -0.0199 -0.4401
 5290W        W 7490  18.457   0.081  31.427 -0.2282  0.1363 -0.0766
 5291W        W 7491  24.647   4.647  24.914 -0.2193 -0.1786  0.3667
 5292W        W 7492  16.411   2.454  26.190 -0.0877  0.0044 -0.0298
 5293W        W 7493  18.318   7.488  16.345  0.2458  0.0436  0.0296
 5294W        W 7494   8.989   7.626  27.977 -0.2176 -0.0379  0.5136
 5295W        W 7495   4.743   3.898   8.514  0.2531  0.1153  0.1576
 5296W        W 7496  23.742   3.128   9.765  0.1581 -0.1781 -0.2752
 5297W        W 7497  20.370   7.132   2.265  0.2191  0.0940 -0.2170
 5298W        W 7498  24.151   0.904  25.950 -0.2185 -0.0472  0.0857
 5299W        W 7499   9.340   7.146   9.299 -0.3792  0.4112  0.1128
 5300W        W 7500   8.079   4.021   4.999 -0.0832  0.0026  0.0308
 5301W        W 7501   4.670   3.190  24.345  0.0615  0.1118  0.1881
 5302W        W 7502  20.882   1.182  22.049  0.0822 -0.0555 -0.3117
 5303W        W 7503  17.321   6.091   7.063  0.1049  0.0011 -0.2439
 5304W        W 7504  16.594   5.468  17.999 -0.3459  0.0085  0.3953
 5305W        W 7505  17.933   1.154   6.348 -0.0042 -0.0683  0.1048
 5306W        W 7506   1.270   6.459   0.760  0.2728 -0.0452 -0.3131
 5307W        W 7507  12.612   4.743   6.891  0.0298  0.0107 -0.0655
 5308W        W 7508  13.102   0.837  11.445 -0.2686  0.0915  0.0671
 5309W        W 7509   4.087   1.769  24.206 -0.2166  0.0190 -0.1301
 5310W        W 7510   5.175   3.842  29.912 -0.1198  0.0956 -0.2240
 5311W        W 7511  19.017   2.891   9.355  0.2198  0.3530  0.1021
 5312W        W 7512  23.190   5.510   2.304  0.1683 -0.0352  0.0438
 5313W        W 7513  17.018   6.568   7.843  0.2030 -0.3476  0.2031
 5314W        W 7514  13.640   0.326  23.537  0.2615  0.1183 -0.0489
 5315W        W 7515   1.198   1.824  27.393 -0.0568 -0.2487 -0.0041
 5316W        W 7516   9.022   1.701   4.183 -0.1358  0.0631  0.0943
 5317W        W 7517   5.778   4.478  12.472  0.0413 -0.0807  0.3329
 5318W        W 7518  16.344   5.331  31.428 -0.1779 -0.0274  0.2248
 5319W        W 7519  12.551   7.221  27.653  0.0397  0.0491 -0.0794
 5320W        W 7520   4.885   0.118  15.528  0.2942  0.1262 -0.1227
 5321W        W 7521   8.915   5.578  24.037  0.2334  0.0011  0.0102
 5322W        W 7522  13.865   5.202  21.658 -0.1412  0.0785 -0.0026
 5323W        W 7523  19.706   3.669   5.149  0.0860 -0.1810  0.0106
 5324W        W 7524  16.807   1.148  27.372  0.4080 -0.1926 -0.3001
 5325W        W 7525  22.270   7.216  21.289  0.2359  0.0214 -0.0638
 5326W        W 7526   9.022   3.513   2.324  0.1628  0.0285  0.0077
 5327W        W 7527   8.057   2.144   4.250  0.0264  0.0990  0.0119
 5328W        W 7528   1.449   2.317   8.532 -0.1490 -0.2361 -0.0823
 5329W        W 7529   6.968   5.549   7.030  0.0460  0.1964 -0.2216
 5330W        W 7530  10.066   6.751   1.908  0.0615  0.0082 -0.2624
 5331W        W 7531  16.503   3.258  22.866  0.0266 -0.0159  0.0617
 5332W        W 7532  13.951   2.819  13.822  0.2306 -0.0763  0.0277
 5333W        W 7533  11.656   7.811  15.631 -0.1352 -0.2027  0.1019
 5334W        W 7534  24.166   5.586   6.204 -0.2767  0.0609 -0.2426
 5335W        W 7535  12.783   3.791   5.123 -0.0455  0.0302  0.0248
 5336W        W 7536  18.836   7.647  19.626 -0.0400  0.0677 -0.1286
 5337W        W 7537  17.949   2.196  22.644 -0.0750 -0.1752 -0.0700
 5338W        W 7538  18.356   6.449  15.720 -0.1661 -0.2485 -0.1400
 5339W        W 7539   4.902   4.243   9.888  0.1851  0.1414  0.1527
 5340W        W 7540  19.329   7.175  20.074 -0.0334  0.1044 -0.3776
 5341W        W 7541  23.962   6.219   5.928  0.2991  0.1730  0.2241
 5342W        W 7542   6.147   5.868  16.405 -0.1332 -0.0891 -0.1309
 5343W        W 7543  17.669   0.634  24.027  0.0057 -0.0949  0.1156
 5344W        W 7544   3.266   3.201   7.607  0.0275 -0.1355  0.2615
 5345W        W 7545  24.894   4.361   5.663 -0.1642 -0.4015 -0.3052
 5346W        W 7546   9.318   1.889  27.344 -0.0388  0.0713 -0.1083
 5347W        W 7547  11.424   4.591  17.297  0.1377 -0.0041 -0.0589
 5348W        W 7548  20.204   6.168  29.110  0.2301  0.1714  0.3920
 5349W        W 7549   1.551   5.152   6.615 -0.1040  0.0500 -0.1450
 5350W        W 7550  21.217   4.414  18.036 -0.0927  0.0805  0.3641
 5351W        W 7551   4.062   0.894  11.257  0.0035 -0.0544  0.1360
 5352W        W 7552  23.744   0.029   3.559 -0.1276  0.3197  0.1777
 5353W        W 7553   8.003   7.238  13.114 -0.1428  0.1459  0.2128
 5354W        W 7554   2.392   5.119   7.239  0.1145 -0.1222 -0.0979
 5355W        W 7555   7.631   2.113  30.017 -0.1897  0.1420  0.2209
 5356W        W 7556  13.401   3.034  29.181 -0.0108  0.1398 -0.1689
 5357W        W 7557  18.501   0.821   8.670  0.3041  0.0617  0.0269
 5358W        W 7558  24.789   5.229  17.491 -0.4237 -0.0187 -0.1989
 5359W        W 7559   8.977   3.878  11.683  0.3741  0.3267 -0.0932
 5360W        W 7560   3.823   6.066  27.481 -0.0181 -0.0678 -0.0599
 5361W        W 7561  16.628   5.499  22.452  0.4062  0.2434 -0.1259
 5362W        W 7562  22.799   1.127  28.873 -0.1345  0.0355 -0.0682
 5363W        W 7563   9.439   6.955  14.705  0.1521 -0.2133 -0.3347
 5364W        W 7564   9.169   2.698   0.533 -0.0080  0.1675  0.0189
 5365W        W 7565   6.321   0.222   9.096 -0.0457 -0.0846 -0.0030
 5366W        W 7566  14.188   0.900   0.714  0.0405  0.2927 -0.0945
 5367W        W 7567  21.090   0.984   3.689 -0.0350  0.3746 -0.1326
 5368W        W 7568  23.743   7.323   4.888  0.0828  0.0177  0.1415
 5369W        W 7569   1.653   0.507   7.825 -0.0267 -0.2134 -0.0895
 5370W        W 7570  20.155   0.594   5.829 -0.0863 -0.0288  0.3631
 5371W        W 7571   7.069   0.644  15.973 -0.1275 -0.0657 -0.0513
 5372W        W 7572  14.199   5.890   4.776  0.2913 -0.1079  0.0859
 5373W        W 7573  22.206   6.854  27.000  0.1277  0.1813  0.1946
 5374W        W 7574  22.898   4.693  19.649  0.1954  0.0532 -0.0085
 5375W        W 7575  17.835   7.223   0.859  0.0664  0.3382  0.2466
 5376W        W 7576   9.019   3.257  29.350 -0.1781  0.1839 -0.0579
 5377W        W 7577  13.894   1.065  25.468 -0.1943 -0.2073  0.3175
 5378W        W 7578   5.029   4.406  24.455 -0.1502 -0.1973  0.1298
 5379W        W 7579   4.202   1.174  10.459 -0.1619  0.1925  0.1600
 5380W        W 7580   2.785   4.186  12.181 -0.0759  0.2374  0.2987
 5381W        W 7581  16.419   0.070  27.326  0.0526  0.1172 -0.0640
 5382W        W 7582   3.177   7.761  10.646  0.2259  0.2696  0.1878
 5383W        W 7583  13.745   3.886   0.582  0.0320  0.1196  0.0133
 5384W        W 7584  24.601   1.699  23.264 -0.1378  0.0039  0.2004
 5385W        W 7585  20.238   0.870   3.501 -0.0473 -0.1044 -0.1662
 5386W        W 7586  24.179   6.483   1.754 -0.0716  0.2281  0.0198
 5387W        W 7587   3.553   3.213  26.429 -0.0831  0.1527  0.0026
 5388W        W 7588  18.178   2.322   3.114 -0.2638 -0.0780 -0.1935
 5389W        W 7589  23.091   7.123  15.683 -0.3422 -0.1481  0.1833
 5390W        W 7590   1.860   7.394   8.075  0.3647  0.0281  0.1344
 5391W        W 7591  13.646   4.537  27.511 -0.1816 -0.1141 -0.1027
 5392W        W 7592  17.717   0.600  19.442 -0.0080 -0.0988  0.0438
 5393W        W 7593  23.685   0.916   9.206 -0.0930 -0.1319  0.0336
 5394W        W 7594  10.155   0.579   6.754 -0.2301 -0.0847 -0.1637
 5395W        W 7595   0.843   3.796  23.769 -0.0782  0.0133  0.0122
 5396W        W 7596  10.711   4.143  29.181 -0.2206 -0.3330 -0.2243
 5397W        W 7597  21.448   5.023  28.802 -0.0780 -0.2446 -0.2477
 5398W        W 7598  22.234   2.781  30.339 -0.0810  0.1954 -0.1539
 5399W        W 7599  18.291   6.452   9.028 -0.1743  0.3145  0.3090
 5400W        W 7600  17.488   3.633  27.931 -0.2525 -0.0416 -0.1153
 5401W        W 7601  12.784   3.425   8.564  0.3806 -0.5539  0.0579
 5402W        W 7602  20.617   4.981  16.716  0.3701 -0.0101  0.0768
 5403W        W 7603   5.957   6.595  24.654 -0.2552 -0.4874  0.2298
 5404W        W 7604  18.766   1.721  27.111 -0.2571  0.0232 -0.2886
 5405W        W 7605   8.271   1.212   4.575  0.0599  0.0554 -0.0377
 5406W        W 7606  11.793   7.109  26.242  0.1997  0.2420 -0.2329
 5407W        W 7607  14.216   4.773  25.577  0.0136  0.0686  0.1168
 5408W        W 7608  24.412   1.042  20.022  0.0164 -0.2432  0.0847
 5409W        W 7609   1.203   0.025   6.403  0.3216  0.1498  0.1220
 5410W        W 7610   9.268   3.889   4.867  0.0251 -0.1331 -0.2140
 5411W        W 7611  14.948   2.494   6.384 -0.0322 -0.3322 -0.2644
 5412W        W 7612   8.097   5.226   3.332 -0.0456 -0.3888  0.1069
 5413W        W 7613  19.708   2.383   8.453  0.0363 -0.2021 -0.0605
 5414W        W 7614  23.538   1.630  20.277  0.1878  0.0377  0.2459
 5415W        W 7615  24.377   2.640  28.969 -0.3423  0.0837  0.2217
 5416W        W 7616  11.442   3.518   1.881 -0.2230  0.1836 -0.2620
 5417W        W 7617   8.320   4.091   2.024  0.1234 -0.2015  0.0017
 5418W        W 7618   0.499   2.666  31.243  0.0426 -0.0069  0.1331
 5419W        W 7619   7.342   7.803  13.315  0.2878  0.2035  0.0634
 5420W        W 7620   8.495   2.852  17.234  0.0609  0.0862 -0.3908
 5421W        W 7621  22.870   0.677  19.712  0.1961 -0.0068 -0.2347
 5422W        W 7622   8.301   1.680  29.459  0.2343  0.0478 -0.3317
 5423W        W 7623   2.303   3.549   3.966 -0.1774 -0.1754  0.1152
 5424W        W 7624  23.973   5.554  19.531 -0.0834  0.1352 -0.1853
 5425W        W 7625   2.168   7.643  19.763 -0.0718 -0.0830  0.0312
 5426W        W 7626  13.763   6.794   0.020 -0.2233 -0.0160  0.1698
 5427W        W 7627  12.135   1.923   2.587  0.0179 -0.0841 -0.1042
 5428W        W 7628  13.540   6.411  28.518 -0.0323  0.1094  0.0161
 5429W        W 7629   1.869   4.363   7.256  0.2878 -0.2501 -0.4327
 5430W        W 7630  23.033   6.560  24.065 -0.0733  0.1782 -0.2546
 5431W        W 7631  24.845   7.209  31.574 -0.4259  0.0647  0.1186
 5432W        W 7632  20.090   3.798   8.960 -0.0391  0.1988  0.2579
 5433W        W 7633  19.965   1.893   0.424  0.1671 -0.0324  0.2545
 5434W        W 7634  19.861   2.294  26.334 -0.0443 -0.0036 -0.1579
 5435W        W 7635  16.443   7.769  19.783  0.0583  0.0061  0.1185
 5436W        W 7636  24.343   4.608   9.611 -0.0060 -0.0015  0.2497
 5437W        W 7637  20.572   4.923  18.018  0.2235 -0.2150  0.2049
 5438W        W 7638  15.277   3.605  10.426  0.2444 -0.0627  0.0511
 5439W        W 7639  24.963   4.264  18.526 -0.0768  0.2024  0.0103
 5440W        W 7640   8.652   7.184   3.690  0.0179  0.0392 -0.0746
 5441W        W 7641  13.827   2.410  22.517  0.3215  0.0422  0.3261
 5442W        W 7642  10.939   1.679   3.838 -0.1934 -0.0786  0.1185
 5443W        W 7643  15.318   0.543  29.531 -0.0371  0.0833 -0.1979
 5444W        W 7644  13.858   4.899  23.748  0.2087 -0.1108 -0.0096
 5445W        W 7645  17.444   6.236   4.733  0.1742 -0.0831 -0.2010
 5446W        W 7646  24.478   7.542  27.094  0.0351 -0.0778  0.1486
 5447W        W 7647   8.943   0.065   8.278 -0.3386  0.0658  0.5488
 5448W        W 7648   8.831   0.754   8.206  0.0799 -0.1234 -0.0935
 5449W        W 7649   8.766   6.842  13.878 -0.0304 -0.1441  0.0982
 5450W        W 7650  21.972   5.154   3.636  0.1800 -0.0855  0.1239
 5451W        W 7651   5.386   7.767  12.203  0.1475 -0.1395 -0.0619
 5452W        W 7652   0.501   2.426  18.872  0.0769  0.1572  0.2841
 5453W        W 7653   3.438   2.183   2.798  0.3102  0.0116  0.0437
 5454W        W 7654  14.948   6.971   5.406 -0.1545 -0.0832 -0.0982
 5455W        W 7655  10.312   0.455   2.229  0.3701  0.3480  0.2122
 5456W        W 7656   2.133   2.790  27.265 -0.2938  0.1394 -0.1128
 5457W        W 7657   6.290   4.206  29.419 -0.0108 -0.0806  0.1859
 5458W        W 7658  18.276   3.239   6.426  0.2464 -0.4721  0.0359
 5459W        W 7659  18.180   5.779   6.638 -0.0538 -0.0613  0.0545
 5460W        W 7660  23.535   7.095  29.163  0.1988 -0.2557  0.2781
 5461W        W 7661   0.819   7.672  25.554 -0.0499  0.3818  0.0543
 5462W        W 7662  17.345   5.355   7.343  0.0599 -0.0423  0.0469
 5463W        W 7663   2.236   4.018  30.544 -0.0696 -0.3493  0.2041
 5464W        W 7664  16.480   1.689  22.089 -0.0549 -0.2021 -0.1443
 5465W        W 7665  14.687   7.793  21.187  0.0179  0.0053  0.4049
 5466W        W 7666  16.923   3.047  23.003  0.2300  0.0422  0.0709
 5467W        W 7667   5.480   5.467   4.837  0.0995 -0.2661  0.1636
 5468W        W 7668  16.113   2.182  20.069  0.0951  0.1070 -0.1485
 5469W        W 7669  23.531   2.281  28.556 -0.0378  0.0604  0.1397
 5470W        W 7670  18.423   4.807   8.006  0.1396 -0.1675  0.0945
 5471W        W 7671   9.818   2.573  29.797  0.1574 -0.1389 -0.1810
 5472W        W 7672  24.382   0.357   5.611  0.3321 -0.2245 -0.0740
 5473W        W 7673  17.771   5.302  24.001  0.0469 -0.0687  0.1798
 5474W        W 7674  14.000   1.896  22.668 -0.3257  0.0061  0.0760
 5475W        W 7675   4.220   6.557  28.639 -0.2366 -0.0059  0.1805
 5476W        W 7676   9.738   1.006  18.613 -0.0059  0.2552 -0.2048
 5477W        W 7677  14.580   7.420  32.699  0.2219  0.1553 -0.1593
 5478W        W 7678   8.768   0.314  30.929 -0.1874 -0.1702  0.1445
 5479W        W 7679  19.822   3.526   6.999  0.2600  0.0623  0.1693
 5480W        W 7680   9.614   2.982  27.199 -0.1062  0.1945  0.2995
 5481W        W 7681   9.613   2.929   2.248 -0.1678  0.1525 -0.0253
 5482W        W 7682   5.795   6.540  15.865  0.0487  0.0613  0.0865
 5483W        W 7683   2.008   4.572  10.409 -0.3020 -0.0115 -0.2328
 5484W        W 7684   8.293   7.514  29.649  0.2275  0.0977 -0.1620
 5485W        W 7685   5.135   6.220   9.000 -0.0575  0.1329  0.2119
 5486W        W 7686  10.248   3.990   5.430  0.0122 -0.1180 -0.1191
 5487W        W 7687  12.747   4.721  12.818  0.3099  0.1589  0.1294
 5488W        W 7688  17.514   7.140  28.183  0.0675  0.0894  0.0045
 5489W        W 7689   3.472   6.567   4.101 -0.3757 -0.0083  0.4402
 5490W        W 7690  21.682   5.727  24.656 -0.1057 -0.0405  0.0302
 5491W        W 7691   0.252   5.730   4.210 -0.3123  0.0233 -0.1277
 5492W        W 7692  21.481   6.577  26.501  0.0322 -0.2376 -0.0579
 5493W        W 7693   7.418   5.425   4.800  0.1760  0.0903 -0.1468
 5494W        W 7694  18.191   5.915  15.187 -0.1673 -0.0721 -0.1339
 5495W        W 7695  11.409   3.619  32.330  0.0399 -0.3663 -0.1117
 5496W        W 7696  19.152   2.122  22.649  0.0019 -0.0631  0.2784
 5497W        W 7697  20.003   0.017  20.020  0.2586  0.0676 -0.2969
 5498W        W 7698   5.603   4.398   6.117 -0.1769 -0.0785  0.1421
 5499W        W 7699   5.348   1.782  13.689 -0.0143  0.1102  0.0759
 5500W        W 7700  18.219   5.548   4.657  0.1609 -0.1428  0.0502
 5501W        W 7701  12.618   6.797  29.569  0.1289  0.1754  0.1300
 5502W        W 7702   7.960   3.857  15.532 -0.2572  0.0519 -0.0187
 5503W        W 7703  18.705   5.584   9.304 -0.0090  0.0407  0.0580
 5504W        W 7704   3.683   1.699  20.749  0.2329 -0.0476 -0.0888
 5505W        W 7705   0.881   0.355   6.605  0.0488  0.3552  0.0495
 5506W        W 7706   2.301   4.843  11.205  0.3045  0.3541 -0.1625
 5507W        W 7707   1.565   0.142  11.132 -0.0385 -0.2999  0.0038
 5508W        W 7708  15.208   2.595  26.601  0.1674 -0.1327 -0.0165
 5509W        W 7709  17.543   0.750   5.109  0.3104  0.1332  0.0498
 5510W        W 7710  11.920   2.998  16.869  0.0465 -0.2543 -0.1271
 5511W        W 7711   7.221   5.307  11.966 -0.2309  0.0793 -0.2546
 5512W        W 7712  10.534   0.682   5.345  0.1365  0.1408  0.0961
 5513W        W 7713  24.958   6.282  20.007 -0.0589  0.0650  0.1598
 5514W        W 7714   4.363   4.199  32.000 -0.3542 -0.0764  0.0825
 5515W        W 7715  13.445   5.127   6.413 -0.1606 -0.0497 -0.1317
 5516W        W 7716   1.993   4.707  22.327 -0.2300  0.0129  0.2343
 5517W        W 7717  22.545   4.948  32.371  0.2637 -0.0336  0.0024
 5518W        W 7718  17.440   4.076   0.729  0.0202 -0.0422 -0.1753
 5519W        W 7719  13.859   1.097  14.191  0.2646  0.2757  0.1723
 5520W        W 7720  10.362   7.234  24.728 -0.3654 -0.0857 -0.1144
 5521W        W 7721   0.691   1.383  28.909  0.2497 -0.2624 -0.1094
 5522W        W 7722   7.831   6.821  23.447  0.1828  0.1726  0.1797
 5523W        W 7723  15.192   6.172  30.848  0.1199  0.1537  0.5167
 5524W        W 7724  11.512   7.219  28.777 -0.4314  0.0284  0.1380
 5525W        W 7725  12.924   5.374  29.940 -0.1660  0.0836 -0.1106
 5526W        W 7726  22.351   3.725   0.926  0.1266  0.0048 -0.1498
 5527W        W 7727   7.323   5.770  24.527  0.1218 -0.4148  0.2085
 5528W        W 7728  10.353   0.911  11.743  0.0182  0.2147  0.0423
 5529W        W 7729   4.653   3.292   9.912  0.3779 -0.2921 -0.1397
 5530W        W 7730  11.499   2.243  24.095 -0.1826  0.1087  0.0334
 5531W        W 7731   6.480   6.661  17.243 -0.1263 -0.0269 -0.2171
 5532W        W 7732  24.745   3.202  25.827 -0.0980  0.1899  0.0697
 5533W        W 7733  12.501   3.166   7.268  0.1014 -0.2744  0.2823
 5534W        W 7734   1.333   6.126  23.590 -0.2923  0.0523  0.0119
 5535W        W 7735  21.326   2.397   3.309 -0.0332 -0.0409 -0.1323
 5536W        W 7736   5.900   7.802   3.883  0.0877 -0.1152 -0.0977
 5537W        W 7737  11.453   3.887   9.141 -0.0802 -0.0044 -0.0508
 5538W        W 7738  10.545   3.034  32.146  0.3733 -0.2781  0.2790
 5539W        W 7739  13.837   6.220  23.516  0.2448 -0.0639  0.2371
 5540W        W 7740  23.630   0.777   6.381  0.2870  0.1000 -0.1504
 5541W        W 7741   3.528   2.924  23.778  0.0145  0.0484  0.3960
 5542W        W 7742   2.094   1.556  19.854  0.1132 -0.0418  0.0305
 5543W        W 7743   6.581   0.135  12.302 -0.0485  0.3254 -0.2904
 5544W        W 7744   8.582   1.982  26.159 -0.0978  0.2111 -0.0967
 5545W        W 7745  21.665   4.611   4.477 -0.1137  0.1562  0.3140
 5546W        W 7746  10.481   2.022  23.161 -0.1652  0.4041 -0.0010
 5547W        W 7747  17.020   6.742   0.516 -0.0647  0.2055 -0.0512
 5548W        W 7748   5.634   4.001   6.404 -0.1561  0.0198  0.0324
 5549W        W 7749   0.184   0.184  22.461  0.0653 -0.1419  0.0250
 5550W        W 7750   2.341   1.449   2.608  0.0219 -0.0220  0.2102
 5551W        W 7751   1.189   2.761  30.015  0.0200 -0.3973 -0.2326
 5552W        W 7752   0.384   4.156   3.477  0.1378  0.0240  0.0426
 5553W        W 7753  23.802   1.192  26.714  0.0940  0.4766  0.0246
 5554W        W 7754  19.847   1.469  28.432  0.0514  0.3832  0.0072
 5555W        W 7755  19.484   6.035  26.533  0.1199  0.0466 -0.0090
 5556W        W 7756   0.784   6.799  10.712 -0.0592 -0.2107 -0.0829
 5557W        W 7757   0.693   1.289  20.934  0.1031  0.0277 -0.0373
 5558W        W 7758  10.057   1.337  15.611  0.0794  0.1247  0.1500
 5559W        W 7759  11.587   0.252  16.079 -0.2080 -0.0324 -0.2054
 5560W        W 7760  20.580   0.035  17.416  0.1017  0.2109  0.4481
 5561W        W 7761  13.532   6.565  31.368  0.1017  0.0582  0.0788
 5562W        W 7762   6.335   6.935  27.272  0.1235  0.1089 -0.0466
 5563W        W 7763   9.284   3.040  25.989  0.2554  0.0434  0.1445
 5564W        W 7764  24.384   7.602   7.625  0.2197  0.0890  0.1187
 5565W        W 7765   6.879   1.717  22.831 -0.0281 -0.0148  0.5267
 5566W        W 7766   5.132   5.278  29.741  0.2718  0.1137  0.2454
 5567W        W 7767  17.228   2.665   9.215 -0.3055  0.1269 -0.2690
 5568W        W 7768  24.184   0.055  18.857 -0.0539  0.0265 -0.3920
 5569W        W 7769  24.964   5.625  28.875 -0.3024  0.0821  0.2029
 5570W        W 7770  13.146   5.082   3.497  0.0410  0.3767 -0.0994
 5571W        W 7771  22.643   0.507  17.750  0.1079  0.0942 -0.2077
 5572W        W 7772  11.697   6.205  12.403 -0.0795 -0.0369  0.2029
 5573W        W 7773  14.361   3.159   3.803 -0.0469  0.1608  0.0450
 5574W        W 7774  15.312   0.058  29.575  0.2682 -0.0973 -0.1213
 5575W        W 7775   7.992   3.604  26.359 -0.0487 -0.1768  0.1093
 5576W        W 7776  15.184   4.917   8.952  0.0587 -0.0845 -0.0380
 5577W        W 7777  21.288   2.273   0.098 -0.1609  0.0960 -0.2472
 5578W        W 7778   0.615   7.183   2.493  0.0967 -0.1048 -0.1726
 5579W        W 7779  23.357   2.611  15.166  0.0849  0.0988  0.1015
 5580W        W 7780   9.262   6.831   6.112  0.1532  0.0468 -0.3296
 5581W        W 7781  16.828   1.477  28.924  0.0186  0.0597 -0.0930
 5582W        W 7782  22.263   4.548   7.712  0.1529  0.0223  0.2872
 5583W        W 7783   8.289   1.023  14.838  0.2957 -0.2819  0.0754
 5584W        W 7784  18.062   2.404  31.959 -0.0309 -0.0741 -0.1988
 5585W        W 7785   3.904   6.000   3.763 -0.0717 -0.0175 -0.0056
 5586W        W 7786   8.429   0.826  11.369 -0.1030 -0.3096 -0.1123
 5587W        W 7787  23.321   1.781  28.670 -0.0134 -0.2500  0.1284
 5588W        W 7788  22.160   7.220   9.120 -0.0560  0.2041 -0.0582
 5589W        W 7789  11.357   2.107  15.812  0.3180 -0.1150 -0.0019
 5590W        W 7790   8.295   3.677  16.234  0.0351 -0.1234  0.2866
 5591W        W 7791  19.162   6.697  17.114  0.1410  0.0444 -0.0945
 5592W        W 7792   0.921   2.292  20.545 -0.0856  0.2357 -0.0703
 5593W        W 7793  14.851   3.235  21.896 -0.0929  0.4202  0.2802
 5594W        W 7794   6.466   6.470  30.414  0.0299  0.0972 -0.1368
 5595W        W 7795  22.528   0.501   2.835 -0.2922  0.1801  0.0566
 5596W        W 7796  24.932   0.610  25.149 -0.2380  0.1527  0.3501
 5597W        W 7797  15.349   7.165   3.329  0.0050 -0.0286 -0.1973
 5598W        W 7798  14.108   5.748   6.441  0.1630 -0.1992 -0.3371
 5599W        W 7799  10.539   7.683  30.949  0.1609 -0.0707 -0.1994
 5600W        W 7800  12.320   3.587   6.415  0.0065 -0.3622  0.1416
 5601W        W 7801   6.276   5.232   9.466  0.0927  0.0416 -0.0353
 5602W        W 7802   4.683   5.748  11.471  0.2919  0.2040 -0.1863
 5603W        W 7803   9.747   2.237  30.905  0.2517 -0.0596 -0.0147
 5604W        W 7804  12.818   5.280   5.782  0.0524 -0.0106 -0.1282
 5605W        W 7805  24.677   6.989   0.591  0.1138 -0.2653 -0.0429
 5606W        W 7806  16.014   5.226  26.545  0.1022  0.0976  0.0176
 5607W        W 7807  18.406   1.929   6.236 -0.1277  0.0642 -0.2927
 5608W        W 7808  15.195   0.217   2.264 -0.2009  0.0833  0.0114
 5609W        W 7809  17.858   4.991   2.804  0.3056 -0.0887  0.1120
 5610W        W 7810  13.530   2.788   0.641  0.0424  0.2106  0.3688
 5611W        W 7811   1.410   4.116   7.105 -0.2363  0.0095  0.2691
 5612W        W 7812  20.062   3.711  24.627 -0.2127 -0.4277  0.1846
 5613W        W 7813   4.284   3.846  22.027  0.3761 -0.0545 -0.0564
 5614W        W 7814  24.674   2.633  25.823 -0.3539 -0.1212  0.1209
 5615W        W 7815   2.332   7.170   3.187 -0.1925  0.1047  0.0062
 5616W        W 7816   9.849   2.214   8.073  0.2822 -0.0775  0.2175
 5617W        W 7817  21.695   6.102  25.541  0.0663  0.4001 -0.1764
 5618W        W 7818   8.792   6.670  13.186 -0.2155 -0.2277  0.0058
 5619W        W 7819  12.588   0.491   9.908 -0.0980 -0.0277  0.1860
 5620W        W 7820  16.074   5.169   6.034 -0.0094 -0.0964  0.0576
 5621W        W 7821  13.298   4.717   0.122 -0.3345  0.2599 -0.0818
 5622W        W 7822  23.409   4.722  19.432 -0.0555  0.1487  0.4977
 5623W        W 7823   3.607   7.482  12.036  0.2770  0.0079  0.0471
 5624W        W 7824  18.487   1.394   1.574 -0.4303  0.1753  0.1872
 5625W        W 7825   0.970   0.026  19.877 -0.1733  0.0068 -0.2230
 5626W        W 7826   8.311   2.159  23.653  0.0865  0.4212  0.0882
 5627W        W 7827   2.376   0.944  28.851 -0.2027  0.0497  0.0202
 5628W        W 7828   2.184   4.589   6.915  0.0096 -0.1701 -0.1572
 5629W        W 7829  16.947   6.185  17.354 -0.0614  0.1891 -0.1453
 5630W        W 7830  10.019   3.704   0.611 -0.1335  0.2643 -0.3551
 5631W        W 7831  22.436   4.049   4.343  0.0472 -0.1502  0.0010
 5632W        W 7832   4.021   0.109  31.008  0.1050  0.0167 -0.0435
 5633W        W 7833   7.074   2.157  28.509  0.3014  0.0637 -0.2179
 5634W        W 7834  23.849   7.633   7.135 -0.0621 -0.0649  0.0733
 5635W        W 7835   6.819   2.263   2.074  0.1408  0.1556 -0.0616
 5636W        W 7836  14.319   6.042   8.903 -0.0319  0.1147  0.0939
 5637W        W 7837  11.770   7.167  25.093 -0.0175 -0.3434 -0.1510
 5638W        W 7838   6.521   7.268  26.959 -0.2742 -0.1479 -0.1144
 5639W        W 7839  20.419   4.538  29.047 -0.1844 -0.1056  0.0677
 5640W        W 7840  14.878   5.596   5.487  0.0041  0.1470  0.0269
 5641W        W 7841  22.941   4.778   3.926  0.0016 -0.0840  0.0777
 5642W        W 7842  12.276   1.053  22.731 -0.2630  0.2373  0.1001
 5643W        W 7843  14.737   0.725   4.113  0.1569 -0.1141 -0.1132
 5644W        W 7844  11.223   1.047   9.816  0.0611  0.0704  0.0324
 5645W        W 7845  23.428   4.967   3.928 -0.0567 -0.3134  0.1258
 5646W        W 7846   2.714   7.777  29.705  0.0050 -0.1244  0.0361
 5647W        W 7847  24.213   4.777   0.632 -0.0444 -0.1872 -0.4513
 5648W        W 7848   2.492   2.999  32.196  0.1151  0.1812 -0.0016
 5649W        W 7849   8.522   4.763  28.347  0.1402  0.1710 -0.1607
 5650W        W 7850   5.080   2.946   5.867 -0.1171 -0.0034 -0.0722
 5651W        W 7851  16.115   6.390   3.455 -0.0846 -0.0678  0.1198
 5652W        W 7852   9.153   6.031  23.096 -0.1056  0.0348 -0.0828
 5653W        W 7853  24.921   2.383  27.550  0.1290 -0.1024 -0.0341
 5654W        W 7854  24.050   0.601  27.815 -0.0260  0.0251  0.1991
 5655W        W 7855  23.781   0.519   0.171  0.0545  0.2959 -0.2250
 5656W        W 7856  17.968   3.459  28.642 -0.0048 -0.0813  0.1142
 5657W        W 7857   3.651   0.633  11.937 -0.0439 -0.2163 -0.1531
 5658W        W 7858  17.363   7.699  11.822  0.0414  0.0636 -0.1400
 5659W        W 7859  20.672   2.911   2.837  0.3795 -0.0316 -0.2411
 5660W        W 7860   4.204   5.513  22.652 -0.1306 -0.0459 -0.1340
 5661W        W 7861  12.156   2.072  29.156  0.1236  0.0912 -0.3383
 5662W        W 7862   5.153   2.757   4.274  0.2069  0.0071  0.1863
 5663W        W 7863  10.541   0.203  16.017 -0.1090 -0.2330  0.0504
 5664W        W 7864  21.905   0.833  19.375  0.0943  0.0382 -0.1914
 5665W        W 7865  22.354   0.761  15.737 -0.1491  0.3802 -0.1052
 5666W        W 7866  23.687   3.458   5.429 -0.0041  0.1153  0.0738
 5667W        W 7867   6.234   5.079   1.022 -0.1158 -0.1742  0.0767
 5668W        W 7868   8.351   6.004  13.611 -0.0854 -0.2190  0.1105
 5669W        W 7869  10.820   1.788  30.937  0.0721 -0.0924 -0.2874
 5670W        W 7870   9.615   4.651   9.032  0.1161 -0.1296 -0.1218
 5671W        W 7871  23.314   1.152   0.129 -0.1914 -0.2311  0.2495
 5672W        W 7872   9.283   0.503   8.358  0.1987 -0.0767  0.0378
 5673W        W 7873  21.086   3.993  31.773  0.0887 -0.3112  0.3757
 5674W        W 7874  13.599   5.251   6.862  0.0052 -0.1669 -0.0852
 5675W        W 7875   1.230   7.488  22.238 -0.2424  0.2478  0.0776
 5676W        W 7876  24.862   4.645   9.492  0.0095 -0.0034 -0.0085
 5677W        W 7877   3.910   4.851  10.544 -0.0456 -0.0495 -0.1950
 5678W        W 7878  22.016   1.090  32.634  0.3790 -0.3172 -0.2021
 5679W        W 7879   5.756   5.730   3.145  0.1221  0.0192 -0.1128
 5680W        W 7880  15.626   5.138  29.410 -0.1754 -0.0913 -0.0942
 5681W        W 7881  12.878   1.854  10.096  0.0315  0.1946 -0.0308
 5682W        W 7882  17.355   0.708  20.175 -0.0144  0.0358 -0.0036
 5683W        W 7883   8.792   5.833  13.938  0.1412  0.1414 -0.0884
 5684W        W 7884   5.073   7.454   5.641  0.1280  0.1394 -0.2180
 5685W        W 7885  22.198   0.568   4.527  0.0009 -0.1690 -0.1877
 5686W        W 7886  17.095   2.353  22.243  0.1202 -0.2552  0.2749
 5687W        W 7887   9.979   4.625   0.064  0.1717  0.0745 -0.0252
 5688W        W 7888  15.667   2.208  19.774 -0.1021 -0.2985  0.1154
 5689W        W 7889   7.540   6.414  14.430 -0.3678 -0.1182  0.3167
 5690W        W 7890   2.876   4.368   6.287 -0.1993 -0.2636 -0.0304
 5691W        W 7891  14.499   0.017   9.754  0.0585  0.2041 -0.1571
 5692W        W 7892  12.615   5.809   3.071 -0.2233 -0.0646  0.0619
 5693W        W 7893   4.459   4.938  27.082  0.1397 -0.3694  0.0619
 5694W        W 7894  15.719   7.191  24.099 -0.0879 -0.3695  0.3767
 5695W        W 7895  15.574   1.670   8.009 -0.2492  0.3161 -0.0915
 5696W        W 7896  11.477   4.920  25.657 -0.0899  0.2485  0.2122
 5697W        W 7897   2.346   7.754   1.352 -0.0383 -0.1740 -0.0746
 5698W        W 7898   6.949   6.509   0.884  0.2253 -0.1860 -0.3046
 5699W        W 7899   1.380   4.323  18.402 -0.3342  0.1613  0.2638
 5700W        W 7900  21.787   0.779  21.996 -0.1333  0.1279  0.2440
 5701W        W 7901   2.644   7.711  25.660 -0.1180  0.1278 -0.0919
 5702W        W 7902  16.107   4.925   1.297 -0.2206 -0.0271  0.1984
 5703W        W 7903   7.019   2.627  11.541 -0.0799  0.1962 -0.2809
 5704W        W 7904  13.328   5.782  15.567 -0.0437  0.1436  0.1313
 5705W        W 7905  18.851   3.819   8.933  0.2819  0.0638  0.0895
 5706W        W 7906   0.811   0.425   4.448 -0.1368 -0.1559 -0.1856
 5707W        W 7907  17.704   3.404  18.576 -0.2967 -0.1142 -0.3387
 5708W        W 7908   0.701   1.955  25.498 -0.1291 -0.3169 -0.0443
 5709W        W 7909  19.034   7.576  25.059 -0.0480  0.4576  0.0454
 5710W        W 7910   0.157   0.478   7.754 -0.0495 -0.1491  0.0454
 5711W        W 7911  15.663   2.473  32.433 -0.1123  0.0226  0.0063
 5712W        W 7912  13.158   4.363  27.490  0.0528 -0.0561 -0.0613
 5713W        W 7913  15.590   3.164  22.643 -0.0199  0.0435  0.1380
 5714W        W 7914   0.068   6.945   4.242  0.4234 -0.0472  0.1728
 5715W        W 7915   3.331   6.944  30.830  0.0299 -0.0162  0.0864
 5716W        W 7916  20.300   7.606   1.486  0.0242  0.0293 -0.0075
 5717W        W 7917  18.774   5.888  16.897 -0.0796 -0.3805 -0.3818
 5718W        W 7918  23.881   5.636  15.859 -0.1748  0.1471 -0.1949
 5719W        W 7919  16.892   4.251   4.074  0.1296  0.0152 -0.5322
 5720W        W 7920  16.512   6.525   5.965 -0.0080 -0.0986 -0.0354
 5721W        W 7921  19.783   3.593  19.432 -0.0148 -0.4313 -0.0581
 5722W        W 7922  22.092   1.979  29.585 -0.1130 -0.1621  0.1545
 5723W        W 7923  12.465   2.268  24.947 -0.1392  0.1886  0.1148
 5724W        W 7924  20.626   1.608  26.044  0.1763  0.1261 -0.0272
 5725W        W 7925  10.998   2.158   1.814  0.0220  0.1694  0.0462
 5726W        W 7926   7.751   5.016  32.111  0.0836  0.2752 -0.0834
 5727W        W 7927   6.057   2.211   4.632  0.1663 -0.2029  0.0248
 5728W        W 7928  19.458   1.220  29.514 -0.0869 -0.1268 -0.1239
 5729W        W 7929   9.244   3.845  14.601 -0.1754  0.1458 -0.0009
 5730W        W 7930  24.639   5.267   5.692 -0.3185 -0.0352  0.2873
 5731W        W 7931   3.980   4.596  30.429  0.2911 -0.0431  0.0339
 5732W        W 7932   4.122   0.687  13.994  0.3082  0.1619  0.1168
 5733W        W 7933  23.658   3.939   4.332  0.2764 -0.0865 -0.0769
 5734W        W 7934  18.770   5.686  21.727 -0.2198  0.0968 -0.2071
 5735W        W 7935   9.415   0.753  11.671  0.0476  0.4730 -0.1594
 5736W        W 7936  23.952   1.305  16.562 -0.0593 -0.1134 -0.0990
 5737W        W 7937  19.526   1.984  26.031 -0.1351  0.3654  0.1908
 5738W        W 7938   1.596   3.927  25.423 -0.3006 -0.0244 -0.0873
 5739W        W 7939   3.549   1.294   8.274 -0.1465  0.0959 -0.0620
 5740W        W 7940  16.720   2.492   7.686  0.1218 -0.1686  0.1229
 5741W        W 7941  19.358   2.641  30.853 -0.2210  0.0058 -0.1208
 5742W        W 7942   4.500   6.085  29.322  0.1211  0.2495 -0.0902
 5743W        W 7943   6.994   3.093  14.679 -0.2573 -0.0080  0.3623
 5744W        W 7944   0.170   7.303  19.913  0.2201 -0.0886  0.2779
 5745W        W 7945  21.931   5.518  32.417  0.0593 -0.2694 -0.0464
 5746W        W 7946  22.034   6.336  25.267 -0.2546 -0.2309  0.3577
 5747W        W 7947  22.434   3.577  21.058  0.1664 -0.2341  0.1020
 5748W        W 7948  10.340   0.358  32.638  0.0953  0.0770 -0.0736
 5749W        W 7949  22.039   3.067   7.280  0.0214 -0.2930  0.1090
 5750W        W 7950   5.798   5.871  12.088 -0.0069  0.2451 -0.0408
 5751W        W 7951  18.985   4.822  20.058  0.1881 -0.0911 -0.0444
 5752W        W 7952  20.537   7.796  26.997 -0.2288  0.0671 -0.1110
 5753W        W 7953  16.513   7.202  22.703 -0.0442 -0.0256 -0.0150
 5754W        W 7954  15.051   7.232  25.897  0.1286 -0.0684  0.1780
 5755W        W 7955  12.308   2.324  21.740  0.3372  0.0627 -0.0123
 5756W        W 7956  18.893   3.790   1.587 -0.1651 -0.0755 -0.1389
 5757W        W 7957  11.814   2.348   9.429  0.1931  0.2128 -0.0410
 5758W        W 7958  10.353   3.620   0.995 -0.1847 -0.0194  0.2263
 5759W        W 7959   6.852   5.335   4.025 -0.0399 -0.0825 -0.2991
 5760W        W 7960   7.663   1.829   9.349  0.1404  0.0654  0.0275
 5761W        W 7961   4.094   6.046  24.660  0.0294 -0.0795 -0.1900
 5762W        W 7962  15.784   6.237  28.481 -0.3668  0.0113  0.1912
 5763W        W 7963   3.220   1.802  27.335 -0.0208  0.0454 -0.1982
 5764W        W 7964  11.235   0.688   7.736  0.0324  0.0140  0.2835
 5765W        W 7965   8.517   6.359   4.585 -0.0068 -0.2866  0.0283
 5766W        W 7966  10.015   6.261   7.107  0.0056 -0.0315  0.0644
 5767W        W 7967   0.039   7.823  22.890  0.0520  0.0757  0.0483
 5768W        W 7968   8.912   6.412  12.781  0.2926 -0.0163  0.2991
 5769W        W 7969  12.205   4.068  28.821  0.1142 -0.0064  0.0413
 5770W        W 7970  13.117   6.535  24.584  0.1057 -0.2934 -0.0682
 5771W        W 7971   9.358   7.299  26.237  0.0072 -0.5129 -0.0922
 5772W        W 7972  11.468   2.070  14.955  0.2272 -0.0602 -0.0755
 5773W        W 7973  10.752   3.660   6.437 -0.1843  0.1197 -0.1417
 5774W        W 7974   4.168   5.149   7.313  0.0106  0.0611 -0.2496
 5775W        W 7975   9.722   5.915  24.200 -0.1943 -0.0316 -0.2060
 5776W        W 7976   3.201   0.221  23.448  0.0163 -0.1459 -0.1230
 5777W        W 7977  22.254   0.630  25.887 -0.0913 -0.2257 -0.0350
 5778W        W 7978  23.294   5.716  24.743 -0.0453  0.2859 -0.1672
 5779W        W 7979   6.918   0.415  26.482 -0.3182  0.4272 -0.0456
 5780W        W 7980  11.231   3.923   0.056  0.0149 -0.0087 -0.2459
 5781W        W 7981  14.021   1.344  31.089 -0.4677  0.0443  0.2779
 5782W        W 7982  11.533   1.475  10.725 -0.1169 -0.1525 -0.1743
 5783W        W 7983   0.776   4.947   1.482 -0.0261  0.1839 -0.1110
 5784W        W 7984  19.170   5.774  32.401  0.4237 -0.0039  0.1584
 5785W        W 7985   6.140   0.107  23.029 -0.0341  0.1563 -0.1843
 5786W        W 7986  16.034   3.207  20.592  0.1087 -0.0518  0.1603
 5787W        W 7987  12.840   1.372   3.932  0.0012  0.2652  0.1119
 5788W        W 7988  18.733   4.362  25.796 -0.0796  0.0443 -0.0985
 5789W        W 7989  14.092   0.270   8.265 -0.0268  0.0133 -0.1957
 5790W        W 7990   1.282   2.700  10.860  0.1084 -0.1090 -0.2647
 5791W        W 7991   9.775   4.166  22.292 -0.1278  0.2445 -0.2359
 5792W        W 7992  18.922   2.122  10.472  0.2887 -0.1202 -0.1237
 5793W        W 7993  13.745   7.126  25.075 -0.1143 -0.1217  0.0429
 5794W        W 7994  17.864   1.303   9.671  0.0350  0.0522  0.2171
 5795W        W 7995   5.943   2.289   0.507 -0.2116  0.1142 -0.0050
 5796W        W 7996   1.971   3.047  12.169  0.1353 -0.2978  0.1095
 5797W        W 7997   8.325   7.578  25.633  0.1601  0.0421 -0.0263
 5798W        W 7998   3.298   6.310   0.252  0.0093  0.0364 -0.1899
 5799W        W 7999  15.541   1.512  32.241 -0.0658 -0.2113  0.0337
 5800W        W 8000  22.040   0.393   8.964 -0.2508 -0.0304 -0.1401
 5801W        W 8001  12.803   2.487  32.519 -0.3799  0.1957  0.0498
 5802W        W 8002  20.374   2.885  22.655  0.0043 -0.2249 -0.3787
 5803W        W 8003   4.453   2.178  32.706  0.1641  0.1819 -0.0765
 5804W        W 8004  12.924   2.849   7.027  0.0214 -0.0570 -0.3785
 5805W        W 8005  18.003   2.617   8.181 -0.0190  0.0557  0.0387
 5806W        W 8006   5.130   3.856  23.788 -0.0874 -0.1268  0.1606
 5807W        W 8007   6.245   6.293   8.197  0.2076 -0.2049  0.0064
 5808W        W 8008   9.160   5.168  31.881  0.2045 -0.2197 -0.0536
 5809W        W 8009  13.034   4.817  26.721  0.1661 -0.1241  0.0635
 5810W        W 8010   6.593   1.859   3.798 -0.1455  0.0559 -0.1140
 5811W        W 8011   2.483   5.331  30.842  0.1197  0.0372  0.0880
 5812W        W 8012  14.335   3.188  31.853  0.1484  0.0511 -0.1760
 5813W        W 8013  18.114   4.098   1.244  0.3531 -0.0215  0.0868
 5814W        W 8014  21.763   5.350  30.675  0.1288  0.1723  0.1919
 5815W        W 8015  14.758   1.850  23.787 -0.0662 -0.0441  0.0472
 5816W        W 8016  16.694   3.793  28.083 -0.0683 -0.1135 -0.1020
 5817W        W 8017  17.084   4.713  28.918 -0.2313 -0.4921 -0.0144
 5818W        W 8018  18.531   6.679  32.504  0.0211  0.3742  0.0549
 5819W        W 8019  15.681   5.255  19.670 -0.0142  0.3201 -0.1699
 5820W        W 8020   3.907   3.269  30.186  0.0432  0.0099  0.2660
 5821W        W 8021   8.887   2.266  31.986 -0.1178  0.0241  0.1889
 5822W        W 8022   1.110   4.705  18.205  0.2672  0.2191  0.0822
 5823W        W 8023  11.570   3.679   8.709 -0.3736 -0.0421 -0.1678
 5824W        W 8024  21.093   0.966   9.733  0.1184 -0.1799  0.1049
 5825W        W 8025  11.222   4.641  14.447  0.0385  0.3197 -0.1817
 5826W        W 8026  22.848   2.693   5.253 -0.2193  0.0993  0.0598
 5827W        W 8027  15.335   1.522  22.447 -0.1743 -0.0329  0.0923
 5828W        W 8028  13.315   7.751   9.134 -0.0878 -0.1749 -0.3080
 5829W        W 8029  22.708   0.428  16.362  0.0031 -0.0610  0.1464
 5830W        W 8030  11.339   5.141  13.593 -0.2343 -0.2198 -0.0151
 5831W        W 8031  10.129   1.774  27.071  0.0355 -0.0944 -0.2239
 5832W        W 8032  19.137   3.453  25.762  0.1062 -0.0212 -0.2270
 5833W        W 8033   5.996   1.724  31.061  0.0532  0.1346  0.0669
 5834W        W 8034  17.984   3.943  32.087  0.0417 -0.0304  0.1366
 5835W        W 8035  12.456   6.141  27.722 -0.0700 -0.1695 -0.0868
 5836W        W 8036  17.845   2.572  26.099 -0.1896 -0.1664 -0.2097
 5837W        W 8037  11.003   3.301   6.145 -0.1942 -0.1685 -0.0536
 5838W        W 8038   9.617   6.263  29.421  0.0438  0.0695 -0.0869
 5839W        W 8039  12.502   3.993  23.087 -0.0906  0.3215 -0.1177
 5840W        W 8040  23.255   4.556  28.394  0.0786  0.1657 -0.3652
 5841W        W 8041   8.924   2.552  29.071 -0.0961 -0.7077  0.2557
 5842W        W 8042   2.816   6.781   6.683  0.0236 -0.0332  0.0220
 5843W        W 8043  10.855   3.776   4.024 -0.2647 -0.0686 -0.3599
 5844W        W 8044  24.500   0.222  30.506 -0.1347  0.0420  0.2790
 5845W        W 8045  23.416   7.107  17.241 -0.0731 -0.0039 -0.0194
 5846W        W 8046  17.291   1.821  17.826 -0.2534 -0.0086  0.2194
 5847W        W 8047   7.249   0.680  26.790 -0.0178 -0.1152 -0.1073
 5848W        W 8048  23.996   1.820  24.639 -0.5152 -0.2013  0.1849
 5849W        W 8049  10.543   5.528   6.322 -0.0362  0.0162  0.1124
 5850W        W 8050   5.019   4.264  11.563  0.1485  0.1385 -0.2640
 5851W        W 8051  16.393   7.480  32.489  0.1457 -0.1057  0.0368
 5852W        W 8052  17.002   0.308  24.996  0.0911 -0.0615 -0.0379
 5853W        W 8053  23.156   4.973  18.251  0.0712 -0.0100 -0.1048
 5854W        W 8054   1.883   5.532  21.999 -0.3727  0.1357 -0.1092
 5855W        W 8055  15.199   3.097   8.512  0.0771  0.0987  0.1490
 5856W        W 8056   5.889   4.049  15.308 -0.0574 -0.1945 -0.4275
 5857W        W 8057  22.501   6.726   7.173  0.1424  0.2097  0.2110
 5858W        W 8058  24.459   2.144  10.264  0.1546 -0.2073 -0.5460
 5859W        W 8059  23.794   5.128  25.310 -0.2606  0.5335  0.0682
 5860W        W 8060   4.014   1.148   4.379 -0.1960 -0.3215  0.1879
 5861W        W 8061  14.383   0.346  25.215  0.1423  0.0511 -0.0898
 5862W        W 8062  22.623   4.624  14.633  0.0565  0.1500 -0.0192
 5863W        W 8063  14.717   1.901   2.745 -0.1155 -0.0114 -0.0284
 5864W        W 8064   1.724   1.246   1.135  0.1660  0.0026  0.1823
 5865W        W 8065   8.303   6.079  17.398  0.1325 -0.2650  0.1020
 5866W        W 8066   6.024   5.435   2.846 -0.1254 -0.1484 -0.0549
 5867W        W 8067  18.199   7.646  15.862 -0.0530 -0.2323  0.0595
 5868W        W 8068  20.691   1.524  14.653  0.1548  0.1073 -0.0252
 5869W        W 8069   7.775   0.289   7.153 -0.2151 -0.1942  0.4880
 5870W        W 8070  16.093   7.627  20.750 -0.2363 -0.1107  0.0057
 5871W        W 8071  23.494   0.448   8.996  0.0070 -0.1548  0.3603
 5872W        W 8072  17.433   4.181  29.944  0.2210  0.1708 -0.4212
 5873W        W 8073  21.146   2.080  23.863 -0.0586  0.0978 -0.0244
 5874W        W 8074  19.962   3.645  26.764 -0.2873 -0.0174  0.0020
 5875W        W 8075  21.060   2.296  31.269 -0.0933  0.0553 -0.0205
 5876W        W 8076   3.288   5.587   8.565  0.2454  0.1361  0.0172
 5877W        W 8077  23.081   6.298  21.703 -0.0170  0.0852  0.0168
 5878W        W 8078  16.108   2.790  10.087 -0.1304  0.0400 -0.3436
 5879W        W 8079  12.776   1.199  24.793  0.1823 -0.1033  0.2673
 5880W        W 8080  16.241   2.623   7.541 -0.1789  0.4204  0.1718
 5881W        W 8081  11.578   2.545  30.436  0.2001 -0.0285 -0.0776
 5882W        W 8082  14.454   3.179   6.421  0.1773  0.1252 -0.1027
 5883W        W 8083  21.031   3.831   9.283 -0.0030 -0.0875 -0.0445
 5884W        W 8084  17.429   4.533   1.569  0.3561  0.1222 -0.0702
 5885W        W 8085  14.633   3.043   8.071  0.2750  0.2031  0.1210
 5886W        W 8086   3.675   1.952  32.476  0.1417 -0.0068  0.0356
 5887W        W 8087  23.018   7.076   3.715  0.1286  0.2126  0.3112
 5888W        W 8088  10.433   3.620  24.668 -0.2687  0.2637  0.3544
 5889W        W 8089   0.279   0.415   6.518  0.1332  0.1198  0.1746
 5890W        W 8090  21.585   5.564   0.138  0.0189 -0.0184 -0.3304
 5891W        W 8091  15.467   6.203   4.211  0.0464 -0.2548  0.1707
 5892W        W 8092   2.383   4.697  23.143  0.3027  0.2675  0.3965
 5893W        W 8093  16.000   0.162   5.992 -0.0347  0.3174 -0.1710
 5894W        W 8094   0.275   6.502  11.537 -0.0460 -0.0553  0.1912
 5895W        W 8095  20.170   5.542  23.048  0.0248  0.0548 -0.1473
 5896W        W 8096  11.476   0.722  10.825  0.0496  0.2271  0.2383
 5897W        W 8097   4.722   5.013  30.321  0.3020  0.1214  0.2216
 5898W        W 8098   8.978   6.973  18.464 -0.0143  0.0115  0.1782
 5899W        W 8099  10.642   4.390  12.601 -0.0983 -0.0206  0.0187
 5900W        W 8100   3.206   6.230  23.404  0.0633 -0.0038 -0.0982
 5901W        W 8101   3.559   0.421  11.446  0.0321 -0.0974  0.0922
 5902W        W 8102  13.372   7.104   0.865 -0.0286  0.0151  0.0774
 5903W        W 8103   4.112   4.091   7.560  0.0374 -0.1326  0.3822
 5904W        W 8104   2.102   5.048  12.441 -0.1074  0.0409 -0.3374
 5905W        W 8105   9.962   6.100   2.523 -0.0438 -0.3626  0.0748
 5906W        W 8106   3.061   7.269  22.876 -0.0506 -0.0507  0.0801
 5907W        W 8107  10.145   3.662  12.495 -0.0939  0.0217  0.1547
 5908W        W 8108  15.573   4.508  23.166  0.3541  0.4731 -0.3649
 5909W        W 8109  14.608   4.406  25.540  0.4123 -0.0144  0.3230
 5910W        W 8110  19.538   5.547   6.674 -0.2358  0.2904 -0.2085
 5911W        W 8111  23.397   2.937  31.506 -0.0117 -0.0339  0.2485
 5912W        W 8112  12.238   4.870  15.761 -0.2376  0.1852 -0.0158
 5913W        W 8113   9.779   6.844   5.034 -0.1221 -0.0126 -0.1622
 5914W        W 8114  22.016   4.484  22.494  0.0605 -0.0456 -0.1407
 5915W        W 8115   4.431   6.466  13.632  0.1835 -0.0178  0.1285
 5916W        W 8116  19.486   0.736  31.261  0.2782  0.0856 -0.1633
 5917W        W 8117   1.573   0.011   0.909 -0.1286  0.0124  0.2554
 5918W        W 8118  21.051   0.110   0.298 -0.0059  0.0256 -0.0345
 5919W        W 8119   9.024   3.259   6.889 -0.0938 -0.0107 -0.0866
 5920W        W 8120  15.296   0.887   7.740  0.0497 -0.0041 -0.1951
 5921W        W 8121  23.265   0.325  25.738 -0.0257  0.2884  0.1539
 5922W        W 8122  21.647   4.254  19.816 -0.1086  0.1612 -0.1582
 5923W        W 8123  24.595   0.706  11.079  0.0415 -0.0748  0.0894
 5924W        W 8124   9.255   1.658   5.538 -0.1233  0.1213  0.2372
 5925W        W 8125  19.880   1.490  25.970  0.1595  0.0678 -0.0556
 5926W        W 8126  10.582   3.110  31.585  0.3889 -0.2542 -0.1796
 5927W        W 8127  17.431   2.657  21.716 -0.0721  0.0727  0.0011
 5928W        W 8128  16.769   4.360   4.588 -0.1463 -0.1675 -0.0586
 5929W        W 8129  17.764   2.689   7.013 -0.0357  0.0647  0.1011
 5930W        W 8130   3.872   2.771   6.406 -0.1115 -0.0257  0.2420
 5931W        W 8131  24.878   3.243  16.654  0.0797  0.2147 -0.1115
 5932W        W 8132  13.185   5.474   9.648 -0.0462 -0.0717  0.1110
 5933W        W 8133  23.119   2.264  17.374  0.1735  0.1140 -0.2077
 5934W        W 8134  14.392   5.659  26.427 -0.2368 -0.2993  0.0800
 5935W        W 8135  15.473   3.952   9.441  0.1245 -0.0253 -0.1931
 5936W        W 8136  15.975   4.556  25.075 -0.1395  0.1521  0.2349
 5937W        W 8137  16.089   7.617   1.363 -0.1729 -0.1382 -0.1814
 5938W        W 8138   3.103   4.986   7.634  0.2976 -0.0564  0.2056
 5939W        W 8139   4.917   1.980  13.806  0.3243 -0.0913 -0.1448
 5940W        W 8140   2.078   2.818  10.624  0.0006  0.3605 -0.3585
 5941W        W 8141   8.364   5.447  30.434 -0.2307  0.2504  0.0681
 5942W        W 8142   7.146   4.085   1.071 -0.1460  0.3195 -0.1855
 5943W        W 8143   1.159   2.744  23.351 -0.1729  0.1310  0.0006
 5944W        W 8144   3.860   6.898  27.734 -0.2074 -0.2827  0.0490
 5945W        W 8145  24.349   4.779  10.106 -0.1615  0.0387  0.1241
 5946W        W 8146   5.415   2.270  13.318  0.1538 -0.0157 -0.0248
 5947W        W 8147  20.289   4.247  21.191  0.2765 -0.0517  0.1535
 5948W        W 8148  22.100   0.113   1.060 -0.2874  0.0020  0.0301
 5949W        W 8149  18.156   7.015   8.422  0.0809  0.1833  0.1191
 5950W        W 8150   8.954   0.419  24.223 -0.0297 -0.3233 -0.2486
 5951W        W 8151   0.299   6.660  25.193 -0.0987 -0.3479  0.0380
 5952W        W 8152  20.990   3.221   0.740  0.1031  0.0656 -0.0894
 5953W        W 8153  24.633   6.486  15.429 -0.0984 -0.0653  0.2396
 5954W        W 8154  11.346   0.708  13.065 -0.1799 -0.0814  0.0658
 5955W        W 8155  20.240   6.464  19.077 -0.0750  0.2158 -0.2709
 5956W        W 8156  21.310   6.596  17.817  0.0278 -0.4395 -0.1294
 5957W        W 8157   9.126   6.030  25.755 -0.2335  0.0358 -0.1138
 5958W        W 8158  11.436   2.412  26.043  0.2644  0.1444  0.1387
 5959W        W 8159   9.892   2.684  32.648 -0.2401  0.0004  0.2038
 5960W        W 8160  22.644   4.789  19.227  0.2059  0.1900 -0.3094
 5961W        W 8161   3.805   2.097  22.461 -0.3301  0.2811 -0.3553
 5962W        W 8162   2.005   2.766   6.362 -0.2216 -0.0718  0.0608
 5963W        W 8163  18.288   4.547   1.545  0.1917 -0.2388 -0.1739
 5964W        W 8164   0.253   0.174  10.385  0.1736  0.0268 -0.0048
 5965W        W 8165  15.847   1.921   1.936  0.3648  0.1588  0.0453
 5966W        W 8166  11.223   7.720   8.108 -0.0600 -0.3055  0.4005
 5967W        W 8167  18.768   6.402   6.238 -0.1613  0.1929  0.0885
 5968W        W 8168   3.378   3.737   7.067 -0.0403  0.2119 -0.0218
 5969W        W 8169   0.289   4.552  21.240 -0.1806 -0.0186  0.1365
 5970W        W 8170  17.741   5.736  18.939  0.0190  0.2300  0.0108
 5971W        W 8171   7.318   3.666  32.295 -0.0392  0.3963  0.1959
 5972W        W 8172  22.264   7.801   5.159  0.0579  0.0649 -0.2662
 5973W        W 8173  24.350   6.301  24.442  0.1690  0.0185 -0.4061
 5974W        W 8174  24.716   2.070  18.929 -0.0719  0.1006 -0.2424
 5975W        W 8175   5.290   1.139  14.780 -0.0706 -0.1491 -0.3107
 5976W        W 8176   0.531   0.420  20.930  0.0669 -0.1357  0.1597
 5977W        W 8177   8.347   5.033   8.444  0.0335 -0.0649  0.1064
 5978W        W 8178   4.674   0.991  24.428  0.2588  0.1902  0.1833
 5979W        W 8179  17.077   0.477  18.879 -0.4331  0.1088 -0.2119
 5980W        W 8180   1.288   4.965  30.462  0.2327  0.0525  0.0133
 5981W        W 8181   3.754   6.268  26.708 -0.3323 -0.1419 -0.0567
 5982W        W 8182  23.903   0.674   5.593 -0.1733 -0.0178  0.3532
 5983W        W 8183  21.063   3.794  18.196 -0.1372  0.4091  0.2257
 5984W        W 8184  13.145   5.256  32.330 -0.0639 -0.3463 -0.0291
 5985W        W 8185  17.448   1.160  16.910  0.2918 -0.1375  0.0426
 5986W        W 8186   6.991   2.990  26.041  0.0708 -0.0387  0.0669
 5987W        W 8187   6.191   5.073  29.151 -0.2237 -0.0823 -0.1060
 5988W        W 8188  10.874   1.895  24.741  0.2529  0.0108  0.0426
 5989W        W 8189   9.152   6.831  32.672  0.0904  0.1724  0.0110
 5990W        W 8190  23.065   1.423  16.768  0.1840 -0.0099 -0.0671
 5991W        W 8191   5.285   0.415   1.554 -0.0226 -0.1740  0.1070
 5992W        W 8192  22.938   5.532   4.529  0.1792  0.0517  0.0047
 5993W        W 8193  18.866   5.452  24.896 -0.4028  0.2490 -0.1237
 5994W        W 8194  10.191   4.844  11.884 -0.2050 -0.1101 -0.3131
 5995W        W 8195  15.773   0.278  29.377 -0.1838  0.2037  0.1433
 5996W        W 8196   4.319   0.203  22.601  0.1068 -0.2037 -0.2385
 5997W        W 8197  24.278   6.806  30.237  0.1863 -0.2443 -0.1218
 5998W        W 8198  12.904   7.256  21.962 -0.0231 -0.0760 -0.2307
 5999W        W 8199   0.845   6.099  23.409  0.1637 -0.1895  0.0066
 6000W        W 8200  11.415   0.925  22.719  0.1536 -0.0867 -0.2727
 6001W        W 8201  10.221   7.330  18.352 -0.3448 -0.0625  0.4289
 6002W        W 8202  14.746   3.224   8.554 -0.1178  0.2643 -0.2276
 6003W        W 8203  15.498   4.392  21.345 -0.1111  0.1012  0.2326
 6004W        W 8204   1.602   0.816   2.020 -0.1034 -0.2200  0.0383
 6005W        W 8205  17.592   1.860   1.326 -0.1770  0.3097  0.0319
 6006W        W 8206  20.006   2.192  19.583  0.1770  0.1365  0.2128
 6007W        W 8207  10.797   5.505  15.891  0.0954 -0.3094  0.0100
 6008W        W 8208  12.506   2.108   4.602 -0.2019  0.0140  0.1232
 6009W        W 8209   5.034   3.230  23.974  0.1265 -0.1809 -0.3683
 6010W        W 8210  10.210   6.044  31.354 -0.0111  0.2963 -0.1910
 6011W        W 8211   4.566   0.387  16.054 -0.4249 -0.3408  0.1467
 6012W        W 8212  20.365   5.610  26.598  0.0839 -0.1566  0.1005
 6013W        W 8213   3.103   3.791  23.084 -0.0196  0.0571 -0.0733
 6014W        W 8214   9.788   3.930   5.668  0.1511 -0.0395 -0.0738
 6015W        W 8215   2.618   5.999  26.043  0.0174 -0.3217  0.1945
 6016W        W 8216  18.215   0.180   5.073  0.1641  0.0663  0.1538
 6017W        W 8217   8.827   0.106  25.506 -0.0879  0.1180 -0.0520
 6018W        W 8218   7.921   3.018  10.272  0.1047 -0.3482  0.0419
 6019W        W 8219   8.106   6.447  25.165 -0.0025 -0.1258  0.1881
 6020W        W 8220  17.269   0.947   4.236  0.2357 -0.2625 -0.0788
 6021W        W 8221  22.502   1.314  17.773  0.1281 -0.0758  0.0147
 6022W        W 8222  17.525   3.857  16.772  0.0592  0.0999  0.3941
 6023W        W 8223   2.611   1.874  24.842  0.2857  0.0792  0.0239
 6024W        W 8224  15.210   0.690  20.947 -0.1204  0.0598 -0.0533
 6025W        W 8225  17.274   4.289   9.989 -0.0471 -0.0230  0.1828
 6026W        W 8226   4.132   5.818   4.186 -0.1994 -0.3729  0.0482
 6027W        W 8227   8.259   4.939  14.709  0.0114  0.0303  0.0514
 6028W        W 8228   1.796   4.937  11.304  0.2338 -0.2150 -0.1629
 6029W        W 8229  23.707   7.361  25.873  0.0389 -0.0977 -0.0533
 6030W        W 8230   4.857   2.913   8.584  0.2114 -0.0957 -0.2997
 6031W        W 8231   5.605   6.827  26.968  0.1891  0.0966  0.0036
 6032W        W 8232   4.235   0.372   3.335 -0.1000 -0.0111 -0.0818
 6033W        W 8233  14.617   2.754  30.080 -0.1089  0.0492 -0.1291
 6034W        W 8234  15.901   1.308  23.228 -0.0101  0.1523 -0.1635
 6035W        W 8235  11.483   1.629  13.124 -0.0971 -0.1182  0.0059
 6036W        W 8236   2.148   1.658   0.438  0.0013 -0.0865  0.0098
 6037W        W 8237   9.800   0.743  27.633  0.1257 -0.0084 -0.2649
 6038W        W 8238   2.920   5.944   2.027 -0.1874 -0.0858  0.0933
 6039W        W 8239  10.390   1.219   1.822  0.0783 -0.1684 -0.0364
 6040W        W 8240  11.090   5.571   6.034 -0.0131  0.1099  0.3812
 6041W        W 8241  15.926   1.766  21.463 -0.2584 -0.0348  0.0642
 6042W        W 8242  12.747   2.197  23.984  0.2744 -0.1097 -0.0462
 6043W        W 8243   1.639   3.054  10.394 -0.2234 -0.3804 -0.2203
 6044W        W 8244  13.478   4.232   8.427  0.0040 -0.0852  0.2754
 6045W        W 8245  21.198   3.269   7.667  0.0430  0.1438  0.0396
 6046W        W 8246   9.801   7.737   3.705  0.0287 -0.1779  0.0973
 6047W        W 8247   0.786   3.550  18.349  0.1993  0.0174  0.0901
 6048W        W 8248   3.338   5.116  25.781 -0.0338 -0.0900  0.0299
 6049W        W 8249  10.979   4.877  17.130 -0.0474  0.2598 -0.2444
 6050W        W 8250  17.471   0.821  10.577  0.3251  0.0525 -0.2439
 6051W        W 8251   0.101   1.927  11.278 -0.0832  0.0811 -0.3422
 6052W        W 8252   3.496   7.014   2.442  0.2621  0.0727 -0.0313
 6053W        W 8253   7.239   7.686   2.656 -0.0092 -0.1585 -0.0546
 6054W        W 8254  23.273   0.476   2.114  0.1289  0.0965  0.1837
 6055W        W 8255   4.868   3.013   2.563 -0.1337  0.0742  0.0572
 6056W        W 8256  16.487   0.988  22.975  0.0107  0.0844 -0.0435
 6057W        W 8257  14.807   5.075  20.193 -0.0745 -0.3785  0.0503
 6058W        W 8258   5.255   0.443   3.908 -0.0760 -0.4084 -0.1011
 6059W        W 8259  16.554   7.382  28.597 -0.1667  0.3389  0.1080
 6060W        W 8260  24.269   6.417   4.138 -0.0865  0.0154  0.0975
 6061W        W 8261   8.306   0.858  16.522  0.0956  0.0607  0.3350
 6062W        W 8262  11.334   3.904  23.115 -0.4130  0.0350 -0.2237
 6063W        W 8263   3.445   6.792   9.919 -0.4557  0.1163  0.1416
 6064W        W 8264  25.021   1.540  23.483  0.2154 -0.3462 -0.1418
 6065W        W 8265  16.279   4.522   9.818  0.1686 -0.0146 -0.1837
 6066W        W 8266   8.384   4.928  12.933  0.0171 -0.0838  0.2054
 6067W        W 8267  22.935   1.226   6.923  0.2243 -0.0654 -0.0035
 6068W        W 8268  10.616   2.569   8.690  0.0181 -0.0342 -0.0175
 6069W        W 8269  19.857   4.089  28.526 -0.0004  0.2023  0.0419
 6070W        W 8270  16.782   6.174   4.576  0.0210  0.1010 -0.1211
 6071W        W 8271  13.440   4.401   7.510 -0.1007  0.0165  0.4308
 6072W        W 8272   7.819   3.900  22.217  0.1233 -0.1188  0.0645
 6073W        W 8273   5.823   6.889  15.437  0.0187 -0.1471  0.0454
 6074W        W 8274   6.192   2.305   7.731 -0.1311 -0.0837  0.2192
 6075W        W 8275  11.334   7.513  10.944 -0.0271 -0.2938  0.2375
 6076W        W 8276  19.339   2.614   6.172 -0.0632 -0.2438  0.4456
 6077W        W 8277   1.088   1.642  24.267 -0.1289  0.0046  0.0059
 6078W        W 8278   9.163   6.875   7.685  0.2037  0.1653 -0.2941
 6079W        W 8279  17.497   5.536   7.993 -0.0766 -0.2098 -0.1002
 6080W        W 8280  19.342   2.141  18.172 -0.1978 -0.0872 -0.0135
 6081W        W 8281   8.605   5.440   9.067  0.0866 -0.0395 -0.0783
 6082W        W 8282  19.464   0.382  20.269 -0.1586  0.0567 -0.3210
 6083W        W 8283   8.259   5.168  15.660  0.0454  0.0348  0.1605
 6084W        W 8284  24.069   2.799  32.189 -0.0118 -0.0148  0.1781
 6085W        W 8285  19.233   5.384  22.528  0.0805  0.1936  0.1318
 6086W        W 8286   2.900   3.550   5.105  0.0273  0.1545 -0.1189
 6087W        W 8287  17.494   2.663  20.851  0.0262  0.2385  0.0906
 6088W        W 8288   1.693   3.348  22.338 -0.0628 -0.1189 -0.0204
 6089W        W 8289  17.540   7.370   3.256 -0.0715  0.0646  0.0431
 6090W        W 8290  18.091   4.913   3.864  0.0686 -0.0819  0.0978
 6091W        W 8291  12.515   3.864   2.258  0.1757  0.2581 -0.0491
 6092W        W 8292  12.012   1.036  24.689  0.0147  0.0365 -0.0204
 6093W        W 8293   9.503   4.691   1.439 -0.3419  0.3227 -0.2820
 6094W        W 8294   1.012   0.466  21.810 -0.0830  0.0925  0.0247
 6095W        W 8295  11.966   2.605  15.040  0.1423 -0.0870  0.1704
 6096W        W 8296   0.321   3.124  10.711 -0.0894 -0.0776  0.0783
 6097W        W 8297  14.977   5.214  29.156  0.2669 -0.2545  0.2141
 6098W        W 8298  18.854   2.745  31.119 -0.1374 -0.0251  0.0098
 6099W        W 8299  21.209   6.167   9.052 -0.2580 -0.0305 -0.0919
 6100W        W 8300  14.814   5.872  24.321 -0.3285  0.0966 -0.0591
 6101W        W 8301  14.960   6.749   7.449  0.2089 -0.3262  0.0273
 6102W        W 8302   5.336   2.057  31.031 -0.1672  0.4541 -0.1987
 6103W        W 8303   0.670   5.559   0.197 -0.1423 -0.2739  0.0757
 6104W        W 8304  21.693   4.798  22.794  0.0274 -0.1154  0.0091
 6105W        W 8305   6.813   6.117  30.222  0.0368 -0.1350 -0.1742
 6106W        W 8306  15.358   5.462  11.694  0.1154 -0.1482  0.1198
 6107W        W 8307   9.105   0.138  32.226 -0.1109 -0.0698  0.0660
 6108W        W 8308   9.298   2.564   7.476 -0.0915  0.0844 -0.0952
 6109W        W 8309  16.446   2.978  29.800  0.2855  0.0413  0.2596
 6110W        W 8310  24.324   0.421  10.238 -0.3017 -0.1965 -0.0213
 6111W        W 8311   2.664   4.764  29.869 -0.0186 -0.2100  0.0624
 6112W        W 8312   6.609   3.299  24.466 -0.3700 -0.1384 -0.0307
 6113W        W 8313   2.632   7.821  31.696 -0.1235  0.0316  0.1981
 6114W        W 8314  10.960   1.121  10.351 -0.3033 -0.0298  0.0245
 6115W        W 8315   6.338   6.276  15.051  0.3718  0.0484  0.0485
 6116W        W 8316  23.587   5.880  31.931 -0.4585  0.3053  0.1097
 6117W        W 8317   0.351   5.275  23.920  0.1587  0.1277  0.0503
 6118W        W 8318   6.136   3.066  17.700  0.0204 -0.1526  0.0295
 6119W        W 8319   6.481   4.451   4.196  0.2466  0.1934 -0.2150
 6120W        W 8320   9.353   0.336  16.033  0.1198 -0.0059 -0.1623
 6121W        W 8321  24.580   4.759   5.801  0.0187 -0.0188  0.1887
 6122W        W 8322  19.887   3.975  19.166  0.2817  0.0575 -0.1293
 6123W        W 8323  11.426   7.618  16.592 -0.0225  0.1223 -0.2269
 6124W        W 8324   9.988   0.886   1.664  0.1738  0.1207  0.1667
 6125W        W 8325   7.772   6.050  14.196  0.2037  0.2132  0.1863
 6126W        W 8326   5.773   3.833  16.076  0.3992 -0.1322 -0.0324
 6127W        W 8327  19.022   7.408   2.732 -0.1272  0.0493 -0.0072
 6128W        W 8328  17.263   0.229  27.213 -0.0016 -0.2878  0.3571
 6129W        W 8329  18.885   3.808   2.395 -0.2481 -0.0830  0.0073
 6130W        W 8330  16.939   5.195   8.410 -0.1305  0.1130 -0.2800
 6131W        W 8331   7.668   2.583  27.474 -0.1121 -0.1348  0.0585
 6132W        W 8332  22.513   5.096   5.466  0.0704 -0.0942 -0.0674
 6133W        W 8333  24.300   4.720   7.677 -0.0485 -0.0832 -0.0851
 6134W        W 8334  23.009   3.860   2.771  0.1390 -0.0283  0.0853
 6135W        W 8335  21.636   2.327  30.972 -0.0242  0.0236  0.0454
 6136W        W 8336  12.050   0.832   1.419 -0.2726 -0.0757 -0.0937
 6137W        W 8337  16.601   3.360  26.405 -0.4561 -0.0966  0.0426
 6138W        W 8338  12.080   6.635  14.053 -0.0865 -0.2571  0.1953
 6139W        W 8339  19.711   3.307   5.476 -0.0601  0.0400 -0.2711
 6140W        W 8340   9.582   1.393   0.711 -0.3464  0.2541  0.0615
 6141W        W 8341  10.198   4.008  15.008 -0.0869 -0.2680 -0.0291
 6142W        W 8342  13.654   1.836   8.285 -0.3260  0.1023  0.0115
 6143W        W 8343  18.951   0.470  20.792  0.0548 -0.0114  0.0966
 6144W        W 8344  14.101   1.094  10.417 -0.0096 -0.2093  0.1611
 6145W        W 8345  10.965   5.593  23.252  0.0365 -0.2186  0.0746
 6146W        W 8346   7.819   0.652   2.472  0.2206 -0.3764  0.0915
 6147W        W 8347   7.585   6.349  23.330 -0.0812 -0.1969  0.2373
 6148W        W 8348  22.313   0.383  21.290 -0.1208 -0.1626 -0.1860
 6149W        W 8349   6.523   0.248  30.041  0.1024  0.1064  0.3834
 6150W        W 8350  19.879   4.321   3.561  0.1010 -0.3755 -0.1509
 6151W        W 8351  11.066   4.222  10.389 -0.2845 -0.1659 -0.1322
 6152W        W 8352  10.599   5.643   9.908 -0.2159 -0.1412 -0.1844
 6153W        W 8353   0.959   0.689  30.069 -0.0676 -0.2219 -0.0147
 6154W        W 8354  12.655   4.361   0.968 -0.1250  0.0989  0.0753
 6155W        W 8355   5.966   6.140  32.500 -0.1329  0.3799 -0.1917
 6156W        W 8356  17.780   3.044   9.828  0.0266 -0.5402 -0.1496
 6157W        W 8357   9.995   5.528  13.444  0.1386  0.2194 -0.0678
 6158W        W 8358   7.823   5.634  30.114 -0.2968 -0.1999  0.0421
 6159W        W 8359   6.296   3.986  11.102 -0.3642 -0.0366 -0.2469
 6160W        W 8360  14.033   5.459   3.132  0.2269 -0.0753 -0.0693
 6161W        W 8361  23.714   0.442   7.341 -0.3813  0.3568 -0.0487
 6162W        W 8362   8.185   5.019  30.070  0.0964  0.0973  0.1403
 6163W        W 8363   3.962   3.819   9.766 -0.0444 -0.4344 -0.1318
 6164W        W 8364  23.890   7.522  28.250  0.3884 -0.1129  0.0644
 6165W        W 8365   1.451   4.454  10.615  0.1767  0.0092 -0.1320
 6166W        W 8366  17.930   2.959  30.123 -0.1105 -0.2327 -0.0515
 6167W        W 8367   9.540   0.796   5.759  0.0530  0.1138 -0.1528
 6168W        W 8368  19.080   6.152  31.291  0.1603 -0.1243 -0.3956
 6169W        W 8369  19.875   1.309   6.429 -0.0633  0.0177 -0.1196
 6170W        W 8370  20.114   2.555  26.916  0.0411  0.2020  0.0544
 6171W        W 8371  12.375   1.440  12.561  0.2912 -0.0337 -0.1212
 6172W        W 8372  18.306   0.585  25.831  0.0642  0.1018 -0.1850
 6173W        W 8373  12.526   6.456  12.801  0.0214  0.3931  0.1446
 6174W        W 8374  24.079   2.568   2.870  0.1604 -0.0665  0.1202
 6175W        W 8375  10.702   2.540   0.786  0.1429  0.2110  0.1869
 6176W        W 8376   9.921   2.889   0.454 -0.0735 -0.2390 -0.3599
 6177W        W 8377  24.087   4.046  17.426 -0.0871 -0.1765  0.0411
 6178W        W 8378   9.146   4.758  28.864  0.0203 -0.0317 -0.0956
 6179W        W 8379   2.191   1.549   1.396  0.0616  0.1594  0.3424
 6180W        W 8380   7.991   7.308  32.553 -0.4664 -0.0662  0.0807
 6181W        W 8381  17.662   4.000  15.502  0.5240  0.1961  0.1590
 6182W        W 8382   9.848   3.570   1.087  0.1949  0.1078  0.1022
 6183W        W 8383   8.215   2.824  16.009 -0.2885  0.1211 -0.0113
 6184W        W 8384   5.820   2.740   3.563 -0.2182  0.1390 -0.0391
 6185W        W 8385   9.354   0.094   2.506 -0.0839 -0.1171  0.0016
 6186W        W 8386   1.515   1.774  19.612  0.1786  0.2186  0.1074
 6187W        W 8387   2.044   2.909   0.573  0.2502 -0.1078 -0.0251
 6188W        W 8388   1.843   6.725   2.128  0.0868 -0.1208 -0.0274
 6189W        W 8389  24.788   3.158  17.765  0.1944 -0.0834 -0.3351
 6190W        W 8390  19.593   0.482   3.179 -0.0132  0.0390 -0.4804
 6191W        W 8391  23.575   1.584   6.830  0.0172 -0.1267  0.1233
 6192W        W 8392   5.520   5.190   1.866 -0.0649 -0.0550 -0.0201
 6193W        W 8393   1.133   4.512  19.430 -0.0591 -0.1531 -0.0284
 6194W        W 8394   7.834   4.020   8.409 -0.2386 -0.0090 -0.3733
 6195W        W 8395  17.199   2.573  30.103  0.1369 -0.1530 -0.0197
 6196W        W 8396  24.684   5.212   6.180  0.1038  0.1049 -0.2125
 6197W        W 8397  20.517   3.545  24.828  0.1440 -0.2454  0.0079
 6198W        W 8398   5.651   5.710  14.773  0.0470  0.0015 -0.1293
 6199W        W 8399  11.185   0.781   9.212  0.1702  0.4167 -0.2432
 6200W        W 8400  21.249   0.808   5.399  0.2089 -0.0141  0.3421
 6201W        W 8401   7.919   3.955  16.501 -0.0515  0.0184 -0.3041
 6202W        W 8402  17.593   0.813   8.617 -0.1780 -0.3094 -0.0887
 6203W        W 8403  20.848   3.410  16.112  0.1782 -0.1026  0.0423
 6204W        W 8404   3.052   0.056  27.437 -0.2615 -0.0577  0.0297
 6205W        W 8405   0.548   5.962  17.867  0.0686  0.1414  0.1385
 6206W        W 8406   8.870   3.635   4.944  0.0425  0.2475 -0.0550
 6207W        W 8407  17.579   2.154  24.979 -0.2630  0.2142 -0.1221
 6208W        W 8408  23.157   1.392   1.633 -0.4902  0.0522  0.0124
 6209W        W 8409  20.786   3.657  24.031 -0.3553 -0.2086  0.1165
 6210W        W 8410  11.104   6.998   5.359 -0.0160  0.1854  0.1947
 6211W        W 8411   3.729   5.645  23.557  0.2037 -0.0625  0.3430
 6212W        W 8412  24.566   0.073   3.310  0.0459  0.4747  0.0686
 6213W        W 8413   9.742   0.637  13.090 -0.0467 -0.2050  0.0579
 6214W        W 8414   7.912   3.933   5.445  0.0194  0.0669 -0.1481
 6215W        W 8415  20.438   0.871  16.858  0.0659  0.1044 -0.0755
 6216W        W 8416  19.167   7.210  24.716 -0.0124 -0.0023  0.0244
 6217W        W 8417  21.603   1.256  31.316  0.2746 -0.1290  0.0030
 6218W        W 8418  20.792   3.011  29.351  0.0415  0.2033  0.3115
 6219W        W 8419   0.695   6.636  24.274  0.1522  0.2078 -0.1685
 6220W        W 8420   5.290   5.031   1.437 -0.1110 -0.1806 -0.3008
 6221W        W 8421  22.101   4.561  30.434 -0.1543  0.3754 -0.0890
 6222W        W 8422   1.658   2.279  20.344 -0.1080 -0.0650  0.0632
 6223W        W 8423  17.392   1.248   9.576 -0.0610  0.2856  0.0143
 6224W        W 8424   7.684   0.217   9.198  0.1511 -0.1999  0.2261
 6225W        W 8425  23.710   0.260  29.020 -0.0783  0.1949  0.2066
 6226W        W 8426   6.537   5.501   0.875 -0.2235 -0.0882 -0.1476
 6227W        W 8427   3.707   5.191  11.476 -0.2629  0.0388  0.1109
 6228W        W 8428  21.021   5.163   1.477  0.0524  0.1805 -0.0106
 6229W        W 8429   3.626   6.508  11.139  0.1733 -0.1600  0.1489
 6230W        W 8430   9.044   1.575  13.565 -0.2529 -0.0848  0.0375
 6231W        W 8431  17.429   3.760   2.517  0.2021  0.0629  0.1721
 6232W        W 8432   1.225   4.412   5.884  0.1797  0.3154 -0.2888
 6233W        W 8433  13.860   4.875  10.409 -0.2020 -0.0320  0.3439
 6234W        W 8434   1.696   4.386  31.944 -0.0063  0.0248  0.1506
 6235W        W 8435   1.187   4.607  28.169 -0.1058  0.0687  0.2858
 6236W        W 8436  17.098   5.161   6.954  0.3152  0.1294 -0.2883
 6237W        W 8437   2.822   3.793   2.737  0.0571 -0.1533  0.2381
 6238W        W 8438   1.336   2.015  20.014  0.0778 -0.1720 -0.0434
 6239W        W 8439  12.351   2.132   7.020  0.2022  0.0300 -0.1027
 6240W        W 8440  19.709   1.418  31.412  0.1409 -0.0501 -0.1005
 6241W        W 8441   5.923   0.317  11.574 -0.2869  0.0548 -0.1056
 6242W        W 8442   3.788   0.304  30.379 -0.0003 -0.0110  0.1007
 6243W        W 8443  19.498   5.417  29.404  0.0348  0.0587  0.1555
 6244W        W 8444   8.733   6.593   2.259 -0.0980  0.0751  0.1610
 6245W        W 8445  19.384   4.629   1.938  0.0163  0.3777 -0.1454
 6246W        W 8446   2.926   3.807  26.877  0.1573  0.1873 -0.0836
 6247W        W 8447   8.578   3.814   1.128 -0.6029  0.2063  0.3433
 6248W        W 8448  14.417   1.518   2.845 -0.0934  0.2893 -0.1133
 6249W        W 8449  22.412   3.894  28.627 -0.1442 -0.0511 -0.2003
 6250W        W 8450  15.072   4.558  21.298  0.1918 -0.2126  0.0290
 6251W        W 8451  13.154   5.654  12.065  0.1680 -0.5034 -0.2513
 6252W        W 8452   6.307   1.840   9.664 -0.1853  0.2589 -0.0956
 6253W        W 8453  23.373   4.868   1.328  0.0363 -0.1467  0.0256
 6254W        W 8454  10.794   6.098   9.010 -0.1751  0.1552 -0.0728
 6255W        W 8455   5.508   1.461  23.704 -0.1503 -0.1395 -0.2921
 6256W        W 8456  19.330   1.776   0.441 -0.1712  0.0404 -0.4518
 6257W        W 8457  20.504   0.956   6.516 -0.3636 -0.1260  0.0282
 6258W        W 8458   9.279   6.979  31.083  0.0306  0.3972  0.0607
 6259W        W 8459  15.150   1.219  24.872 -0.1184  0.2609 -0.2734
 6260W        W 8460  20.883   1.642   5.394  0.2038 -0.1723 -0.1764
 6261W        W 8461  24.030   3.167   3.210 -0.2620 -0.2647  0.0124
 6262W        W 8462   0.270   3.830  24.003  0.0176 -0.2479 -0.0251
 6263W        W 8463  19.359   5.845   0.574 -0.3431 -0.3076  0.1844
 6264W        W 8464   5.506   4.535   1.357  0.0519  0.0526 -0.0328
 6265W        W 8465   4.272   6.582  22.477  0.0632  0.0856  0.0266
 6266W        W 8466  18.141   5.853  28.179 -0.3603  0.0505 -0.0102
 6267W        W 8467   1.144   5.926  27.093  0.0024 -0.0619  0.0391
 6268W        W 8468  15.387   5.696  30.975  0.0008  0.2474 -0.2591
 6269W        W 8469  16.925   4.909  27.856 -0.0793  0.1853  0.1820
 6270W        W 8470  16.130   6.074   3.006  0.0972  0.2299 -0.0691
 6271W        W 8471   3.286   4.679   1.231  0.1420  0.1951  0.2277
 6272W        W 8472   2.970   2.776  23.021 -0.1232 -0.0153 -0.0334
 6273W        W 8473   5.311   0.937  31.822  0.0962 -0.0178 -0.3653
 6274W        W 8474   0.636   0.932   2.963  0.0579  0.1205  0.3874
 6275W        W 8475  13.506   7.564   7.572  0.0697  0.0716 -0.2954
 6276W        W 8476   0.055   2.432   1.024  0.0066 -0.2381  0.2470
 6277W        W 8477  24.582   0.668  24.559  0.0698  0.2098  0.1051
 6278W        W 8478   5.980   5.689   8.670 -0.1087 -0.0521 -0.1382
 6279W        W 8479   5.186   5.806   5.096 -0.1318 -0.2321 -0.0802
 6280W        W 8480   8.452   1.292  17.627 -0.1859  0.1625  0.1006
 6281W        W 8481   8.538   3.787  23.911 -0.2919  0.1355 -0.2342
 6282W        W 8482  16.820   3.021  25.282 -0.0674  0.3827 -0.0857
 6283W        W 8483  16.219   2.143   2.249 -0.0988  0.0339 -0.2578
 6284W        W 8484  16.958   5.124  19.508 -0.3695  0.2201 -0.1431
 6285W        W 8485  13.527   0.513   0.788 -0.1011  0.0017 -0.0836
 6286W        W 8486   9.991   4.696   6.177  0.0848  0.0896 -0.1871
 6287W        W 8487  16.076   6.913   9.773 -0.1395  0.0735  0.0795
 6288W        W 8488  15.892   7.202   1.153  0.0366 -0.1724 -0.0794
 6289W        W 8489   4.302   3.049  23.339  0.4352  0.2109  0.0928
 6290W        W 8490  24.870   2.377  31.882 -0.0685 -0.2718  0.1484
 6291W        W 8491  11.917   3.476  31.577  0.2533  0.1786  0.3134
 6292W        W 8492  14.396   1.192   7.813  0.2750  0.0556 -0.1031
 6293W        W 8493   3.878   3.382   3.652  0.0834 -0.0649 -0.0859
 6294W        W 8494  15.455   7.482  29.183  0.2459 -0.2824  0.0020
 6295W        W 8495   0.611   1.212  11.593 -0.1715 -0.0424 -0.1446
 6296W        W 8496   9.856   2.217   1.181 -0.1141 -0.1358 -0.2230
 6297W        W 8497   2.945   3.036  10.944  0.1680 -0.0129  0.3969
 6298W        W 8498   4.512   3.114  13.041  0.1627 -0.1709 -0.0464
 6299W        W 8499  12.863   4.780  27.547 -0.1213 -0.0597 -0.1993
 6300W        W 8500  10.041   0.143   9.273  0.0382  0.1926  0.2428
 6301W        W 8501   5.427   5.871  27.536 -0.1727  0.0282  0.2465
 6302W        W 8502  12.242   1.359  25.818 -0.1692  0.1686 -0.3909
 6303W        W 8503   5.605   7.557   5.639 -0.3491 -0.3592 -0.0092
 6304W        W 8504   5.610   4.363  31.874 -0.2372 -0.1777  0.0806
 6305W        W 8505   1.968   0.763   1.583  0.1097 -0.1263  0.0055
 6306W        W 8506   4.558   7.277   2.640 -0.1335  0.0814  0.0102
 6307W        W 8507  20.963   4.611   5.424 -0.0879  0.2086 -0.0159
 6308W        W 8508  19.759   0.942  13.974  0.3389  0.2218  0.0898
 6309W        W 8509  20.773   0.106   4.722 -0.1769  0.0445  0.0725
 6310W        W 8510   6.234   3.939   7.264 -0.1883  0.1915  0.2890
 6311W        W 8511  13.195   4.780  11.932  0.3265  0.1108 -0.2991
 6312W        W 8512  20.922   3.190   6.477  0.3052  0.0189  0.0291
 6313W        W 8513  22.804   1.159  15.791  0.0377  0.1520  0.0620
 6314W        W 8514  20.962   7.465   0.316 -0.0574 -0.2644 -0.0502
 6315W        W 8515   7.212   7.820   4.097 -0.0711  0.1371  0.0210
 6316W        W 8516  17.980   0.861  19.809 -0.0873 -0.1680 -0.0964
 6317W        W 8517  22.356   5.495  18.575 -0.1488 -0.0357 -0.0352
 6318W        W 8518   2.624   1.031  27.177 -0.1463  0.0086 -0.2413
 6319W        W 8519  17.323   7.695  10.629  0.2396 -0.1327 -0.0279
 6320W        W 8520   5.567   4.389  13.638 -0.2460 -0.0521 -0.4158
 6321W        W 8521  22.343   4.206  16.581  0.0152  0.0689 -0.0366
 6322W        W 8522   4.879   1.586  12.966 -0.1485  0.3989  0.1041
 6323W        W 8523  17.656   5.087  10.368 -0.1007 -0.1121 -0.1639
 6324W        W 8524  19.676   2.223  32.278  0.3456 -0.0769  0.2789
 6325W        W 8525  10.345   5.302  11.992  0.0543 -0.4697  0.0358
 6326W        W 8526  20.269   1.261   9.158 -0.3456 -0.3207 -0.0325
 6327W        W 8527  18.831   6.012  24.587 -0.0774  0.2061  0.1256
 6328W        W 8528   8.426   0.183   6.657 -0.0746  0.1967  0.2031
 6329W        W 8529  21.673   2.350   1.093 -0.2142 -0.2256 -0.1312
 6330W        W 8530  23.271   1.969  22.707  0.0085  0.0600  0.1131
 6331W        W 8531   7.815   6.851  28.953 -0.1547 -0.0660  0.1118
 6332W        W 8532   4.255   2.277   0.487  0.1038  0.0984  0.3039
 6333W        W 8533  14.682   1.487   8.172 -0.2224  0.0202 -0.0894
 6334W        W 8534   3.925   6.092   6.980 -0.0776 -0.0149  0.0436
 6335W        W 8535  24.326   5.497  15.605 -0.3754 -0.0492  0.0705
 6336W        W 8536  15.372   0.601  32.241  0.2451  0.1925  0.4270
 6337W        W 8537  11.573   7.263  13.330 -0.1177  0.2780  0.1569
 6338W        W 8538  18.326   0.571   5.941  0.1986  0.0373  0.2423
 6339W        W 8539  19.613   7.239  28.585 -0.2346  0.0632  0.1301
 6340W        W 8540  19.260   3.037  31.766 -0.2128 -0.0674 -0.0102
 6341W        W 8541  21.891   4.015  22.688 -0.1353 -0.3319  0.3733
 6342W        W 8542  23.260   3.731  15.914  0.0248 -0.0818  0.0788
 6343W        W 8543  12.187   1.861   3.420  0.0924  0.0005  0.0187
 6344W        W 8544  20.104   5.263  16.728 -0.0231  0.1977 -0.3082
 6345W        W 8545  14.450   6.695  29.634  0.1806 -0.1234 -0.1519
 6346W        W 8546  22.068   5.864   2.885 -0.0391  0.1126  0.1315
 6347W        W 8547  23.766   3.407   1.848 -0.3961 -0.2673 -0.0757
 6348W        W 8548  24.886   3.744  30.831 -0.0759  0.1585  0.0537
 6349W        W 8549  13.267   3.430   4.204 -0.1263  0.0557  0.1168
 6350W        W 8550  17.485   2.184  30.190  0.0901  0.2403 -0.0258
 6351W        W 8551  21.719   3.208   4.657  0.1095 -0.1060 -0.0933
 6352W        W 8552   2.807   3.751   4.118 -0.0471  0.0044 -0.0809
 6353W        W 8553  18.173   0.046  29.936  0.4104  0.4375  0.0566
 6354W        W 8554  11.877   6.210   4.508 -0.5048 -0.2433 -0.0714
 6355W        W 8555  14.894   1.367  23.671  0.1688  0.0180  0.2140
 6356W        W 8556  12.322   6.112   2.395  0.0417  0.0639  0.0744
 6357W        W 8557   5.247   6.767  27.603 -0.2160 -0.3119 -0.0739
 6358W        W 8558  19.216   3.846  29.023 -0.0718  0.1243  0.1828
 6359W        W 8559  15.872   1.416  30.485  0.0241 -0.1705  0.0395
 6360W        W 8560  24.292   3.411   3.964  0.2496 -0.3545 -0.1008
 6361W        W 8561  11.547   2.592  29.890 -0.2797  0.2547  0.0612
 6362W        W 8562   6.536   2.209  31.737  0.0174 -0.1329  0.0068
 6363W        W 8563   3.747   5.974   8.488 -0.1925  0.2380  0.4493
 6364W        W 8564   6.064   5.066  15.946  0.2215  0.1299 -0.1331
 6365W        W 8565   0.270   1.148   6.363  0.3125 -0.0606  0.1581
 6366W        W 8566   1.045   2.236  31.427 -0.1293  0.3518 -0.1087
 6367W        W 8567  24.413   7.455   1.193 -0.0549  0.0848  0.2438
 6368W        W 8568  23.300   3.875   4.659  0.1750 -0.3339 -0.0008
 6369W        W 8569  20.003   2.783  32.619 -0.1656  0.1847  0.1331
 6370W        W 8570  20.280   3.993  20.338  0.2810  0.3417 -0.1028
 6371W        W 8571   9.963   4.367   3.871  0.0427 -0.1201 -0.0586
 6372W        W 8572  23.103   3.813  30.261 -0.0142 -0.1436  0.3080
 6373W        W 8573  14.501   7.757  12.380  0.1310  0.0199  0.3774
 6374W        W 8574  20.881   7.251  29.260  0.0689 -0.1071 -0.0187
 6375W        W 8575  17.733   4.754  21.450  0.1433  0.2141  0.2624
 6376W        W 8576   1.241   2.620  31.700 -0.1069  0.1577 -0.3354
 6377W        W 8577   1.559   1.966  21.289  0.0565 -0.0223  0.1210
 6378W        W 8578   8.400   2.063  22.833  0.1995  0.1036 -0.2598
 6379W        W 8579  14.658   3.300  11.648  0.0234 -0.0995 -0.1730
 6380W        W 8580  16.295   3.349  20.145  0.2524  0.0931 -0.0262
 6381W        W 8581  22.642   3.847  26.093 -0.0266 -0.1539  0.1988
 6382W        W 8582  16.233   7.185  10.428 -0.0545  0.2656  0.1054
 6383W        W 8583  16.930   4.539  16.717 -0.0019  0.2788 -0.0099
 6384W        W 8584   8.884   6.217  30.530  0.1836 -0.0623 -0.0552
 6385W        W 8585   0.793   7.273   9.994 -0.1455  0.0063 -0.4084
 6386W        W 8586  23.446   1.615   0.165  0.3719  0.1453  0.1668
 6387W        W 8587  14.678   6.646  26.820  0.0515 -0.1295 -0.2121
 6388W        W 8588   1.176   6.916  28.570 -0.1962  0.1895  0.0019
 6389W        W 8589  16.916   2.844   6.908  0.4748 -0.1320 -0.0459
 6390W        W 8590  10.502   2.246   9.495 -0.0101 -0.1233 -0.1808
 6391W        W 8591   4.093   4.377   0.395 -0.1727 -0.1393  0.0732
 6392W        W 8592  14.028   4.414  11.896  0.0259  0.0283  0.3095
 6393W        W 8593  22.796   6.128  19.095 -0.0247 -0.4084 -0.0858
 6394W        W 8594  15.311   2.632  18.901 -0.4822 -0.0656  0.2268
 6395W        W 8595   8.174   4.332   5.349 -0.1849  0.1491  0.2302
 6396W        W 8596  22.740   0.736  29.201 -0.0168  0.0549 -0.2065
 6397W        W 8597  10.964   0.854   4.492 -0.1295  0.2619 -0.0862
 6398W        W 8598  16.254   1.146  25.616  0.2029 -0.0003 -0.0513
 6399W        W 8599   1.576   2.631  30.325 -0.0523  0.0030  0.3027
 6400W        W 8600   8.123   1.564   9.179 -0.0303 -0.1746 -0.2861
 6401W        W 8601  18.203   2.901  19.658 -0.0490  0.2878 -0.3173
 6402W        W 8602  17.086   3.762   0.484 -0.0504  0.0889  0.0026
 6403W        W 8603  11.656   1.119   8.738  0.0747 -0.2628 -0.0478
 6404W        W 8604   9.273   6.027  10.449 -0.2252  0.0881  0.2048
 6405W        W 8605   8.909   5.129  10.719  0.0302 -0.0033 -0.2400
 6406W        W 8606  23.920   2.962  25.827  0.0816  0.4670  0.0811
 6407W        W 8607  13.136   0.526  26.492  0.1668  0.0166  0.1149
 6408W        W 8608  20.024   6.087  23.139 -0.0215 -0.1821  0.0408
 6409W        W 8609  24.916   3.091   8.564  0.3034  0.0279 -0.1592
 6410W        W 8610  23.669   0.413  20.101 -0.0040 -0.0312 -0.0831
 6411W        W 8611  21.754   6.293  31.010  0.3396  0.2998 -0.2578
 6412W        W 8612   5.835   6.355   5.226  0.3217  0.0385  0.1920
 6413W        W 8613   0.758   6.254   7.769  0.2341  0.0001  0.1123
 6414W        W 8614   0.559   7.759   6.461 -0.2593  0.1480  0.2634
 6415W        W 8615   9.705   1.139  10.953  0.0911 -0.2230 -0.1750
 6416W        W 8616  16.227   1.149  31.709  0.1702 -0.0355 -0.0647
 6417W        W 8617   7.226   2.811  32.708 -0.0016 -0.0940 -0.1456
 6418W        W 8618   7.306   4.134   4.128  0.0430  0.2845  0.0824
 6419W        W 8619  23.563   7.197  19.114 -0.0497 -0.0779  0.2156
 6420W        W 8620  23.656   3.875  27.194  0.0979 -0.2021  0.1390
 6421W        W 8621  12.731   4.558  27.125 -0.0886 -0.1200  0.2755
 6422W        W 8622  17.787   4.777  26.812 -0.1419 -0.0581  0.2787
 6423W        W 8623  16.068   1.076  26.117 -0.0303 -0.0432 -0.0296
 6424W        W 8624  19.164   6.026  20.810  0.0994  0.0619 -0.0814
 6425W        W 8625  21.381   2.977   8.017 -0.1248  0.1937 -0.0907
 6426W        W 8626  21.819   6.222   8.113  0.0945 -0.0484 -0.0252
 6427W        W 8627  24.710   6.761  31.300 -0.1885 -0.3351 -0.1517
 6428W        W 8628   6.117   7.054  23.874 -0.2675 -0.1096  0.1172
 6429W        W 8629  21.882   0.873   0.423 -0.3746 -0.1513  0.0993
 6430W        W 8630  20.892   1.541  21.631 -0.1355  0.1738  0.0116
 6431W        W 8631  11.470   5.986  24.582 -0.0369  0.1401  0.0323
 6432W        W 8632  17.070   6.033  23.878  0.0747 -0.0556  0.2912
 6433W        W 8633   7.915   3.122  22.437 -0.0599  0.0044 -0.1072
 6434W        W 8634  15.937   6.665  18.676 -0.2028  0.1617 -0.3160
 6435W        W 8635  23.578   0.187  23.512  0.0238  0.0075 -0.0749
 6436W        W 8636  13.015   7.196  15.214 -0.2982 -0.2409 -0.3401
 6437W        W 8637  14.814   4.167  11.508 -0.0253 -0.2687  0.1551
 6438W        W 8638  23.678   4.649  30.698 -0.0409  0.0387  0.2454
 6439W        W 8639   1.800   2.907   8.086 -0.1716 -0.3627  0.0789
 6440W        W 8640  20.449   2.304  22.787  0.0677  0.1330  0.0031
 6441W        W 8641  12.972   7.608   4.829 -0.3140 -0.2902  0.1896
 6442W        W 8642  19.729   0.258  31.664 -0.0550  0.1402 -0.2249
 6443W        W 8643  22.393   0.615  22.935 -0.1464 -0.3743 -0.0142
 6444W        W 8644  10.815   2.401   4.995  0.3536 -0.1049  0.0870
 6445W        W 8645   5.842   2.800   5.694  0.0477 -0.0180  0.2066
 6446W        W 8646   5.710   0.113  27.244  0.3867  0.0387 -0.0103
 6447W        W 8647   5.103   2.946  11.444  0.0239  0.1674  0.0696
 6448W        W 8648   9.380   6.836  28.220 -0.0943 -0.1050  0.1671
 6449W        W 8649   9.411   5.192   8.382  0.1983  0.1911 -0.0548
 6450W        W 8650  14.761   2.247  31.897 -0.0614 -0.1375 -0.1205
 6451W        W 8651  10.068   1.423  14.261  0.0869  0.0504 -0.0983
 6452W        W 8652  24.547   7.559   2.052 -0.1063 -0.0049  0.0830
 6453W        W 8653  23.039   6.539   1.383 -0.0051  0.0223  0.0524
 6454W        W 8654   3.002   5.370  31.501 -0.1783 -0.0819 -0.0751
 6455W        W 8655   7.800   0.107   1.038  0.0775  0.1880 -0.0906
 6456W        W 8656   2.902   4.294   2.925 -0.2498  0.1179 -0.4159
 6457W        W 8657   3.006   0.280  28.273 -0.1627 -0.0421 -0.0711
 6458W        W 8658  17.489   6.049  30.803  0.0519  0.1813 -0.2326
 6459W        W 8659  12.494   4.861   0.568  0.1499 -0.1178 -0.1447
 6460W        W 8660  22.223   7.378  19.280 -0.1115 -0.2075 -0.0248
 6461W        W 8661  12.260   2.538   6.163  0.1216 -0.0401 -0.4227
 6462W        W 8662   7.585   4.616  29.237  0.0927 -0.1343  0.1823
 6463W        W 8663   0.141   6.058  19.035 -0.0489  0.0710  0.1803
 6464W        W 8664  14.123   2.541  30.121 -0.2445 -0.1463  0.0293
 6465W        W 8665  13.818   0.256   1.815  0.1930 -0.3488 -0.1912
 6466W        W 8666  22.994   2.146  30.619 -0.1102 -0.2228  0.0223
 6467W        W 8667  22.123   0.656   0.945  0.0807 -0.0533  0.2093
 6468W        W 8668  18.373   0.785  21.070  0.1380 -0.0581 -0.1606
 6469W        W 8669  12.649   5.748  23.041  0.2990 -0.1607 -0.0184
 6470W        W 8670  14.437   7.037  21.821 -0.0356  0.3011 -0.0917
 6471W        W 8671  18.963   2.160  29.618 -0.1697 -0.0172  0.2834
 6472W        W 8672   5.315   2.191   7.490 -0.0463 -0.0394 -0.1564
 6473W        W 8673  24.835   3.726  18.373 -0.4113  0.1031 -0.1903
 6474W        W 8674  15.967   1.152   9.034 -0.2578 -0.0794 -0.1907
 6475W        W 8675  10.878   0.020  23.275 -0.2461  0.0680 -0.0501
 6476W        W 8676  20.790   2.536  22.478 -0.1027  0.2960  0.0283
 6477W        W 8677   6.341   6.390   1.932 -0.0243  0.2032  0.0256
 6478W        W 8678  17.722   0.249   4.894 -0.3182  0.0844  0.0323
 6479W        W 8679  21.232   4.049   2.773  0.1884  0.1302  0.0702
 6480W        W 8680   9.611   2.158  14.651  0.2029  0.3035 -0.0800
 6481W        W 8681  23.040   3.195  21.767  0.2689  0.0752  0.0297
 6482W        W 8682  11.423   0.754  17.635 -0.0525  0.0202  0.0059
 6483W        W 8683  16.148   6.914  22.959  0.2182 -0.1806 -0.1885
 6484W        W 8684   9.145   1.697   3.535 -0.1336 -0.2187  0.0609
 6485W        W 8685  18.284   2.406  19.662 -0.1143 -0.0247  0.1375
 6486W        W 8686  17.443   1.088   4.696 -0.1559 -0.0264  0.2038
 6487W        W 8687  19.436   1.620  25.699  0.1941  0.1161 -0.2014
 6488W        W 8688   5.958   3.265  15.811  0.1201  0.2827 -0.1466
 6489W        W 8689   3.657   2.875  32.531  0.2422  0.1464  0.0446
 6490W        W 8690  21.900   5.866  26.939 -0.2650  0.0703 -0.0893
 6491W        W 8691  19.749   3.833  31.432 -0.0750 -0.3020  0.0010
 6492W        W 8692  10.297   4.278  32.688  0.2075  0.0021  0.0925
 6493W        W 8693   7.133   6.359  12.103  0.0618 -0.0826 -0.0163
 6494W        W 8694  16.967   3.451   5.129 -0.1801  0.1014  0.1759
 6495W        W 8695   4.722   0.381   2.596  0.0853 -0.1049 -0.0283
 6496W        W 8696   4.481   1.695  12.663  0.0485  0.1987  0.0319
 6497W        W 8697  13.759   7.151  23.560  0.1236 -0.1154  0.0211
 6498W        W 8698  20.946   6.199  16.114  0.1090  0.0307 -0.0002
 6499W        W 8699  22.976   5.634  24.406 -0.0192 -0.0511 -0.0144
 6500W        W 8700  23.411   5.820   0.539  0.1210  0.3965  0.2429
 6501W        W 8701  10.116   1.301  27.174 -0.0941  0.0888 -0.0497
 6502W        W 8702  11.849   4.927   4.808  0.0804 -0.0166 -0.1478
 6503W        W 8703  11.003   1.230   9.304 -0.0436  0.0709  0.3908
 6504W        W 8704  10.736   6.071  13.271 -0.1601 -0.1678 -0.3028
 6505W        W 8705   6.671   4.113  31.290  0.1542  0.0315  0.1304
 6506W        W 8706   2.433   2.346   2.495 -0.1564  0.2299 -0.3517
 6507W        W 8707   8.609   5.772   7.953  0.0273  0.1994 -0.1242
 6508W        W 8708   9.951   3.359  24.608  0.1163  0.0319  0.1478
 6509W        W 8709   9.906   1.375   1.658  0.0596 -0.0761  0.2707
 6510W        W 8710  10.846   3.026   4.700 -0.0161  0.0141 -0.2369
 6511W        W 8711   3.706   2.208   1.688  0.2534  0.0033 -0.1393
 6512W        W 8712   1.689   5.500  23.664 -0.1032  0.0358 -0.4847
 6513W        W 8713   9.366   7.812  26.772  0.3399  0.0165  0.0923
 6514W        W 8714  23.092   0.961   6.312  0.0064  0.0824  0.0137
 6515W        W 8715  24.643   6.251  29.640 -0.2565 -0.1452  0.1593
 6516W        W 8716  15.168   5.253   7.615  0.2115 -0.1568 -0.2215
 6517W        W 8717  11.875   6.009  15.613 -0.1548 -0.0017  0.0368
 6518W        W 8718  21.215   4.630  28.574 -0.0819  0.0002  0.0051
 6519W        W 8719   6.393   5.337   9.946  0.1948  0.0129  0.0917
 6520W        W 8720   9.365   5.097  25.828 -0.1632  0.1319  0.0852
 6521W        W 8721  19.038   2.038   5.446 -0.0632  0.2387 -0.0151
 6522W        W 8722  14.434   2.375  21.012 -0.1247  0.0219 -0.1806
 6523W        W 8723  23.793   6.268   2.553 -0.0255  0.1193 -0.1282
 6524W        W 8724  18.198   6.121  29.101  0.0588  0.1661 -0.1082
 6525W        W 8725  12.631   1.404   3.431  0.1737  0.1709  0.2182
 6526W        W 8726   6.346   6.330   5.363 -0.0082 -0.0785 -0.1320
 6527W        W 8727  15.007   3.597  11.422  0.0663 -0.0422  0.0909
 6528W        W 8728   6.877   5.671   2.031  0.2030  0.1326 -0.1740
 6529W        W 8729  23.378   5.437  26.182 -0.1054 -0.1125 -0.0431
 6530W        W 8730  22.981   2.705   0.301 -0.2020  0.2929  0.2403
 6531W        W 8731  15.508   3.580  29.242 -0.2478 -0.0071  0.0903
 6532W        W 8732  23.544   5.323  24.957 -0.1340  0.3869  0.1972
 6533W        W 8733  19.222   6.940   6.829 -0.0983  0.0959  0.0390
 6534W        W 8734  13.163   6.072   2.533  0.2103  0.1260 -0.1175
 6535W        W 8735  15.641   5.967   0.534  0.2240 -0.0661 -0.0703
 6536W        W 8736  22.038   4.259  27.966  0.4173  0.1867  0.1975
 6537W        W 8737  11.289   3.913  25.023  0.4063  0.2331  0.1535
 6538W        W 8738   6.354   7.735   1.016 -0.2975  0.0748  0.0358
 6539W        W 8739  21.840   2.513   5.785 -0.0878  0.0127 -0.1011
 6540W        W 8740  11.922   6.762  25.916 -0.1254  0.3441 -0.3091
 6541W        W 8741   5.203   2.733  22.651  0.0262 -0.1838 -0.2104
 6542W        W 8742   0.910   7.582   6.727 -0.0659  0.2470  0.1300
 6543W        W 8743  10.807   1.836   4.744  0.0544 -0.1422 -0.0221
 6544W        W 8744  24.042   2.568   8.767  0.0852 -0.3005  0.1825
 6545W        W 8745  19.590   1.801   5.232  0.3038  0.0182  0.0644
 6546W        W 8746  24.858   6.778  30.355  0.2753  0.1462 -0.0354
 6547W        W 8747   6.633   5.229  31.673 -0.1434 -0.1994  0.1255
 6548W        W 8748  11.479   0.479  15.432 -0.1882  0.2386 -0.0125
 6549W        W 8749  19.150   5.242  27.286  0.0022 -0.0111 -0.0700
 6550W        W 8750  19.747   6.218  25.563  0.1103 -0.3262 -0.1178
 6551W        W 8751   6.763   0.642  23.983  0.0489  0.0597 -0.0904
 6552W        W 8752  20.465   7.062   8.734 -0.5936  0.0829  0.1225
 6553W        W 8753   1.894   1.605   5.299  0.0748 -0.1913 -0.0115
 6554W        W 8754   5.250   3.837  12.574 -0.0097  0.2325 -0.1118
 6555W        W 8755  19.955   6.783  22.664 -0.2084  0.1346 -0.0677
 6556W        W 8756  23.806   1.020  28.502 -0.1244  0.0354 -0.1991
 6557W        W 8757   1.189   4.712  10.252  0.0512 -0.3937  0.2524
 6558W        W 8758  15.880   3.194  21.914  0.0453  0.0466  0.4831
 6559W        W 8759   7.341   5.960  14.768  0.0744 -0.4066  0.1712
 6560W        W 8760   1.616   6.416  25.425 -0.2057 -0.0496  0.0498
 6561W        W 8761   2.472   6.186   1.903 -0.0226  0.0632 -0.1532
 6562W        W 8762  18.411   7.278  17.581 -0.5295  0.0280  0.0127
 6563W        W 8763   2.134   0.848   9.642  0.0646 -0.0686  0.3720
 6564W        W 8764  18.378   1.652   8.256 -0.1397 -0.3507 -0.1076
 6565W        W 8765   9.129   4.347  12.783 -0.1621  0.0346 -0.0707
 6566W        W 8766   3.781   5.289  24.456  0.0246 -0.2737 -0.0099
 6567W        W 8767   5.627   2.388  14.345  0.0334  0.3030  0.0909
 6568W        W 8768  22.267   6.753  25.153  0.0823  0.0484 -0.1752
 6569W        W 8769  12.405   0.501  10.368 -0.2461  0.2547 -0.1409
 6570W        W 8770  15.048   7.592   7.322 -0.1353  0.2315  0.0338
 6571W        W 8771   1.434   4.563   1.591 -0.2806 -0.1724  0.0816
 6572W        W 8772  20.029   3.595   0.318 -0.0477 -0.0064  0.1234
 6573W        W 8773   8.951   5.331   0.400 -0.1995 -0.1747 -0.1425
 6574W        W 8774  16.620   7.210  20.871  0.0143  0.2960  0.1564
 6575W        W 8775  20.207   5.164   2.632  0.1671  0.0131 -0.1343
 6576W        W 8776   8.995   3.655  32.151 -0.0300 -0.1329 -0.0171
 6577W        W 8777  15.273   3.589   4.765  0.1877  0.0537  0.1041
 6578W        W 8778  23.751   4.548  21.064 -0.0935  0.1759 -0.3511
 6579W        W 8779  12.113   5.051   0.819  0.2547 -0.0572  0.0813
 6580W        W 8780   6.438   4.639  24.868 -0.0438  0.0469 -0.0911
 6581W        W 8781  19.706   0.828  20.232 -0.1805  0.1126  0.0265
 6582W        W 8782  16.993   2.979   7.787 -0.2520 -0.1258  0.3646
 6583W        W 8783   8.717   4.305  30.925 -0.0711  0.3775 -0.0793
 6584W        W 8784   5.415   1.087  29.219  0.1133 -0.0732  0.0664
 6585W        W 8785  21.961   6.577   6.246 -0.0618  0.0594  0.1853
 6586W        W 8786  11.493   5.473  14.788  0.2074  0.2512 -0.3948
 6587W        W 8787   8.897   7.206  31.340 -0.0343 -0.0860  0.1331
 6588W        W 8788  11.444   0.763  13.561  0.0214  0.2008  0.1251
 6589W        W 8789   8.302   5.931  10.689 -0.1398 -0.1118 -0.2492
 6590W        W 8790  17.004   1.194  19.738 -0.1547  0.3827 -0.0521
 6591W        W 8791  23.382   6.882   7.447  0.3870 -0.1642  0.1078
 6592W        W 8792  19.820   5.598  26.821  0.1926  0.1370  0.0846
 6593W        W 8793  14.207   0.583  23.587  0.2665  0.1427  0.0567
 6594W        W 8794  18.056   0.328  30.310 -0.1867  0.1547  0.0499
 6595W        W 8795  14.511   6.702   0.679  0.1171  0.0639 -0.0497
 6596W        W 8796  22.281   6.440  18.808 -0.1072  0.2228 -0.3630
 6597W        W 8797   8.063   7.481  31.258 -0.1229  0.1879 -0.3806
 6598W        W 8798  23.319   6.196   6.608  0.0681  0.0216 -0.1664
 6599W        W 8799   0.554   7.361  21.963 -0.0920 -0.2275  0.1678
 6600W        W 8800  12.785   1.490   7.059  0.1384  0.0132  0.2776
 6601W        W 8801  17.819   1.976   9.341  0.2684  0.0727 -0.4191
 6602W        W 8802  23.660   1.141  29.158  0.2562  0.1563 -0.1714
 6603W        W 8803  11.009   4.877   4.234 -0.2867  0.0291  0.1487
 6604W        W 8804   2.757   1.557   4.522 -0.2424  0.0084 -0.1608
 6605W        W 8805   7.926   4.975  12.524  0.0216  0.1744  0.1274
 6606W        W 8806   4.197   2.682  26.855  0.2495 -0.1180 -0.0051
 6607W        W 8807  14.861   2.235  25.053 -0.1172 -0.0060 -0.0459
 6608W        W 8808  20.901   5.078  32.272 -0.3719  0.2801  0.2649
 6609W        W 8809   1.753   4.551  27.835  0.1637 -0.0624 -0.2112
 6610W        W 8810   9.795   0.557   1.327  0.1899  0.3297  0.0560
 6611W        W 8811  15.159   4.260   3.546  0.0634 -0.1009 -0.0448
 6612W        W 8812  10.966   1.707   1.919 -0.1935  0.1638  0.2451
 6613W        W 8813  24.245   6.212  32.408 -0.3684 -0.2715  0.0165
 6614W        W 8814   1.023   7.758  30.354  0.2939 -0.0832  0.0489
 6615W        W 8815   9.752   5.497  24.553 -0.0135 -0.1125  0.4713
 6616W        W 8816  20.998   7.413   9.872 -0.1083 -0.0654 -0.0288
 6617W        W 8817  15.069   0.489  28.745 -0.1171  0.1486  0.0839
 6618W        W 8818  14.330   3.335  24.345 -0.4160  0.1079  0.1445
 6619W        W 8819   2.859   2.644  11.753 -0.1086  0.0951 -0.2915
 6620W        W 8820   6.699   4.929  14.322 -0.1913 -0.1926 -0.0139
 6621W        W 8821  23.600   5.459  19.163  0.0865 -0.1052  0.2669
 6622W        W 8822   3.847   5.907  31.027 -0.1984 -0.0461 -0.0505
 6623W        W 8823   8.368   4.126   6.710 -0.0385  0.1559 -0.2425
 6624W        W 8824   0.046   2.643  19.432 -0.0978 -0.2817  0.0070
 6625W        W 8825   3.407   4.496  24.317 -0.0869 -0.1697  0.2838
 6626W        W 8826   4.629   7.318  28.227  0.2168  0.4716  0.3253
 6627W        W 8827   0.012   1.126  32.201 -0.3080 -0.0100  0.5060
 6628W        W 8828  22.505   7.016  23.686 -0.0964 -0.0350 -0.2725
 6629W        W 8829  20.889   6.983   7.902  0.0064 -0.1718 -0.2708
 6630W        W 8830   1.577   2.125   0.139  0.1633  0.0837 -0.1029
 6631W        W 8831  21.777   5.707  31.506  0.0664  0.3916  0.2105
 6632W        W 8832   8.879   4.210   5.018  0.1865 -0.4416 -0.2683
 6633W        W 8833  24.061   0.245   1.149 -0.3064  0.0176 -0.2593
 6634W        W 8834  16.650   0.395  21.582  0.0573  0.2149 -0.2661
 6635W        W 8835  14.346   4.706  28.133 -0.2986  0.2612 -0.3051
 6636W        W 8836  17.863   1.335   3.529 -0.4156 -0.2552  0.2018
 6637W        W 8837  13.769   4.589  30.234  0.1000  0.0115  0.0066
 6638W        W 8838  17.627   3.087  31.671 -0.2729 -0.0590  0.0068
 6639W        W 8839   1.044   3.994  31.428  0.1279  0.2641  0.0664
 6640W        W 8840  21.075   3.233  19.934 -0.2110  0.0985 -0.1943
 6641W        W 8841   8.228   2.952  29.082  0.2403 -0.0363  0.0182
 6642W        W 8842  12.209   4.435   1.323 -0.0080  0.1433 -0.1290
 6643W        W 8843   2.596   2.008   2.825  0.1780  0.0636  0.1669
 6644W        W 8844  14.250   0.054  26.110 -0.0784  0.1588  0.1951
 6645W        W 8845  17.774   4.159   4.408 -0.2115  0.0333  0.2205
 6646W        W 8846  18.828   4.166   3.672 -0.0309  0.0819  0.1701
 6647W        W 8847   1.407   0.406  19.150  0.0655 -0.0528 -0.1212
 6648W        W 8848  12.138   6.905  12.841 -0.3199 -0.1483 -0.0456
 6649W        W 8849  11.764   7.586   4.405 -0.1108 -0.2367  0.1181
 6650W        W 8850  12.963   3.401  27.616 -0.3055 -0.2130  0.2472
 6651W        W 8851  19.464   5.774  15.489  0.1867  0.1239  0.1154
 6652W        W 8852  24.648   5.623   6.446 -0.0384  0.0841  0.3064
 6653W        W 8853   4.700   5.535   1.235  0.1512 -0.0550  0.0977
 6654W        W 8854  11.527   1.207  14.025 -0.1311  0.0390  0.1938
 6655W        W 8855  22.721   3.507   6.406 -0.0438  0.1853 -0.1069
 6656W        W 8856   8.978   6.941  22.810 -0.0407 -0.0400  0.0672
 6657W        W 8857   3.428   6.499  28.677 -0.1240 -0.1392  0.1586
 6658W        W 8858  23.464   2.901  26.586  0.0907 -0.0054  0.2349
 6659W        W 8859  16.760   6.833   0.986  0.0787  0.4576  0.1529
 6660W        W 8860   2.543   2.995  30.655  0.0398  0.1699 -0.3207
 6661W        W 8861   4.381   1.551  14.259  0.0787 -0.0686 -0.1429
 6662W        W 8862  25.037   2.314  26.075  0.1182 -0.3466  0.3284
 6663W        W 8863   8.715   7.553  23.641 -0.1650 -0.0491  0.0119
 6664W        W 8864  22.934   2.596   8.046 -0.3206 -0.0009  0.0008
 6665W        W 8865   4.980   4.023  11.094 -0.1194 -0.1516  0.5058
 6666W        W 8866  18.111   2.562  27.018  0.1352  0.0376  0.1574
 6667W        W 8867  24.615   4.976  19.655 -0.1458 -0.1616 -0.1222
 6668W        W 8868  16.909   3.297  32.237  0.0906 -0.0108  0.2818
 6669W        W 8869  23.489   5.131  31.158  0.1290  0.2104 -0.3165
 6670W        W 8870  14.426   3.777  24.423  0.1508 -0.2789  0.2227
 6671W        W 8871  10.116   0.381   5.411 -0.1245 -0.3494 -0.0767
 6672W        W 8872  24.573   0.869  21.525 -0.2037 -0.0516 -0.1271
 6673W        W 8873  14.757   4.865  27.766 -0.2659 -0.2303 -0.1524
 6674W        W 8874  11.652   5.289   2.106 -0.0070  0.2680  0.3850
 6675W        W 8875  11.033   4.845  25.006  0.0831  0.1083 -0.1780
 6676W        W 8876  22.984   1.748  25.611  0.2140  0.2276 -0.0049
 6677W        W 8877  18.495   6.898  15.889  0.0559  0.1966 -0.1381
 6678W        W 8878  24.476   1.631  31.702  0.2313 -0.0225 -0.0279
 6679W        W 8879  20.552   5.579   8.830 -0.0916 -0.3549  0.0649
 6680W        W 8880  17.578   3.670  15.902 -0.1735 -0.3941 -0.0194
 6681W        W 8881   3.338   5.217  29.315  0.1279  0.0767 -0.0988
 6682W        W 8882  13.591   5.685   9.859 -0.0584  0.1063  0.1874
 6683W        W 8883  16.824   2.344  32.603 -0.1788 -0.2079  0.0253
 6684W        W 8884  23.029   6.847  16.822 -0.1870  0.1122  0.4890
 6685W        W 8885   1.675   5.114   3.434 -0.1611  0.2197  0.1268
 6686W        W 8886   2.462   4.421  22.621 -0.0035  0.3741  0.1106
 6687W        W 8887  23.761   1.631  16.182  0.1220  0.0893 -0.1901
 6688W        W 8888   9.825   4.701  24.031 -0.2131  0.0017 -0.1941
 6689W        W 8889   3.096   7.002   8.018 -0.1039  0.0041  0.2039
 6690W        W 8890   8.478   0.029  29.202  0.1026 -0.1091  0.0054
 6691W        W 8891  17.314   6.158  31.666 -0.1404  0.1022  0.0572
 6692W        W 8892  15.939   6.746   1.374  0.3011  0.0801  0.0325
 6693W        W 8893   8.578   2.673  23.768 -0.0112  0.2030 -0.0262
 6694W        W 8894  11.841   7.666  30.008  0.0160  0.1171 -0.0111
 6695W        W 8895  15.910   5.399   4.145 -0.3212 -0.4081 -0.0571
 6696W        W 8896  22.500   2.800  14.435 -0.2290 -0.0118  0.1119
 6697W        W 8897  18.403   4.976   9.799  0.2955 -0.2766  0.1449
 6698W        W 8898   2.511   0.660  30.892  0.2872 -0.1337  0.0715
 6699W        W 8899   8.552   4.264  11.061 -0.0002  0.0430 -0.1310
 6700W        W 8900   6.844   3.895  23.038  0.0723  0.1990 -0.1290
 6701W        W 8901   5.481   3.547   7.800 -0.1865  0.2616 -0.0266
 6702W        W 8902  23.054   3.330  30.789  0.0479 -0.1739 -0.3237
 6703W        W 8903  16.284   0.380  27.749  0.1777  0.0709  0.1442
 6704W        W 8904  10.608   0.611   5.845  0.0434  0.2996  0.1424
 6705W        W 8905  23.045   5.156  27.080  0.0355 -0.0998  0.1216
 6706W        W 8906  17.413   5.793  23.571 -0.0163 -0.0150  0.3534
 6707W        W 8907   5.140   6.106  23.423 -0.0425  0.1648  0.1679
 6708W        W 8908  17.438   6.906  20.857 -0.1324 -0.5260 -0.2071
 6709W        W 8909   8.096   0.913  31.492  0.1359 -0.0186  0.0292
 6710W        W 8910  16.037   5.905   8.638  0.3671 -0.2647 -0.0227
 6711W        W 8911  23.625   0.990  27.710 -0.1767  0.1020 -0.0893
 6712W        W 8912  20.784   1.728   4.418  0.0504  0.0740  0.1404
 6713W        W 8913   5.782   7.624  13.912  0.2378 -0.0545 -0.2881
 6714W        W 8914   3.025   2.352   6.532  0.2286 -0.1157  0.0237
 6715W        W 8915  16.473   2.425  29.059 -0.1609 -0.1121  0.0059
 6716W        W 8916  19.110   5.327  10.006 -0.0592 -0.3255  0.0285
 6717W        W 8917  19.834   5.726   0.683 -0.2575  0.3100  0.2269
 6718W        W 8918  15.521   4.807   7.497  0.5171  0.3003  0.0433
 6719W        W 8919  19.834   2.429  18.249  0.0998 -0.2975 -0.2846
 6720W        W 8920  24.645   3.381   1.476 -0.2968  0.3469  0.0709
 6721W        W 8921   6.092   2.892  11.186 -0.0523  0.0006  0.1840
 6722W        W 8922   5.854   6.922  13.087 -0.1864 -0.0514 -0.1367
 6723W        W 8923   4.783   6.729   9.013  0.2133  0.0050 -0.1822
 6724W        W 8924  18.861   3.236  26.619  0.1901 -0.0416 -0.0978
 6725W        W 8925  14.288   4.971  29.686  0.1726  0.2901 -0.1099
 6726W        W 8926   9.412   0.665   9.312 -0.1565  0.0105  0.3029
 6727W        W 8927  22.394   7.403  28.276 -0.0294  0.1643 -0.3420
 6728W        W 8928  18.929   1.647  17.001 -0.1327 -0.1937 -0.0168
 6729W        W 8929  22.789   6.297   7.951 -0.0537  0.1832  0.1351
 6730W        W 8930  24.650   6.752   1.545 -0.0980 -0.2210  0.1390
 6731W        W 8931  10.407   6.598  30.263  0.3430 -0.1742 -0.1192
 6732W        W 8932  14.677   5.113   7.628  0.0238  0.0106  0.1279
 6733W        W 8933  18.205   6.444  30.434  0.0890  0.2326  0.2962
 6734W        W 8934   6.110   0.613  30.850  0.1481 -0.0763  0.0719
 6735W        W 8935  19.629   3.766  22.147  0.3858 -0.2169  0.1304
 6736W        W 8936   5.769   7.692  29.005  0.1264 -0.1018 -0.0604
 6737W        W 8937   3.778   0.438  10.082  0.0231  0.3801 -0.1659
 6738W        W 8938  20.279   0.594  10.017  0.1406  0.1763  0.0816
 6739W        W 8939  17.995   4.565  31.668  0.0203 -0.0529 -0.3591
 6740W        W 8940  20.302   5.474   6.476  0.0474 -0.1308 -0.1581
 6741W        W 8941  11.523   6.536  25.643  0.1338 -0.1230  0.0362
 6742W        W 8942  14.158   0.103  11.873 -0.1346 -0.0243 -0.0267
 6743W        W 8943   6.998   1.923  14.966 -0.2887  0.0784 -0.1373
 6744W        W 8944  23.608   6.787  15.706 -0.0197  0.0269 -0.0635
 6745W        W 8945  21.951   1.600  27.226 -0.1704  0.1222  0.0322
 6746W        W 8946  13.634   7.173  26.121 -0.1076  0.2475 -0.2175
 6747W        W 8947  21.270   5.664  26.398  0.1027 -0.2038  0.1174
 6748W        W 8948  24.554   5.006  31.648  0.0635 -0.0764 -0.1468
 6749W        W 8949   3.752   4.293  30.920  0.1701 -0.3123  0.1684
 6750W        W 8950   0.247   3.563   9.098 -0.0676  0.1759 -0.0044
 6751W        W 8951  21.707   2.270   5.188  0.0217  0.1724 -0.0619
 6752W        W 8952   4.505   2.588  15.777 -0.2122  0.1168  0.1228
 6753W        W 8953   2.450   2.294  31.255 -0.1520  0.2069  0.0071
 6754W        W 8954  24.702   3.820   6.417 -0.0454 -0.0326 -0.0552
 6755W        W 8955   9.892   6.103  19.322 -0.1241 -0.0008  0.3499
 6756W        W 8956   3.077   4.070   6.630 -0.0230 -0.2873  0.3385
 6757W        W 8957  18.754   6.959  28.202 -0.1054  0.0051 -0.3560
 6758W        W 8958  23.171   1.656  15.246 -0.1562 -0.1966 -0.2364
 6759W        W 8959  14.133   7.286  11.150 -0.1778  0.0954  0.0981
 6760W        W 8960  12.192   7.316  25.935  0.1798 -0.0373  0.1657
 6761W        W 8961  18.290   2.150  27.975 -0.2038 -0.2288 -0.1420
 6762W        W 8962  17.790   6.248   4.318  0.1532  0.0477 -0.2066
 6763W        W 8963  20.514   0.202   9.736 -0.1259 -0.0273  0.1259
 6764W        W 8964   5.507   1.090  17.255 -0.0306  0.1974 -0.5170
 6765W        W 8965   1.724   4.648  12.603 -0.0991  0.3959  0.0610
 6766W        W 8966  23.545   0.302  31.851 -0.0364 -0.1966 -0.0689
 6767W        W 8967  22.674   4.455  25.282 -0.1780 -0.0763 -0.0338
 6768W        W 8968   4.820   0.542   2.069 -0.3396 -0.0151 -0.2606
 6769W        W 8969  12.748   4.840  11.422  0.0757 -0.0177  0.1271
 6770W        W 8970  23.040   1.528  19.736  0.0773  0.2998  0.1636
 6771W        W 8971  20.394   6.797  23.349  0.1795  0.2886  0.1194
 6772W        W 8972  19.590   5.126  15.624  0.0524 -0.1284 -0.2514
 6773W        W 8973  14.322   5.792  28.641 -0.4296  0.1755 -0.1620
 6774W        W 8974  16.032   4.622  32.544 -0.0926 -0.2968 -0.2624
 6775W        W 8975  24.095   6.291   0.975 -0.1138 -0.3498  0.0560
 6776W        W 8976   9.616   1.227  10.473 -0.1005  0.1060 -0.0612
 6777W        W 8977  24.204   1.567   5.982 -0.0732  0.0407  0.0729
 6778W        W 8978  10.438   0.809  29.723 -0.2455 -0.0319  0.1250
 6779W        W 8979   2.207   2.270   7.247  0.1507  0.0449  0.1447
 6780W        W 8980  10.945   2.044   9.702  0.3686  0.1502  0.3452
 6781W        W 8981  20.110   2.754  19.655  0.2687 -0.4858 -0.1092
 6782W        W 8982   1.532   6.094  28.395  0.2219 -0.3703 -0.1286
 6783W        W 8983  20.231   5.711  22.486  0.1972  0.1229  0.0793
 6784W        W 8984  22.756   1.273  30.436  0.0013 -0.0193  0.1121
 6785W        W 8985   7.303   4.289  29.519  0.0779 -0.1036 -0.0113
 6786W        W 8986  12.028   6.170  30.463 -0.0798 -0.1726  0.0551
 6787W        W 8987  10.860   7.618  15.913 -0.1140  0.0816 -0.1286
 6788W        W 8988   4.117   3.171  31.502 -0.0282  0.0059 -0.0324
 6789W        W 8989   3.912   0.272  11.089 -0.4027  0.2178 -0.3401
 6790W        W 8990  13.071   6.323   6.575  0.0044 -0.1212  0.2499
 6791W        W 8991  23.185   7.468  28.985  0.4010  0.2233 -0.0310
 6792W        W 8992   6.168   5.749  31.564 -0.0815 -0.0468  0.0348
 6793W        W 8993   3.304   2.284   5.634  0.0025 -0.1349 -0.0764
 6794W        W 8994  10.074   4.466   0.696  0.1039  0.0386 -0.0854
 6795W        W 8995  16.642   4.210  22.850  0.2618  0.1219 -0.1060
 6796W        W 8996   5.960   4.221  31.535 -0.0715  0.1312  0.0913
 6797W        W 8997   3.719   6.046  29.075  0.3215 -0.0687 -0.0623
 6798W        W 8998   0.030   2.819  27.379 -0.0119  0.0994  0.1171
 6799W        W 8999  12.766   1.720  24.839  0.0869 -0.1850  0.0040
 6800W        W 9000  16.864   4.889  23.878  0.1915  0.2471  0.0202
 6801W        W 9001  22.575   0.818  31.183 -0.0304  0.2023  0.2531
 6802W        W 9002  17.909   6.039  26.945  0.0529 -0.0340 -0.2030
 6803W        W 9003   8.161   4.999   7.941  0.0139  0.2133  0.1048
 6804W        W 9004   1.369   2.308  29.900  0.3596 -0.1934 -0.1128
 6805W        W 9005  16.894   3.565  19.054 -0.1451 -0.1785 -0.0128
 6806W        W 9006  12.085   0.618  29.958  0.1044  0.0049  0.0710
 6807W        W 9007  12.593   7.498  31.654  0.1381 -0.0582 -0.1527
 6808W        W 9008   9.033   0.365   9.307 -0.1495  0.0779  0.2477
 6809W        W 9009   7.068   2.110  30.049 -0.1210 -0.0409  0.0005
 6810W        W 9010  16.192   1.995  30.775  0.0710  0.0048 -0.0284
 6811W        W 9011   7.250   1.704  18.571  0.0699 -0.2407  0.0522
 6812W        W 9012  20.112   6.262  23.599  0.2397  0.0451  0.1512
 6813W        W 9013   7.700   1.545   0.033  0.1142 -0.1276 -0.2844
 6814W        W 9014  11.918   0.933   1.959 -0.0747  0.0692  0.1979
 6815W        W 9015  14.930   7.350  25.435  0.2207  0.1173  0.1738
 6816W        W 9016   7.918   1.722  11.187 -0.2730 -0.1139  0.1992
 6817W        W 9017   3.988   2.155  13.620  0.0811 -0.1328 -0.0299
 6818W        W 9018  14.810   5.399   0.995  0.2295  0.0861 -0.1176
 6819W        W 9019   3.791   6.776  22.453 -0.2300 -0.1174  0.2012
 6820W        W 9020  12.810   0.656  31.724 -0.3294  0.3393 -0.1126
 6821W        W 9021   5.906   0.950  13.153  0.0522  0.0328  0.3016
 6822W        W 9022  16.053   5.286  30.069  0.1928  0.0221 -0.0126
 6823W        W 9023  23.308   7.475  16.709 -0.0708 -0.1147 -0.2589
 6824W        W 9024   9.378   6.946   3.295  0.2231  0.0176  0.1837
 6825W        W 9025  23.223   6.966   4.635 -0.0996 -0.1452  0.2113
 6826W        W 9026   2.996   2.438   0.178  0.1202  0.0167 -0.1689
 6827W        W 9027  15.434   4.124   7.983 -0.1476 -0.0772  0.1613
 6828W        W 9028  10.338   2.300   0.007 -0.1205 -0.2474  0.0262
 6829W        W 9029   3.597   6.348  25.053 -0.0965 -0.1134  0.5079
 6830W        W 9030  21.193   3.945  25.972 -0.3673 -0.2769  0.2422
 6831W        W 9031  13.884   4.420   5.140 -0.1724  0.1545  0.0946
 6832W        W 9032  19.275   3.700  15.143  0.0062  0.1189 -0.2061
 6833W        W 9033   6.557   0.388  24.418  0.1684 -0.2250  0.1412
 6834W        W 9034  13.266   2.636   8.097 -0.0267  0.0046  0.1049
 6835W        W 9035   8.292   2.525  10.839  0.1402  0.0753 -0.2374
 6836W        W 9036   3.914   4.589  24.967  0.1219 -0.1005 -0.0498
 6837W        W 9037  17.532   4.482  21.052 -0.0868  0.0616  0.0442
 6838W        W 9038  10.656   1.416   7.376  0.1354  0.0217  0.3293
 6839W        W 9039  15.506   0.669   4.919  0.1920  0.1205  0.0262
 6840W        W 9040   9.391   5.583  26.008 -0.1298 -0.1474 -0.0167
 6841W        W 9041  24.233   1.599  25.768 -0.0614 -0.4155  0.0084
 6842W        W 9042  12.698   0.028   8.760  0.2966  0.1238 -0.2648
 6843W        W 9043  17.477   7.197   8.087  0.0737  0.1947 -0.3004
 6844W        W 9044  19.888   5.116   3.199  0.2811 -0.3245 -0.1330
 6845W        W 9045  12.405   3.534  15.308 -0.0209 -0.2391  0.0553
 6846W        W 9046   4.106   2.211  10.959  0.0183 -0.0851  0.1506
 6847W        W 9047   6.801   3.578   9.134  0.0394 -0.3371  0.0448
 6848W        W 9048   8.547   6.700  26.420  0.1525  0.0731 -0.1074
 6849W        W 9049   4.468   5.984  24.288 -0.0186  0.2214 -0.1166
 6850W        W 9050  22.356   0.871  17.584  0.1084 -0.1800  0.0763
 6851W        W 9051  13.480   2.061  29.395 -0.0554  0.4109  0.0609
 6852W        W 9052  16.584   3.897   0.082 -0.0235 -0.0403 -0.5501
 6853W        W 9053   8.144   0.797   3.950 -0.2421  0.0998  0.1422
 6854W        W 9054  11.641   0.149  27.660 -0.2654 -0.0582 -0.1250
 6855W        W 9055   0.384   2.710   7.553 -0.3384  0.0818 -0.0349
 6856W        W 9056  21.416   4.474  16.440  0.0402  0.1945 -0.4106
 6857W        W 9057  12.229   0.730  27.488 -0.1596 -0.1805  0.0323
 6858W        W 9058  12.683   3.597   3.156  0.0676  0.0263  0.2287
 6859W        W 9059   6.386   0.729   4.931 -0.0694  0.1821  0.0693
 6860W        W 9060  23.197   7.773  31.811 -0.1748  0.1125 -0.0268
 6861W        W 9061   7.481   0.144  12.848 -0.1135  0.0317  0.0776
 6862W        W 9062   9.998   1.997   0.717  0.0357  0.1220 -0.3273
 6863W        W 9063  23.552   3.024  20.264  0.2455 -0.0599 -0.0169
 6864W        W 9064  22.780   3.464  19.119 -0.0267  0.0797 -0.1045
 6865W        W 9065  24.151   0.475   1.589 -0.0810  0.0420 -0.0942
 6866W        W 9066  18.306   2.426  16.592 -0.0119 -0.1822 -0.3984
 6867W        W 9067  15.152   2.463   3.228  0.4968  0.3452 -0.1592
 6868W        W 9068   4.930   2.396  32.575 -0.0380  0.1322 -0.1264
 6869W        W 9069  23.035   6.526   5.871 -0.0751 -0.2034 -0.1973
 6870W        W 9070   7.910   7.467  11.972  0.2128 -0.2148  0.0716
 6871W        W 9071   3.153   5.330  26.238 -0.1561  0.0443  0.0300
 6872W        W 9072  20.385   4.478   1.963 -0.2310  0.1430  0.1243
 6873W        W 9073  19.678   6.411  22.338  0.2063  0.0847  0.3036
 6874W        W 9074  22.669   2.152  24.326 -0.0150 -0.0816  0.1012
 6875W        W 9075  16.087   2.484   1.945 -0.2588 -0.0310  0.3094
 6876W        W 9076   2.525   0.801  29.370  0.0058 -0.3608 -0.0506
 6877W        W 9077  11.769   1.757  26.581  0.0836  0.0516  0.1528
 6878W        W 9078   0.375   7.424  12.011  0.1333  0.0127 -0.2244
 6879W        W 9079  14.846   3.856  21.763 -0.2037  0.1738  0.0249
 6880W        W 9080   9.509   0.886  28.900 -0.1460 -0.0355 -0.2205
 6881W        W 9081  22.264   4.371  31.136  0.1590 -0.2076  0.1035
 6882W        W 9082   3.598   4.089  23.229  0.0510 -0.1094  0.0504
 6883W        W 9083   9.419   7.328  15.090  0.3523 -0.0431 -0.0735
 6884W        W 9084  10.695   6.336  30.502 -0.3909  0.0145  0.3370
 6885W        W 9085  15.462   7.744   7.076 -0.1838  0.0741  0.0211
 6886W        W 9086  15.340   6.986   8.914  0.1231  0.1660 -0.2312
 6887W        W 9087  22.626   6.573   5.513 -0.0549  0.0435 -0.3318
 6888W        W 9088  16.404   3.498  25.917 -0.0118 -0.3174  0.0014
 6889W        W 9089   8.410   5.226   9.711  0.1509 -0.2046  0.2169
 6890W        W 9090  12.754   2.943  31.608 -0.0146 -0.1121 -0.0348
 6891W        W 9091   4.718   2.106   9.673  0.1211 -0.0346  0.1069
 6892W        W 9092  17.844   3.119  20.922  0.3549 -0.0376  0.1294
 6893W        W 9093  20.137   3.775  22.273 -0.0170  0.1450 -0.0629
 6894W        W 9094  24.838   0.273   4.164 -0.2476 -0.0837  0.2140
 6895W        W 9095  10.294   4.139  29.663 -0.1200 -0.0880  0.0619
 6896W        W 9096  12.173   2.499  13.254  0.1789  0.1364  0.2930
 6897W        W 9097   0.024   2.412   5.939  0.0739  0.1190  0.0340
 6898W        W 9098   5.923   2.654  14.049  0.0186 -0.3303  0.2450
 6899W        W 9099   9.492   5.452  13.436 -0.0701 -0.2987 -0.1710
 6900W        W 9100  14.724   2.065   7.577 -0.1307 -0.0332 -0.1396
 6901W        W 9101   9.450   0.190  29.731 -0.3242  0.1752  0.0196
 6902W        W 9102  14.252   0.244   2.624 -0.0723 -0.3168 -0.0772
 6903W        W 9103   5.589   1.333  30.302  0.1439 -0.1215  0.0257
 6904W        W 9104  12.824   5.817  23.513  0.1247  0.0103 -0.1927
 6905W        W 9105  18.372   2.724  19.134 -0.2682 -0.0861  0.0153
 6906W        W 9106  21.824   7.249   5.557  0.1499 -0.0058 -0.3006
 6907W        W 9107  24.665   7.308  10.739 -0.0847  0.0330 -0.2017
 6908W        W 9108  15.229   2.333   4.619 -0.1915  0.1656  0.3327
 6909W        W 9109  18.301   5.069  14.378 -0.2477  0.1426 -0.1133
 6910W        W 9110   5.561   3.370   7.282  0.0440 -0.1210 -0.0002
 6911W        W 9111   2.257   1.928  19.628  0.2299  0.0513  0.1530
 6912W        W 9112  15.861   7.330  32.002 -0.0057  0.1106 -0.2149
 6913W        W 9113  19.293   4.156  22.184  0.0641 -0.2859 -0.2149
 6914W        W 9114  13.790   0.051  25.840 -0.3602  0.2890 -0.0825
 6915W        W 9115  22.281   4.082   4.820  0.3334 -0.1441  0.0036
 6916W        W 9116   6.443   5.425   8.585  0.1902 -0.0631  0.0790
 6917W        W 9117  14.470   1.466  27.491 -0.0029  0.0112 -0.2807
 6918W        W 9118  24.656   6.064  10.627  0.1359 -0.2074  0.0696
 6919W        W 9119   0.195   3.060   3.719  0.1518  0.0535 -0.1808
 6920W        W 9120  20.025   2.784  28.657  0.1393  0.2981 -0.3219
 6921W        W 9121  22.407   1.248   2.493 -0.3928 -0.0170  0.0069
 6922W        W 9122   1.559   4.348  21.196  0.0386  0.2125 -0.1029
 6923W        W 9123  18.018   0.220   6.859 -0.1379  0.2868  0.1124
 6924W        W 9124   1.003   5.107  18.453  0.0630 -0.0909 -0.1124
 6925W        W 9125  21.008   2.279  14.813 -0.2657  0.0804 -0.1257
 6926W        W 9126   9.423   7.066   3.802 -0.0663 -0.0711  0.0245
 6927W        W 9127   3.960   0.785  26.834 -0.1235  0.0992 -0.3876
 6928W        W 9128  20.529   2.941  31.175 -0.0726  0.1400 -0.0856
 6929W        W 9129  12.491   7.163  24.013 -0.1210  0.1166  0.0799
 6930W        W 9130  15.049   1.827  29.940  0.3155 -0.1514 -0.0286
 6931W        W 9131   0.203   1.412   7.952  0.0733 -0.2538  0.1825
 6932W        W 9132  16.494   7.349  17.359  0.1056 -0.0564  0.1440
 6933W        W 9133  18.560   1.051  29.842 -0.3204  0.1920  0.1415
 6934W        W 9134   7.101   2.328  16.829  0.3758  0.1910  0.0522
 6935W        W 9135   5.337   6.469   7.845  0.0286 -0.1760 -0.1551
 6936W        W 9136  21.861   6.283  16.058 -0.2774 -0.0466  0.1007
 6937W        W 9137  16.271   4.719  21.993 -0.1604 -0.2920  0.1434
 6938W        W 9138  23.344   2.095  29.904 -0.0862 -0.0366  0.0643
 6939W        W 9139   9.392   3.031  29.574 -0.1325  0.1987  0.1592
 6940W        W 9140  13.370   2.844  31.536 -0.0389  0.1065 -0.0475
 6941W        W 9141  22.102   3.297   3.224  0.3782  0.4071  0.2316
 6942W        W 9142  18.221   2.028   5.213 -0.1547  0.2469 -0.0489
 6943W        W 9143  11.581   6.410   4.837  0.0077 -0.2385  0.1534
 6944W        W 9144  20.370   0.358  14.661  0.0429 -0.3072 -0.0717
 6945W        W 9145  15.885   1.239  28.725  0.1019  0.2457  0.0459
 6946W        W 9146   7.750   6.706  10.767  0.1900 -0.0438 -0.0848
 6947W        W 9147   3.848   6.475  11.783  0.0676 -0.1190  0.0086
 6948W        W 9148  13.198   4.247  26.951  0.0775 -0.2192  0.0727
 6949W        W 9149  19.178   0.209  27.550 -0.3293  0.2223  0.1107
 6950W        W 9150   6.487   2.653  16.089  0.5189 -0.0427 -0.0486
 6951W        W 9151   4.778   4.731  13.763  0.3011 -0.0250  0.3018
 6952W        W 9152  11.198   4.582   7.792 -0.1328 -0.2551 -0.1026
 6953W        W 9153   4.341   2.535  13.638  0.0981 -0.0293 -0.3014
 6954W        W 9154  22.503   2.231  22.441  0.0015 -0.1297 -0.0467
 6955W        W 9155  11.799   3.549  23.850 -0.0918 -0.0188  0.0394
 6956W        W 9156   3.081   1.828   8.764  0.1876 -0.0990  0.1653
 6957W        W 9157  21.610   1.658  26.826  0.1878 -0.2813  0.0208
 6958W        W 9158  17.617   5.813  27.407 -0.1391 -0.0117 -0.2344
 6959W        W 9159   4.529   1.692  29.243 -0.4044 -0.3030  0.2061
 6960W        W 9160   8.378   4.852  17.982 -0.0293  0.1103  0.1266
 6961W        W 9161   9.615   1.416  16.808  0.1358 -0.1119 -0.3868
 6962W        W 9162   3.645   7.581  25.108  0.1998  0.1017  0.0045
 6963W        W 9163  20.578   5.330   0.580  0.0266  0.0216  0.1707
 6964W        W 9164   3.282   4.623   5.892 -0.0128  0.0402 -0.1259
 6965W        W 9165   2.480   3.944  22.412 -0.4931  0.1716 -0.0487
 6966W        W 9166   9.606   2.820  16.892 -0.0130 -0.0091  0.0045
 6967W        W 9167  24.125   2.411   1.817  0.0638  0.1905 -0.0048
 6968W        W 9168   2.641   7.248   3.597 -0.1590 -0.0404 -0.0096
 6969W        W 9169   2.339   1.292  19.055  0.0834  0.2845  0.0091
 6970W        W 9170  12.216   7.510   8.242 -0.1606  0.1340 -0.2811
 6971W        W 9171  23.568   7.352   8.937  0.3218 -0.1651  0.2225
 6972W        W 9172   9.372   7.526  17.272  0.1050  0.0118  0.0049
 6973W        W 9173  22.014   2.729   0.309 -0.2942  0.1594 -0.1074
 6974W        W 9174  16.733   6.996   7.241  0.4241  0.0388 -0.0358
 6975W        W 9175  11.174   2.070  12.277 -0.2252  0.0368  0.1750
 6976W        W 9176   7.175   5.916  25.119  0.2530 -0.0128 -0.1722
 6977W        W 9177  11.680   7.409   7.174 -0.3064 -0.2178 -0.1466
 6978W        W 9178  13.162   2.619  13.967  0.1866  0.1019  0.2791
 6979W        W 9179   3.297   0.886  20.229  0.1661  0.1467  0.0793
 6980W        W 9180   9.345   2.376  31.884  0.1064 -0.1021 -0.1512
 6981W        W 9181   4.697   2.873   7.591  0.2043 -0.3297 -0.1175
 6982W        W 9182  15.356   0.288   8.521  0.2064 -0.2368  0.2038
 6983W        W 9183   2.432   7.518   7.148 -0.0399 -0.1381  0.0139
 6984W        W 9184   8.483   1.295  11.547  0.1124  0.1050  0.2435
 6985W        W 9185   7.536   6.789  25.941 -0.0817  0.0598  0.0994
 6986W        W 9186  19.266   3.756  28.499  0.1312 -0.0428 -0.1096
 6987W        W 9187  18.926   0.346  15.810  0.0766 -0.2911 -0.0311
 6988W        W 9188  22.567   5.716  25.163 -0.0511 -0.2969 -0.0789
 6989W        W 9189   0.325   1.939   4.863  0.0685 -0.0289  0.1245
 6990W        W 9190  16.067   4.812   4.842 -0.0982  0.0379  0.3220
 6991W        W 9191   1.281   3.879  20.649  0.1044  0.1473  0.2182
 6992W        W 9192  18.520   5.513   6.379  0.5272  0.1217 -0.0861
 6993W        W 9193  13.255   6.279  32.348  0.2557 -0.1425 -0.4462
 6994W        W 9194   0.144   2.207  18.134  0.1507  0.0938  0.3052
 6995W        W 9195  22.047   3.630   4.635 -0.1025 -0.1417  0.2172
 6996W        W 9196   9.501   6.535   8.615  0.0513 -0.2150 -0.0650
 6997W        W 9197   5.823   1.682  10.191 -0.1342 -0.1852  0.1010
 6998W        W 9198   1.238   5.192  10.438 -0.1416  0.2708  0.0598
 6999W        W 9199  16.515   1.336   0.680 -0.1282 -0.0810  0.0557
 7000W        W 9200   8.371   0.014  12.064 -0.0386  0.2487  0.0830
 7001W        W 9201  15.652   2.209  11.478 -0.2559  0.1381  0.1461
 7002W        W 9202  23.458   5.555  24.116 -0.0706 -0.0541  0.2799
 7003W        W 9203  20.860   2.511   5.068  0.0574  0.0662  0.1810
 7004W        W 9204  10.560   1.595  30.528 -0.0436  0.1869 -0.0181
 7005W        W 9205   3.276   7.565  23.379  0.3882 -0.0750  0.1119
 7006W        W 9206   7.878   5.403   1.784 -0.1108 -0.2336  0.3175
 7007W        W 9207  17.244   1.016  22.867 -0.1871 -0.1674 -0.0815
 7008W        W 9208  23.908   5.070  22.362  0.0915 -0.0332 -0.1417
 7009W        W 9209   5.611   7.374   6.143  0.2288 -0.0711 -0.2516
 7010W        W 9210  15.130   6.556  22.553  0.0007  0.0912 -0.1267
 7011W        W 9211  23.135   0.606   5.866  0.0858 -0.0863 -0.2956
 7012W        W 9212  16.199   4.849  11.467  0.0433  0.1020  0.0687
 7013W        W 9213  12.777   7.549  28.648  0.2503 -0.0620  0.1268
 7014W        W 9214   1.238   4.882  21.752  0.0850  0.1758  0.2376
 7015W        W 9215  18.427   6.715  29.214  0.1797  0.0913 -0.2174
 7016W        W 9216   5.324   1.796  27.121  0.0100  0.1557  0.0353
 7017W        W 9217  20.108   4.120  29.888  0.1934 -0.2586 -0.1006
 7018W        W 9218   1.064   0.756   0.825  0.1547 -0.2665 -0.0429
 7019W        W 9219  14.437   2.513  30.574 -0.0394  0.4066 -0.4427
 7020W        W 9220   2.390   6.522  22.540  0.1347  0.1184  0.3679
 7021W        W 9221   2.316   2.922  24.947 -0.3238  0.0715 -0.1310
 7022W        W 9222   9.602   3.416   2.078  0.0548 -0.3321 -0.1528
 7023W        W 9223   6.700   2.134  12.007 -0.1788 -0.2580  0.0273
 7024W        W 9224   0.042   2.305  17.165 -0.0657  0.6326 -0.0130
 7025W        W 9225  24.164   2.380   3.938 -0.1883  0.1220  0.2851
 7026W        W 9226  24.188   5.672   6.693 -0.0860 -0.2093  0.4107
 7027W        W 9227  22.118   4.029   7.931  0.1687  0.1076  0.2064
 7028W        W 9228  16.941   1.064  24.790  0.2030  0.1459  0.1731
 7029W        W 9229   5.186   2.321   2.326 -0.3317  0.1443  0.0485
 7030W        W 9230  14.271   1.483  32.119  0.0259  0.0776  0.4204
 7031W        W 9231   8.645   6.027   7.092  0.1415  0.0480 -0.1511
 7032W        W 9232  20.064   1.201  20.169 -0.1228 -0.2545 -0.1985
 7033W        W 9233   2.022   4.444  24.094 -0.1826  0.1872 -0.4434
 7034W        W 9234  22.411   4.331   7.016 -0.1343 -0.0401  0.3435
 7035W        W 9235   1.239   1.237   2.845  0.0703 -0.0237  0.2392
 7036W        W 9236  21.641   6.697  21.538 -0.0721 -0.2620 -0.1736
 7037W        W 9237   5.166   5.518  22.644 -0.0705  0.1243  0.1180
 7038W        W 9238  10.237   2.861  30.287 -0.0752  0.0615 -0.1745
 7039W        W 9239  20.806   1.938  31.506  0.3434 -0.0381 -0.2229
 7040W        W 9240  16.063   3.573   5.645 -0.1340  0.1609 -0.2366
 7041W        W 9241  23.734   4.558   9.947 -0.0516  0.0042 -0.2252
 7042W        W 9242  12.997   1.262  28.952 -0.1517  0.1424 -0.1562
 7043W        W 9243   7.619   2.377  11.782  0.1902  0.3008 -0.0550
 7044W        W 9244  24.636   1.212  23.468  0.1210  0.0541  0.0784
 7045W        W 9245   6.931   3.514   8.066 -0.0753 -0.0219 -0.0830
 7046W        W 9246   0.931   7.505  17.608 -0.2688  0.1151  0.1657
 7047W        W 9247  17.928   6.334   3.050  0.1301 -0.0167 -0.0594
 7048W        W 9248   3.831   6.827   9.578 -0.0737  0.1123 -0.3521
 7049W        W 9249  20.994   7.261   5.876  0.2862  0.0748 -0.1231
 7050W        W 9250  19.685   3.787  14.849 -0.2616  0.3039 -0.0029
 7051W        W 9251  20.319   1.080   8.435 -0.0109  0.0488 -0.2819
 7052W        W 9252   8.168   0.652  10.375 -0.1548  0.1824  0.0532
 7053W        W 9253  19.807   4.503  19.894  0.0995  0.1162  0.2131
 7054W        W 9254  15.109   2.311  30.132  0.0102 -0.0047 -0.3397
 7055W        W 9255  22.926   7.611   7.855 -0.2211 -0.1451  0.0753
 7056W        W 9256  21.967   0.012  14.417 -0.2086  0.3589  0.1476
 7057W        W 9257  15.821   3.711  31.887  0.0306  0.0114  0.2207
 7058W        W 9258  17.084   6.886  26.072 -0.0189 -0.1425  0.0632
 7059W        W 9259   0.569   3.338   1.139  0.0102  0.0071  0.1538
 7060W        W 9260  22.476   4.972   1.695 -0.2052  0.0889 -0.1620
 7061W        W 9261  23.874   7.130  24.786  0.2630 -0.3818  0.2541
 7062W        W 9262  13.778   1.739   7.337  0.4046  0.1321  0.0102
 7063W        W 9263  12.575   1.571   6.093  0.2137  0.0686  0.0237
 7064W        W 9264  18.035   0.646   2.461 -0.2160 -0.0533  0.0240
 7065W        W 9265  12.366   1.232  30.244  0.3326  0.1238  0.0316
 7066W        W 9266  12.553   0.752   1.688 -0.0193 -0.0778  0.0866
 7067W        W 9267  14.664   3.563  26.363 -0.1012  0.1833 -0.0892
 7068W        W 9268   4.943   3.449   2.841  0.0033 -0.2102  0.2253
 7069W        W 9269   3.994   5.120   2.722  0.0584 -0.0706  0.0127
 7070W        W 9270  17.263   4.415   1.149 -0.1923  0.2020  0.1029
 7071W        W 9271  24.559   5.249  28.556  0.1557 -0.3743  0.0017
 7072W        W 9272  19.884   6.098  21.468  0.1443  0.2010 -0.2051
 7073W        W 9273   5.415   2.152  12.202  0.1890  0.4176  0.0578
 7074W        W 9274  14.763   7.165  11.876  0.0010  0.0972  0.3341
 7075W        W 9275   6.912   6.395   8.789 -0.0635 -0.1354  0.2428
 7076W        W 9276   0.479   6.387   1.274  0.1068 -0.3407 -0.1478
 7077W        W 9277   3.869   2.259   3.596  0.0274 -0.1082 -0.2536
 7078W        W 9278  20.294   0.724  30.990  0.1059 -0.1600  0.2644
 7079W        W 9279  14.670   5.749  27.834  0.1614 -0.0191 -0.2963
 7080W        W 9280  15.427   7.785   8.972 -0.3214  0.0583  0.0257
 7081W        W 9281  19.821   5.938  28.192  0.2116 -0.0371  0.1153
 7082W        W 9282  23.533   0.907  29.596 -0.0616  0.0626 -0.0915
 7083W        W 9283  17.461   6.848  25.674  0.4793  0.0604  0.0324
 7084W        W 9284   4.371   0.275   1.937  0.1754 -0.2549  0.1677
 7085W        W 9285   3.460   3.411  10.152  0.4180  0.1607 -0.0785
 7086W        W 9286  12.961   4.235  22.047 -0.0328  0.0676 -0.1348
 7087W        W 9287   7.099   7.092  16.952 -0.0790 -0.0175  0.0038
 7088W        W 9288  24.251   1.829  28.617  0.2857  0.1909 -0.1889
 7089W        W 9289   2.684   2.800  29.967  0.0056  0.1457  0.2906
 7090W        W 9290  19.085   5.651   3.307  0.2337 -0.0643 -0.0080
 7091W        W 9291  19.820   0.811   0.305  0.1986 -0.1054  0.1515
 7092W        W 9292   5.889   1.364  24.010 -0.1286 -0.2288  0.1439
 7093W        W 9293   8.041   4.747   5.154  0.0527  0.0167  0.5138
 7094W        W 9294   8.438   5.951   9.231  0.2982  0.0829 -0.1330
 7095W        W 9295   8.095   6.321  23.391 -0.0582  0.1853  0.1225
 7096W        W 9296   8.207   2.189   2.389 -0.0714 -0.1432  0.1086
 7097W        W 9297  14.993   3.258  30.814  0.0520 -0.1220  0.0195
 7098W        W 9298   4.948   6.428  26.528  0.1830  0.0653  0.2648
 7099W        W 9299   7.220   0.016   5.810 -0.0188  0.3022 -0.0032
 7100W        W 9300   8.670   2.634  25.475  0.2848 -0.3326 -0.1524
 7101W        W 9301  15.268   0.442  25.297  0.1150  0.2305  0.1372
 7102W        W 9302   6.327   0.815  17.399  0.1673  0.0187 -0.2659
 7103W        W 9303  21.657   5.569  29.506 -0.0158  0.0075 -0.0949
 7104W        W 9304   8.988   0.475   3.196 -0.0982 -0.0607 -0.0799
 7105W        W 9305   0.997   1.097  11.984 -0.2847 -0.0985  0.1183
 7106W        W 9306   3.712   6.402   9.795  0.1490  0.0389  0.1054
 7107W        W 9307   7.922   3.916   7.242 -0.0751  0.1703  0.1006
 7108W        W 9308   4.915   4.690  25.355 -0.2607  0.2199 -0.0513
 7109W        W 9309  23.343   5.937  19.062  0.2250  0.0636  0.1378
 7110W        W 9310   8.697   2.157   4.783 -0.2090  0.1689 -0.0633
 7111W        W 9311  24.692   5.389  31.215  0.0791 -0.0632  0.1708
 7112W        W 9312  20.571   5.363   3.938  0.0542 -0.1333  0.0364
 7113W        W 9313  18.485   7.246   7.210  0.2629  0.0356  0.1385
 7114W        W 9314   8.736   1.603  32.525  0.2353  0.0726  0.0089
 7115W        W 9315   2.343   0.734  26.471 -0.2428  0.2639 -0.1904
 7116W        W 9316  22.407   6.260   8.331 -0.2385 -0.1353 -0.1927
 7117W        W 9317  17.260   6.999   8.666 -0.0932 -0.2913  0.0849
 7118W        W 9318  13.976   2.633   8.497 -0.0359 -0.2323  0.1135
 7119W        W 9319   0.838   7.122  27.648  0.0951 -0.0355 -0.0712
 7120W        W 9320  11.698   2.376   8.956  0.2660  0.0984 -0.0390
 7121W        W 9321  16.542   2.261  16.962 -0.1261  0.0125 -0.1373
 7122W        W 9322   2.324   4.829  24.083 -0.4961  0.0831  0.0091
 7123W        W 9323   8.199   7.211   3.459 -0.0239 -0.1919 -0.2138
 7124W        W 9324   1.347   3.081   8.984  0.1729  0.1558 -0.1355
 7125W        W 9325   7.656   5.590  14.528 -0.0071 -0.0518  0.1009
 7126W        W 9326  19.388   3.195   0.364 -0.0940  0.2708 -0.5009
 7127W        W 9327   3.368   7.726  31.712 -0.1213  0.1791 -0.2750
 7128W        W 9328   7.779   6.291   5.052 -0.1893  0.2249 -0.1835
 7129W        W 9329  19.765   4.238  31.722 -0.1362 -0.0375  0.1310
 7130W        W 9330  10.198   3.824   0.094  0.3404  0.1093  0.1616
 7131W        W 9331  23.253   2.102   2.492 -0.1577  0.0020  0.0444
 7132W        W 9332  19.530   6.293  28.236  0.2085 -0.0031 -0.0263
 7133W        W 9333   4.242   1.694  31.365 -0.0007 -0.2085 -0.2543
 7134W        W 9334   8.384   6.307  31.839 -0.0092 -0.2781  0.4173
 7135W        W 9335   7.297   3.090  12.849 -0.0110 -0.1136 -0.4232
 7136W        W 9336  20.002   0.504  25.858  0.1607 -0.3040  0.0043
 7137W        W 9337   9.784   6.253  30.693 -0.0306  0.2668  0.0015
 7138W        W 9338  24.594   5.461  21.941  0.0064 -0.0078  0.0435
 7139W        W 9339  20.532   2.517   4.499  0.2713 -0.0837  0.0570
 7140W        W 9340   5.516   1.392  26.709  0.0380 -0.0218  0.0231
 7141W        W 9341  10.892   7.320  31.355  0.1355  0.2345  0.1257
 7142W        W 9342  11.439   6.302   2.666  0.1451  0.0994 -0.3734
 7143W        W 9343  20.579   2.956  19.054  0.0655  0.2038 -0.3867
 7144W        W 9344  10.001   1.184  31.919  0.2057  0.0555 -0.2442
 7145W        W 9345   7.451   2.252   9.143 -0.0971  0.2162 -0.0043
 7146W        W 9346  18.689   1.084   1.164  0.0075 -0.0030 -0.0323
 7147W        W 9347  19.499   1.098   0.599 -0.2932  0.0449 -0.0662
 7148W        W 9348   1.913   7.477  24.156  0.0275 -0.1406  0.0368
 7149W        W 9349  18.650   1.258  21.977 -0.3659 -0.2050  0.0017
 7150W        W 9350  17.735   7.262  21.626  0.0532 -0.0399  0.0092
 7151W        W 9351   4.274   1.429   7.083  0.0514  0.5332  0.0246
 7152W        W 9352  11.776   0.651   2.976  0.3689  0.1574  0.0684
 7153W        W 9353   5.780   1.929   0.160 -0.1130  0.1710 -0.2651
 7154W        W 9354  11.229   2.235  30.175  0.0369 -0.0798 -0.0528
 7155W        W 9355  10.527   5.393   8.697  0.3667  0.1863 -0.0002
 7156W        W 9356   8.096   4.182  26.540  0.0835 -0.3217 -0.2401
 7157W        W 9357   0.823   1.524  10.552 -0.1366 -0.1177  0.0030
 7158W        W 9358  17.154   0.215  19.338  0.2393  0.0961 -0.0363
 7159W        W 9359  19.577   4.447   4.861 -0.0234 -0.0695  0.0953
 7160W        W 9360   2.445   6.628  11.714  0.0242  0.2300  0.3105
 7161W        W 9361  13.383   4.207   3.873 -0.1284 -0.0387 -0.0516
 7162W        W 9362  15.977   4.783   7.747 -0.1282 -0.1553  0.4446
 7163W        W 9363   1.396   3.534  26.227 -0.2187 -0.1634  0.1027
 7164W        W 9364  24.199   2.556  31.385 -0.0325 -0.1232 -0.1454
 7165W        W 9365   6.029   0.641  32.428 -0.2579  0.1802  0.0372
 7166W        W 9366   1.158   1.989  21.645 -0.0349  0.2948  0.0578
 7167W        W 9367  23.755   5.715   7.086  0.0868  0.1941 -0.1999
 7168W        W 9368   0.347   0.828  28.318  0.0703  0.0758  0.0630
 7169W        W 9369  11.450   2.411  11.920 -0.0231 -0.0896  0.2364
 7170W        W 9370   8.457   4.831   2.581 -0.0629  0.0463 -0.0619
 7171W        W 9371   7.653   5.826   7.611  0.1748  0.2629  0.4253
 7172W        W 9372  15.439   1.430  10.301 -0.1445  0.0312 -0.0372
 7173W        W 9373   8.960   2.601  32.343 -0.0063 -0.1047  0.0181
 7174W        W 9374  19.347   7.499  31.049  0.1336  0.0790 -0.0330
 7175W        W 9375   5.983   7.587  16.486 -0.0902  0.2156  0.1729
 7176W        W 9376  18.731   3.610   4.663 -0.0026 -0.0979  0.3019
 7177W        W 9377  11.210   3.485  13.846  0.1175 -0.1616 -0.3056
 7178W        W 9378  11.934   2.803   0.031 -0.0468  0.0524  0.0647
 7179W        W 9379  10.788   3.088  25.469 -0.0991 -0.3311 -0.3719
 7180W        W 9380  18.006   1.665  31.780  0.1046  0.0482 -0.1273
 7181W        W 9381   2.811   5.105  28.957  0.1616  0.1851 -0.1967
 7182W        W 9382  14.506   4.487  28.620  0.2290  0.2389  0.3207
 7183W        W 9383   9.033   3.000   9.552  0.0245 -0.0119  0.2130
 7184W        W 9384  22.624   6.117  17.281  0.3168 -0.0364 -0.1693
 7185W        W 9385   7.122   1.466  11.488  0.2348 -0.0994  0.0973
 7186W        W 9386  21.653   7.082   0.022  0.1220 -0.3229 -0.2025
 7187W        W 9387  24.138   3.244  22.316 -0.2185 -0.2870 -0.1447
 7188W        W 9388   2.943   3.704  30.083  0.0335  0.0820  0.1734
 7189W        W 9389  22.613   1.336  28.074  0.0945  0.1458  0.2636
 7190W        W 9390   7.940   6.685   1.683 -0.1752 -0.0694  0.1494
 7191W        W 9391  19.348   3.962  15.544  0.1885 -0.1371 -0.0146
 7192W        W 9392   2.323   2.516   1.575  0.1653  0.1293  0.1151
 7193W        W 9393   5.135   1.246   1.631  0.0503  0.1205  0.2326
 7194W        W 9394  21.307   4.898  16.110 -0.1591 -0.1360 -0.1313
 7195W        W 9395   6.859   4.180   8.505  0.0624 -0.0773  0.1244
 7196W        W 9396  23.652   6.514   4.660  0.1253 -0.1363  0.3497
 7197W        W 9397  21.144   0.787  22.501  0.1908 -0.1544 -0.0379
 7198W        W 9398   8.874   0.762   7.683  0.1873  0.1783 -0.1728
 7199W        W 9399   2.041   3.027  30.825  0.0051 -0.3330  0.1179
 7200W        W 9400   4.349   1.830  16.655  0.2747  0.0195  0.1850
 7201W        W 9401  20.004   3.071  24.050 -0.4106  0.1634 -0.0146
 7202W        W 9402  23.388   2.529  15.647  0.0272  0.1324  0.1234
 7203W        W 9403   1.087   5.508  29.055 -0.0478  0.0893 -0.3738
 7204W        W 9404  25.033   0.003   4.990 -0.0672 -0.0725 -0.0110
 7205W        W 9405  15.352   7.782  11.819 -0.1598  0.1375  0.1956
 7206W        W 9406   7.177   4.403  32.194 -0.0698 -0.1962  0.1376
 7207W        W 9407  23.617   5.374  29.387  0.0257 -0.0646  0.0057
 7208W        W 9408  10.976   3.401  32.201 -0.2851  0.0697 -0.0848
 7209W        W 9409  17.282   4.573  30.330 -0.1799  0.1314 -0.2939
 7210W        W 9410  13.137   3.203  24.373 -0.0109 -0.0470  0.1115
 7211W        W 9411   9.361   0.638   1.110 -0.3091  0.1903  0.0149
 7212W        W 9412   9.118   1.121  13.379  0.0142 -0.0602 -0.0232
 7213W        W 9413  19.403   0.440   0.718 -0.0469  0.2348  0.0362
 7214W        W 9414   8.645   4.428   1.820 -0.1922  0.1197 -0.1604
 7215W        W 9415  22.542   2.042   5.553  0.1946  0.2069 -0.2169
 7216W        W 9416   2.242   1.962  31.590  0.1289  0.2115 -0.2813
 7217W        W 9417   2.409   2.599  24.455 -0.3962  0.1993  0.2367
 7218W        W 9418  16.003   2.732  23.967 -0.1961  0.0343 -0.2892
 7219W        W 9419   2.188   3.529   9.837  0.3167  0.0424  0.0121
 7220W        W 9420   4.494   5.248   3.631 -0.0102 -0.0173 -0.1360
 7221W        W 9421   2.086   0.140   4.101  0.0404 -0.0790 -0.0629
 7222W        W 9422  22.328   2.318   2.117 -0.0134 -0.0610 -0.0855
 7223W        W 9423   7.581   3.506  16.666 -0.2807 -0.0549 -0.0919
 7224W        W 9424   4.520   1.278   6.611 -0.0252  0.1263 -0.3817
 7225W        W 9425   7.717   6.855  14.986  0.0208 -0.2171 -0.1901
 7226W        W 9426  11.415   0.279  31.856  0.1216 -0.1666 -0.0648
 7227W        W 9427  18.432   2.235  29.599  0.3534 -0.1094 -0.0482
 7228W        W 9428  14.522   7.101   4.115 -0.0477  0.3111 -0.3216
 7229W        W 9429   1.451   4.996  23.426  0.0421  0.0358  0.1380
 7230W        W 9430  19.657   6.446  23.386  0.1214  0.1314  0.0673
 7231W        W 9431   6.102   7.824  15.632  0.2728  0.1514 -0.0994
 7232W        W 9432   1.607   1.331  26.195  0.2713 -0.1091 -0.0237
 7233W        W 9433   9.479   0.299  30.247  0.1687 -0.2373 -0.1758
 7234W        W 9434  21.519   2.081  19.458  0.1838  0.2434 -0.0466
 7235W        W 9435   1.535   2.747  24.554  0.0704  0.0517 -0.0605
 7236W        W 9436   4.126   4.782  14.742  0.0921  0.0342 -0.0100
 7237W        W 9437  14.446   1.328  30.139  0.2077  0.1372 -0.1082
 7238W        W 9438  17.927   0.415  10.726  0.1097 -0.1848 -0.0364
 7239W        W 9439  19.874   2.896  18.495  0.1379 -0.1463  0.1122
 7240W        W 9440   5.022   6.459  15.135 -0.0290 -0.1292  0.1812
 7241W        W 9441  13.073   4.445  23.905 -0.1338  0.1090  0.5247
 7242W        W 9442  16.586   0.937  26.150 -0.0654  0.0315 -0.1632
 7243W        W 9443   0.479   5.491  20.727  0.1154  0.0689  0.0924
 7244W        W 9444   7.060   2.745   3.769 -0.0204  0.1960 -0.1735
 7245W        W 9445  16.826   6.751   8.725  0.1006 -0.1954 -0.2268
 7246W        W 9446  13.244   0.867   7.476  0.0850 -0.1651 -0.1159
 7247W        W 9447   7.928   0.128  14.207  0.0104  0.1139 -0.1849
 7248W        W 9448  20.749   2.065  16.678 -0.0845  0.0137  0.1907
 7249W        W 9449   1.041   4.186   0.337 -0.0431  0.0999 -0.0980
 7250W        W 9450  16.062   3.123  22.489  0.1140 -0.0555 -0.0157
 7251W        W 9451  11.331   6.299  29.825 -0.2533 -0.0704 -0.3111
 7252W        W 9452  17.028   3.982  30.940 -0.0960  0.2848 -0.1019
 7253W        W 9453  20.797   7.719  19.669 -0.1476  0.1656 -0.1182
 7254W        W 9454   5.081   2.602  25.082 -0.2078 -0.0137  0.0278
 7255W        W 9455  13.230   2.927  32.633  0.2226  0.2728 -0.2108
 7256W        W 9456  16.682   6.521  24.110  0.1462  0.0756  0.2518
 7257W        W 9457   7.149   1.133  16.857  0.1103 -0.0540 -0.0822
 7258W        W 9458  12.832   4.471  10.053 -0.2533 -0.2051 -0.0350
 7259W        W 9459  23.105   5.969   4.898  0.3810  0.4388 -0.3753
 7260W        W 9460  11.434   3.272   9.022  0.1064 -0.0046  0.1191
 7261W        W 9461  23.356   7.508   3.675  0.0939 -0.1727  0.0557
 7262W        W 9462   8.350   5.716   2.655 -0.3838  0.1592  0.1138
 7263W        W 9463   7.537   2.657   9.466  0.0875 -0.1887 -0.2229
 7264W        W 9464  16.779   5.857   9.714 -0.1333 -0.2350 -0.0369
 7265W        W 9465  14.657   4.299  27.014  0.0127 -0.1805 -0.4333
 7266W        W 9466   3.045   4.634  24.653  0.0145  0.1828  0.2502
 7267W        W 9467   9.903   0.903  31.147  0.1120  0.1009 -0.1043
 7268W        W 9468  18.263   3.572  25.366 -0.0803  0.1498 -0.2572
 7269W        W 9469  16.266   0.586   5.552 -0.1047  0.2360  0.0508
 7270W        W 9470  12.162   6.770   5.738  0.0656  0.0395 -0.1108
 7271W        W 9471   9.653   1.552  27.125  0.1143 -0.1328 -0.0069
 7272W        W 9472   8.603   7.680  30.525 -0.1072 -0.0133 -0.1564
 7273W        W 9473  17.663   1.495  20.183 -0.1045  0.0753 -0.0951
 7274W        W 9474  23.130   2.934  31.095  0.0761  0.1176 -0.0013
 7275W        W 9475   2.325   5.685   9.339 -0.1670 -0.0280 -0.1075
 7276W        W 9476   0.211   4.116  31.101  0.0708 -0.0380  0.0148
 7277W        W 9477   1.535   1.174  22.327 -0.2685  0.0643  0.1749
 7278W        W 9478   0.536   7.423  18.494  0.1173  0.0030 -0.2042
 7279W        W 9479   2.926   6.909  25.813  0.1266 -0.2926 -0.0851
 7280W        W 9480   7.914   4.670   7.496  0.1474  0.0293  0.1569
 7281W        W 9481  10.418   1.674  16.428  0.1212 -0.1309  0.0958
 7282W        W 9482  20.060   5.584   0.213  0.1327 -0.2676  0.2102
 7283W        W 9483  23.649   5.259  21.053  0.1797  0.0299  0.0117
 7284W        W 9484  22.871   4.655  21.103 -0.0390  0.2565  0.0385
 7285W        W 9485  13.375   5.685  23.359  0.0112 -0.0478 -0.2037
 7286W        W 9486   6.659   0.567  27.644  0.1897  0.0927 -0.1772
 7287W        W 9487   4.429   4.309  10.284  0.1829 -0.2053 -0.3024
 7288W        W 9488  22.260   3.300   3.913  0.2363  0.1513  0.2632
 7289W        W 9489   6.147   6.455  29.964 -0.1783 -0.3747  0.0812
 7290W        W 9490   6.712   5.497  11.966 -0.1418  0.0793 -0.0114
 7291W        W 9491  18.674   2.668   5.145  0.1165  0.1403 -0.0035
 7292W        W 9492  23.171   0.147  28.978  0.1889  0.2347 -0.1251
 7293W        W 9493  11.047   3.746  16.252 -0.5133 -0.2269  0.0216
 7294W        W 9494  23.839   0.462  19.465  0.3807 -0.1551 -0.0148
 7295W        W 9495  17.124   2.668   1.830  0.0824 -0.0755  0.0687
 7296W        W 9496  18.772   3.251   5.052 -0.0028  0.0126 -0.2202
 7297W        W 9497   4.578   7.818  28.393 -0.0540 -0.1559 -0.3341
 7298W        W 9498   2.825   3.309  21.944 -0.2877  0.2401  0.2183
 7299W        W 9499  13.524   7.413  21.045 -0.2233  0.1921 -0.2752
 7300W        W 9500   0.404   7.707  10.793  0.2041  0.1918  0.3152
 7301W        W 9501   6.443   6.698   8.087 -0.1552  0.1346 -0.2373
 7302W        W 9502  20.248   4.034  15.011  0.0266 -0.2461  0.3259
 7303W        W 9503  18.452   6.219   9.470 -0.2065 -0.4606 -0.1086
 7304W        W 9504   0.613   4.893  32.388  0.0330 -0.2414 -0.4106
 7305W        W 9505   1.089   3.650  16.865  0.2449 -0.1876  0.1380
 7306W        W 9506  10.547   7.058  29.364 -0.0071 -0.4026 -0.1478
 7307W        W 9507   2.982   7.612   4.540 -0.2526 -0.0630 -0.1784
 7308W        W 9508   8.227   2.315  30.913 -0.3968  0.0632 -0.4537
 7309W        W 9509   1.020   6.287   1.275  0.4475 -0.1747 -0.1780
 7310W        W 9510   4.129   5.848  23.911  0.1566  0.0517  0.0746
 7311W        W 9511  11.260   3.697  10.977 -0.0777 -0.2570 -0.0583
 7312W        W 9512  23.454   5.806   5.373 -0.1625  0.0989 -0.1982
 7313W        W 9513   9.244   1.224  24.549  0.2413  0.3811 -0.0150
 7314W        W 9514   2.639   0.137  32.268  0.0711 -0.1837  0.0972
 7315W        W 9515   1.042   1.695   5.548  0.1255  0.2146 -0.1427
 7316W        W 9516   5.370   6.773  26.333  0.0413 -0.0776  0.0975
 7317W        W 9517  20.940   6.507   8.161 -0.1498 -0.1323  0.2331
 7318W        W 9518  13.077   1.446  12.894 -0.1323 -0.1253  0.2771
 7319W        W 9519  18.839   4.915  24.865  0.0383  0.0109 -0.0477
 7320W        W 9520  13.341   1.958   6.881  0.1668 -0.3493  0.1238
 7321W        W 9521  14.929   5.585   4.965  0.0197  0.1755  0.0470
 7322W        W 9522  16.358   5.803  18.686  0.1623 -0.0588 -0.2069
 7323W        W 9523   6.191   6.953  31.300  0.0278 -0.1299  0.1276
 7324W        W 9524   4.367   1.235   8.459  0.1467  0.0916 -0.1854
 7325W        W 9525  17.563   2.459   0.632 -0.2175 -0.0884  0.0122
 7326W        W 9526  17.778   5.069  30.420  0.3950  0.0428  0.0394
 7327W        W 9527  22.243   0.512  30.343 -0.0830 -0.0601 -0.3061
 7328W        W 9528   8.762   4.477   1.264  0.0155 -0.0141 -0.1900
 7329W        W 9529  12.365   3.971  32.213  0.0763  0.1514  0.0153
 7330W        W 9530  11.925   5.734  13.961  0.1432 -0.0199  0.2812
 7331W        W 9531  11.021   4.104  22.758 -0.0945  0.0844  0.0840
 7332W        W 9532   0.299   0.603  19.339 -0.0782  0.0772  0.0024
 7333W        W 9533  11.350   6.049  15.481 -0.2991  0.0109 -0.2009
 7334W        W 9534  17.586   4.714  29.945 -0.2956  0.3136  0.4448
 7335W        W 9535   5.930   0.859  23.710  0.1369  0.0943 -0.1845
 7336W        W 9536   4.069   0.076  23.590  0.3889  0.1451 -0.0362
 7337W        W 9537  21.087   3.985  23.898 -0.1113  0.0135  0.1123
 7338W        W 9538  24.118   3.802   5.350  0.2152 -0.0325  0.1555
 7339W        W 9539   0.933   4.268  18.667 -0.2267  0.4309  0.1855
 7340W        W 9540   0.299   4.517  26.253  0.3001 -0.2197 -0.1784
 7341W        W 9541  15.977   6.173   3.868 -0.0632 -0.1081 -0.1006
 7342W        W 9542  12.345   3.713  31.807 -0.2343  0.1953 -0.0062
 7343W        W 9543  20.460   3.949   0.310 -0.0995 -0.0482  0.1494
 7344W        W 9544   9.259   3.447   7.474 -0.0728  0.2622  0.2771
 7345W        W 9545   7.031   4.022  27.476  0.0145  0.0410  0.1111
 7346W        W 9546  11.039   6.996   4.227 -0.2963 -0.1888 -0.0794
 7347W        W 9547   3.921   3.306   6.465 -0.1521 -0.3127  0.1056
 7348W        W 9548  20.332   0.198  15.529  0.1441  0.0094  0.4150
 7349W        W 9549  18.507   6.886   0.704  0.0741  0.0967  0.0013
 7350W        W 9550  22.786   4.998   6.506 -0.2708  0.0477 -0.1591
 7351W        W 9551   2.826   5.554  29.285  0.0172 -0.4918  0.1611
 7352W        W 9552  10.240   5.468   1.569 -0.1184 -0.0067 -0.0026
 7353W        W 9553   2.744   6.766   4.199  0.0895  0.0416 -0.1962
 7354W        W 9554  18.735   6.535  22.947  0.0639  0.1193  0.1741
 7355W        W 9555   0.224   6.345  27.361 -0.2818  0.2797 -0.6132
 7356W        W 9556   3.237   3.435   4.253 -0.1744 -0.0110  0.1077
 7357W        W 9557   8.641   3.303   9.610  0.1710 -0.1898  0.0871
 7358W        W 9558  24.634   1.232  10.733 -0.0564  0.0136  0.0369
 7359W        W 9559  19.050   3.816  24.183 -0.0460  0.0354 -0.0270
 7360W        W 9560   1.916   4.552  24.596 -0.0182  0.1253 -0.0475
 7361W        W 9561  16.702   4.953  19.031  0.0230 -0.0133  0.3304
 7362W        W 9562  10.085   2.461   9.297 -0.0172  0.0192  0.1039
 7363W        W 9563   7.809   1.031  16.567  0.1657 -0.1482  0.2393
 7364W        W 9564   3.070   7.275  23.753  0.1290 -0.0093  0.1547
 7365W        W 9565   2.890   1.704  11.887  0.1037  0.0368  0.2573
 7366W        W 9566  23.240   4.950  25.223 -0.2218  0.0434  0.1304
 7367W        W 9567  23.386   5.646  25.753 -0.0874  0.0381  0.0085
 7368W        W 9568   2.355   7.060  21.481  0.0663  0.1165 -0.0503
 7369W        W 9569   8.048   2.769  15.063 -0.2045  0.2769 -0.2057
 7370W        W 9570  16.571   7.819  24.790 -0.0855  0.1200 -0.0793
 7371W        W 9571  22.885   1.006  23.289  0.1409 -0.3261  0.2452
 7372W        W 9572   2.434   7.223   5.872  0.3381  0.0807  0.0980
 7373W        W 9573  11.005   0.826  26.964  0.0863  0.2360  0.2054
 7374W        W 9574  13.399   4.288  28.248 -0.0832  0.2073 -0.1775
 7375W        W 9575   7.962   7.222  25.836  0.0517 -0.2013 -0.0378
 7376W        W 9576  18.042   6.700  25.432  0.3565 -0.2511  0.2423
 7377W        W 9577  18.054   4.559  21.048 -0.3489 -0.0147  0.0304
 7378W        W 9578  12.300   6.870  29.126  0.0318  0.1335 -0.0619
 7379W        W 9579  13.884   1.412  20.713 -0.1492  0.3217 -0.1761
 7380W        W 9580   6.203   6.474  17.575 -0.2441 -0.0292 -0.0670
 7381W        W 9581  22.840   5.567   0.221  0.2711  0.0248 -0.0051
 7382W        W 9582  15.612   1.519   9.841  0.1692 -0.0235  0.1846
 7383W        W 9583   1.774   7.645  11.611 -0.0188  0.0211 -0.1813
 7384W        W 9584   4.636   5.592  23.981  0.0166 -0.1542 -0.0466
 7385W        W 9585  24.889   5.763  23.780  0.1697  0.4045 -0.1403
 7386W        W 9586   8.205   6.588  13.641  0.0378 -0.2594 -0.0560
 7387W        W 9587  22.046   5.792   0.129 -0.0129 -0.3877  0.0916
 7388W        W 9588  11.531   3.472  12.272  0.0051  0.0280 -0.2074
 7389W        W 9589  16.477   5.053   2.329  0.0094  0.0690  0.1630
 7390W        W 9590   7.011   7.294  16.450  0.2642  0.1142 -0.2102
 7391W        W 9591  18.334   3.328   2.909  0.1260 -0.0259 -0.2245
 7392W        W 9592  21.224   0.820  28.145  0.0560 -0.1473 -0.2610
 7393W        W 9593  19.026   4.560  21.965  0.2587 -0.0114 -0.1054
 7394W        W 9594  10.890   4.312   4.278  0.0851  0.1656  0.5567
 7395W        W 9595  21.063   2.968   3.438 -0.3300 -0.0851  0.0300
 7396W        W 9596   6.980   6.905   9.339  0.0614  0.1303 -0.1471
 7397W        W 9597   5.360   5.437   1.232  0.4577 -0.3421 -0.0486
 7398W        W 9598   3.571   6.133  29.569 -0.0061 -0.1266 -0.1148
 7399W        W 9599  10.201   6.992  27.724 -0.1291 -0.2074  0.0165
 7400W        W 9600  24.261   5.931   4.470 -0.0816 -0.2584 -0.0556
 7401W        W 9601  13.148   5.629   3.810  0.1589 -0.0758 -0.1328
 7402W        W 9602   4.884   3.535  23.205  0.1902  0.0105 -0.4558
 7403W        W 9603   1.221   0.026  27.056  0.3232 -0.0243  0.1950
 7404W        W 9604  23.885   7.395  30.758  0.0265  0.1381  0.1350
 7405W        W 9605   2.628   1.774  28.369  0.0710  0.0308 -0.0076
 7406W        W 9606   6.759   1.187  11.236 -0.0768 -0.0362  0.0436
 7407W        W 9607   6.829   0.609  18.239 -0.0183 -0.1765  0.3266
 7408W        W 9608   2.410   5.399  29.079  0.0919 -0.1934 -0.2934
 7409W        W 9609   2.426   3.951   9.631  0.2186 -0.0142 -0.3440
 7410W        W 9610  21.047   7.427   4.189 -0.0165  0.1007  0.0075
 7411W        W 9611  21.046   2.684  18.906  0.2491 -0.4556 -0.1341
 7412W        W 9612   1.140   0.310   4.948 -0.1090 -0.1191 -0.3278
 7413W        W 9613  13.935   1.080  13.558 -0.0034 -0.0451  0.0888
 7414W        W 9614  21.891   0.612   6.202 -0.2062  0.2213 -0.0493
 7415W        W 9615   7.944   3.041  15.481 -0.3914 -0.1436 -0.0375
 7416W        W 9616   7.340   6.260   7.523 -0.1007 -0.2354 -0.4510
 7417W        W 9617   7.421   0.904   2.247 -0.0735 -0.0777  0.0051
 7418W        W 9618   0.243   5.982  26.037 -0.2365 -0.0526 -0.2418
 7419W        W 9619  20.959   3.015  14.807 -0.0807  0.2481 -0.3665
 7420W        W 9620   2.152   1.670  30.199  0.1329 -0.4209 -0.1131
 7421W        W 9621   9.361   5.008  10.147  0.0822 -0.0899  0.0065
 7422W        W 9622   6.743   5.846  28.002 -0.1728  0.2071  0.3192
 7423W        W 9623  11.777   4.955  28.078 -0.1165 -0.1404  0.2451
 7424W        W 9624  19.151   4.223   1.697 -0.0668 -0.1019 -0.0903
 7425W        W 9625  24.508   7.175   0.085 -0.0230 -0.2880 -0.1212
 7426W        W 9626  16.842   1.194   3.228  0.1522  0.0370 -0.1447
 7427W        W 9627  17.321   2.162  21.825  0.0062 -0.3411 -0.1635
 7428W        W 9628   1.552   5.346  11.349 -0.3734  0.2307  0.0938
 7429W        W 9629  16.672   6.086  30.214  0.1114  0.0920  0.1828
 7430W        W 9630   7.413   7.592  10.455  0.1052  0.2745  0.0946
 7431W        W 9631  18.364   6.756   5.628 -0.0514  0.1609  0.1407
 7432W        W 9632  17.301   2.066   2.950  0.3624 -0.1229  0.0791
 7433W        W 9633   7.885   2.598   6.207  0.1193 -0.0957 -0.2232
 7434W        W 9634   0.737   1.786   4.112 -0.0837  0.1478 -0.2554
 7435W        W 9635  21.411   6.598  20.330  0.4257 -0.1019 -0.0094
 7436W        W 9636   0.219   3.487  31.263  0.4523 -0.1201 -0.0615
 7437W        W 9637   4.350   7.360  30.871 -0.1035  0.1765 -0.2217
 7438W        W 9638  16.177   0.579  31.634 -0.0292 -0.0850  0.1526
 7439W        W 9639   8.226   5.464  27.898  0.0158 -0.1262 -0.0968
 7440W        W 9640   3.137   6.901  29.797 -0.2503 -0.1495  0.3707
 7441W        W 9641  18.862   4.365   5.859  0.1374  0.2193  0.2231
 7442W        W 9642  14.409   5.910  13.269  0.0798  0.0956 -0.1053
 7443W        W 9643  23.499   3.037  26.093  0.0622  0.0124 -0.1171
 7444W        W 9644   1.568   6.616  27.409  0.1181 -0.0131  0.0108
 7445W        W 9645  23.410   2.057  21.201  0.1938 -0.1746  0.1542
 7446W        W 9646  21.449   1.601  22.759  0.2552 -0.4242  0.1373
 7447W        W 9647   0.589   5.308  30.455 -0.0813  0.0426 -0.2433
 7448W        W 9648   4.061   5.579   3.580  0.1884 -0.1959  0.2460
 7449W        W 9649   9.222   2.864  30.055  0.2466 -0.4316 -0.2747
 7450W        W 9650  24.432   7.179  25.349  0.3015 -0.1187 -0.1737
 7451W        W 9651   2.946   1.949   0.445 -0.0815 -0.2086  0.1916
 7452W        W 9652  14.211   4.965   8.937  0.0760  0.2467  0.0278
 7453W        W 9653  21.672   0.079  19.798  0.1200  0.1452 -0.0644
 7454W        W 9654   1.801   2.069   2.261 -0.1865 -0.3032  0.1135
 7455W        W 9655   7.050   4.560  30.646 -0.4282 -0.0482 -0.1681
 7456W        W 9656  12.284   6.438   0.551  0.3373  0.1720 -0.0761
 7457W        W 9657   3.594   7.142  23.417  0.0347 -0.0844  0.1729
 7458W        W 9658  23.981   0.142  15.769  0.1027  0.1805 -0.0076
 7459W        W 9659   2.845   5.421   2.699 -0.0539 -0.1213 -0.0079
 7460W        W 9660   7.604   1.135  31.875 -0.0773 -0.1465 -0.1167
 7461W        W 9661   8.176   6.175   5.953  0.0054 -0.0246  0.0121
 7462W        W 9662   0.137   4.268  10.392 -0.1483  0.1306  0.0158
 7463W        W 9663   5.916   2.525  13.402 -0.0785 -0.0693  0.2804
 7464W        W 9664   9.873   7.534  13.092  0.0615  0.0642 -0.1020
 7465W        W 9665  11.734   1.180  31.063  0.2337  0.0890  0.2492
 7466W        W 9666  11.651   2.961  12.348 -0.2027  0.0896 -0.1105
 7467W        W 9667  20.089   4.125   2.103  0.1577 -0.3552 -0.0309
 7468W        W 9668   5.721   1.198   3.164  0.3493 -0.1522 -0.2063
 7469W        W 9669   3.362   1.187  32.260  0.1749  0.2799 -0.5824
 7470W        W 9670   9.310   6.916  17.252  0.1112  0.2449  0.0251
 7471W        W 9671  21.290   1.186  21.656  0.1949  0.0691  0.3191
 7472W        W 9672  23.980   1.763  31.568 -0.0121 -0.1800 -0.0639
 7473W        W 9673   8.289   3.186  10.007 -0.0195 -0.0758 -0.1832
 7474W        W 9674   9.924   2.531  15.915  0.1264  0.0009  0.0873
 7475W        W 9675   6.399   5.980  24.308 -0.1752  0.1386 -0.0034
 7476W        W 9676  10.893   1.931  15.990  0.0905 -0.0805  0.1408
 7477W        W 9677  24.839   1.322   9.377  0.1990 -0.1247 -0.0528
 7478W        W 9678  24.256   4.847  24.197  0.0474 -0.2470 -0.1199
 7479W        W 9679   7.471   7.520  12.303  0.0159 -0.2356 -0.1382
 7480W        W 9680   4.738   0.254  14.315 -0.2042 -0.0437 -0.1270
 7481W        W 9681  12.514   5.479   6.171  0.1244  0.3813  0.0272
 7482W        W 9682   9.857   4.698   7.469 -0.0657  0.0407  0.0993
 7483W        W 9683  12.997   4.079  15.867 -0.4018  0.1175  0.2537
 7484W        W 9684   9.670   6.649  29.896  0.1866 -0.2179 -0.2949
 7485W        W 9685  21.653   3.444  20.803  0.0366 -0.0643 -0.2314
 7486W        W 9686  21.034   2.022  21.167  0.2642  0.0684 -0.0642
 7487W        W 9687  12.735   0.549  11.645  0.0086  0.2692  0.0558
 7488W        W 9688  23.051   4.548  27.577  0.0106  0.4260 -0.0840
 7489W        W 9689  21.599   1.446  17.295 -0.0117  0.2826  0.0445
 7490W        W 9690  11.658   7.497  27.145  0.0013 -0.2272  0.1869
 7491W        W 9691   3.843   0.950  10.099  0.0363  0.1305 -0.0320
 7492W        W 9692   9.968   5.110  26.429 -0.0963 -0.0110 -0.0046
 7493W        W 9693  19.778   4.552  17.750  0.0621 -0.0195  0.0760
 7494W        W 9694  19.707   2.621   4.087  0.2970  0.0779 -0.0714
 7495W        W 9695   9.273   7.804  28.831  0.0406 -0.2704 -0.1600
 7496W        W 9696   1.178   0.412   1.168 -0.0314  0.2464 -0.3793
 7497W        W 9697   7.655   3.308  13.133 -0.0348 -0.1578  0.0373
 7498W        W 9698  18.519   4.091   2.226 -0.2888 -0.1897 -0.2374
 7499W        W 9699  16.748   7.003   5.770 -0.3179 -0.2661  0.1609
 7500W        W 9700   5.820   6.067  24.858 -0.2606 -0.2370 -0.2367
 7501W        W 9701  13.541   1.342   5.999  0.1008 -0.0783  0.1898
 7502W        W 9702   7.988   6.243  24.668 -0.1206 -0.2287 -0.4203
 7503W        W 9703  11.232   0.015   6.338 -0.1641 -0.2254  0.0075
 7504W        W 9704  14.534   4.370  12.452 -0.2574  0.0165  0.2175
 7505W        W 9705  19.223   2.500  26.929  0.2458 -0.3549  0.1509
 7506W        W 9706  22.020   4.939  29.101 -0.4490 -0.1763  0.2128
 7507W        W 9707  19.604   7.094   0.725  0.3649 -0.1805 -0.2523
 7508W        W 9708  13.589   7.245  12.711 -0.3665 -0.0256 -0.1722
 7509W        W 9709  24.020   3.942   9.500  0.1032 -0.0218 -0.0765
 7510W        W 9710  23.411   1.818   1.130  0.2227  0.0984  0.0631
 7511W        W 9711   2.098   1.093   4.357 -0.0431 -0.1455  0.0309
 7512W        W 9712  16.453   0.705  25.741 -0.2307  0.0392  0.0465
 7513W        W 9713  16.340   4.657   5.832 -0.1042 -0.2363  0.1176
 7514W        W 9714  20.000   5.472  23.574  0.1468  0.1597 -0.2955
 7515W        W 9715   0.683   1.105  22.562 -0.3625  0.1455 -0.0772
 7516W        W 9716  22.913   7.766  24.056  0.0584  0.2173  0.1329
 7517W        W 9717   5.933   7.113   2.409  0.4970  0.0193  0.0816
 7518W        W 9718   1.669   3.420  21.320 -0.1614 -0.2066  0.1619
 7519W        W 9719  20.771   3.813  27.063 -0.3220  0.0786  0.1583
 7520W        W 9720   6.547   2.406  24.809 -0.3198 -0.2362 -0.0754
 7521W        W 9721  14.758   0.934   7.575 -0.0643  0.2157  0.1001
 7522W        W 9722   8.835   3.775   0.035  0.0435 -0.0722 -0.0652
 7523W        W 9723  17.046   4.147  19.184 -0.0611 -0.0944  0.2280
 7524W        W 9724  18.786   6.506  22.327  0.1531 -0.1358  0.0401
 7525W        W 9725   5.786   2.925   2.581  0.1019  0.1046 -0.3750
 7526W        W 9726   8.189   1.480  25.529  0.0458  0.1903 -0.0116
 7527W        W 9727   2.022   7.682  27.510 -0.1178 -0.0870 -0.0609
 7528W        W 9728  16.330   1.523   8.930  0.1529 -0.0862  0.1773
 7529W        W 9729   3.015   7.307  30.985  0.0482  0.2674  0.1423
 7530W        W 9730   2.569   2.530  26.606  0.1100 -0.0166  0.0762
 7531W        W 9731  15.678   6.916  26.591  0.0536  0.3872  0.3910
 7532W        W 9732  24.999   1.069  23.731 -0.1992  0.3609 -0.3969
 7533W        W 9733   7.185   2.732  22.855  0.0061 -0.2423  0.1565
 7534W        W 9734   2.675   0.459  28.630  0.0899 -0.0525  0.1507
 7535W        W 9735  15.317   2.130   8.260 -0.1830 -0.1032  0.1076
 7536W        W 9736   6.116   6.168  26.133 -0.1086  0.0889  0.1555
 7537W        W 9737  25.030   4.713  22.436 -0.1820  0.3182  0.1237
 7538W        W 9738  21.140   1.676   0.710  0.3101  0.0251 -0.0527
 7539W        W 9739   9.211   0.757  31.551  0.1211  0.0678  0.0392
 7540W        W 9740  24.510   5.308  32.422  0.1886 -0.1247 -0.2740
 7541W        W 9741   1.191   2.985  29.555 -0.1990  0.3554 -0.1123
 7542W        W 9742   0.742   2.537  31.723  0.0576 -0.0160  0.0728
 7543W        W 9743  18.187   4.953  21.503  0.0433 -0.3112  0.1503
 7544W        W 9744   5.789   2.184  12.997 -0.1790  0.2467 -0.2819
 7545W        W 9745  19.790   6.709   1.703  0.0963 -0.1160  0.0568
 7546W        W 9746  10.576   5.181  26.496  0.0495 -0.1329  0.1160
 7547W        W 9747  10.057   7.011  15.560  0.2685  0.2422 -0.4311
 7548W        W 9748   0.141   3.954   7.620 -0.0652 -0.2091 -0.1333
 7549W        W 9749   1.525   0.068  10.641 -0.1760 -0.1011 -0.1209
 7550W        W 9750  10.429   4.690   0.385 -0.1913 -0.0864  0.2783
 7551W        W 9751  23.831   6.097   3.471 -0.0478  0.2418 -0.2037
 7552W        W 9752   7.673   0.787  24.122 -0.0202  0.0778  0.3823
 7553W        W 9753   6.262   7.139   8.959 -0.0796 -0.2922  0.2541
 7554W        W 9754  10.953   3.286  24.425 -0.0871  0.0324  0.1764
 7555W        W 9755   8.614   3.919  32.298 -0.4870  0.1708 -0.0967
 7556W        W 9756  14.967   4.538   2.756 -0.0856 -0.3098 -0.0830
 7557W        W 9757   1.342   2.287  18.397  0.0284 -0.2600 -0.1719
 7558W        W 9758  11.630   6.108  11.870 -0.1749 -0.0442 -0.0919
 7559W        W 9759  20.760   3.160  27.707  0.1811 -0.0514  0.3425
 7560W        W 9760   3.007   5.417   8.997  0.0655 -0.2342  0.1032
 7561W        W 9761  13.249   2.389  21.591  0.0504  0.1175  0.2987
 7562W        W 9762  12.900   6.181  25.181 -0.2139  0.0947  0.0175
 7563W        W 9763   4.725   6.656  26.944 -0.1752  0.0031  0.3120
 7564W        W 9764  11.440   5.660  30.703  0.1693 -0.0606 -0.1014
 7565W        W 9765  20.197   1.441  24.362  0.0636  0.1532 -0.1978
 7566W        W 9766  20.939   0.439  15.946 -0.1739 -0.1652 -0.0918
 7567W        W 9767  21.728   7.743  20.684 -0.1833  0.2347  0.0176
 7568W        W 9768   9.103   6.301   0.036 -0.1059  0.0126 -0.1425
 7569W        W 9769  18.907   1.690  23.887 -0.1126 -0.1161 -0.4104
 7570W        W 9770  14.654   3.854  11.150  0.0458 -0.2362 -0.0012
 7571W        W 9771  17.758   3.614  23.809  0.1717 -0.0970  0.3430
 7572W        W 9772  16.906   0.237  22.492 -0.3437 -0.1590 -0.0424
 7573W        W 9773  18.375   1.566  17.179  0.0286  0.0473 -0.0152
 7574W        W 9774  21.145   6.431  21.531 -0.2814 -0.0404  0.1476
 7575W        W 9775   5.211   2.587  26.082 -0.0128 -0.2361 -0.0627
 7576W        W 9776  24.554   7.568  18.610 -0.0068  0.0418  0.1108
 7577W        W 9777  14.498   2.339  26.131 -0.0190  0.0804 -0.1805
 7578W        W 9778  21.082   5.544  14.913 -0.1175  0.0480  0.0088
 7579W        W 9779  10.434   4.791   2.895 -0.0182 -0.5156  0.1875
 7580W        W 9780  14.632   2.895  20.880 -0.2607  0.2033 -0.0335
 7581W        W 9781   0.058   0.898   8.075  0.1775  0.2819 -0.0302
 7582W        W 9782   0.209   3.148  22.129 -0.1474 -0.0411  0.0101
 7583W        W 9783  14.190   4.146   3.402  0.2897 -0.3660 -0.1089
 7584W        W 9784  17.275   2.698   4.754 -0.2934  0.0821  0.0224
 7585W        W 9785  20.037   0.504   6.345 -0.2403 -0.0910  0.0673
 7586W        W 9786  23.441   7.282  26.735 -0.0219  0.0850 -0.1027
 7587W        W 9787   3.199   3.256  29.408 -0.0297  0.1483  0.0808
 7588W        W 9788   0.997   2.411   4.682 -0.1614 -0.0474  0.1989
 7589W        W 9789   1.726   4.071  21.992 -0.1175 -0.1676  0.1070
 7590W        W 9790  14.766   5.570   7.763 -0.0274  0.1096 -0.1086
 7591W        W 9791  10.085   2.142  16.449 -0.2451 -0.1094  0.0576
 7592W        W 9792  14.410   3.033   2.518 -0.1246  0.0433 -0.0453
 7593W        W 9793   7.804   5.826  11.439  0.0085 -0.1875  0.4270
 7594W        W 9794  21.156   5.381   3.064 -0.1938 -0.1360 -0.0198
 7595W        W 9795  10.214   4.177  10.601 -0.0891  0.2064  0.2215
 7596W        W 9796  22.673   5.446   3.148 -0.1669 -0.1749  0.0391
 7597W        W 9797   6.316   1.147  16.333 -0.4067  0.2430  0.0260
 7598W        W 9798   8.102   6.739   2.958  0.1650 -0.0004 -0.0131
 7599W        W 9799   8.768   7.665   4.436 -0.0304  0.2846 -0.0211
 7600W        W 9800  10.543   7.182  23.286  0.3425 -0.0778  0.1133
 7601W        W 9801   3.886   1.730  21.282 -0.2791 -0.4836  0.0967
 7602W        W 9802  13.831   2.603  30.530  0.3333 -0.2948  0.0914
 7603W        W 9803  14.893   1.152   3.353 -0.1187 -0.1438  0.1023
 7604W        W 9804   3.554   4.202  32.322 -0.0242  0.1435  0.2613
 7605W        W 9805  19.579   6.864   8.009  0.2029  0.0375  0.0849
 7606W        W 9806   2.174   6.135  11.642 -0.2107 -0.0855 -0.0272
 7607W        W 9807  14.541   2.820  24.375 -0.3278 -0.1195  0.1835
 7608W        W 9808   3.661   3.902  27.089 -0.2988 -0.0248 -0.0996
 7609W        W 9809  16.688   4.339   6.018 -0.0193  0.2251  0.2193
 7610W        W 9810  20.342   3.421  24.268  0.2314 -0.1050 -0.2940
 7611W        W 9811   4.809   5.020   6.638 -0.2890 -0.2428 -0.0412
 7612W        W 9812  22.974   2.520  24.419  0.0581  0.0375 -0.2289
 7613W        W 9813  17.990   6.267  18.351 -0.0514  0.0584 -0.0073
 7614W        W 9814   4.894   4.799  29.845  0.1468  0.2052 -0.2974
 7615W        W 9815   1.668   5.931  32.273 -0.3858 -0.1320  0.1085
 7616W        W 9816   3.322   7.614  14.771 -0.1063  0.1929  0.1001
 7617W        W 9817   7.004   3.555  27.907 -0.0572  0.0134  0.0964
 7618W        W 9818  23.730   6.663   0.944  0.2699  0.1136 -0.0999
 7619W        W 9819  13.870   5.528  11.164  0.1274  0.1839 -0.0072
 7620W        W 9820  14.576   6.628  28.721 -0.1008  0.2237 -0.0424
 7621W        W 9821   0.938   7.398  20.169 -0.2328 -0.1384  0.1934
 7622W        W 9822  23.135   7.793   5.196  0.3892 -0.0040 -0.0083
 7623W        W 9823  20.556   0.623   7.821 -0.2704 -0.0082  0.3340
 7624W        W 9824   3.477   2.901  21.155  0.2585  0.0191  0.0764
 7625W        W 9825   3.598   1.603   6.822  0.0052 -0.0200 -0.1173
 7626W        W 9826  20.718   6.944   0.425  0.1293  0.0307  0.0534
 7627W        W 9827  12.367   0.210   5.354  0.2066 -0.0464  0.1879
 7628W        W 9828   8.167   1.921   9.516 -0.3732 -0.1377  0.1463
 7629W        W 9829   7.523   3.681  30.648 -0.2668  0.0336 -0.4377
 7630W        W 9830   1.738   4.479  31.027  0.0341  0.2370 -0.2095
 7631W        W 9831  14.375   2.519   5.115  0.1012  0.2567 -0.0016
 7632W        W 9832   5.685   2.846   7.154  0.1008 -0.0673 -0.4047
 7633W        W 9833   1.761   0.399   1.020  0.1327 -0.3724 -0.1215
 7634W        W 9834   1.191   5.833  23.181 -0.0485 -0.3634  0.2056
 7635W        W 9835  15.209   0.573   9.253  0.1941 -0.0859  0.1290
 7636W        W 9836   4.369   4.373  28.265  0.2677  0.1527 -0.1082
 7637W        W 9837  10.568   0.602  13.794  0.2724  0.2610 -0.2401
 7638W        W 9838  14.708   3.671  24.860 -0.0051 -0.0195 -0.2034
 7639W        W 9839  16.673   0.942  24.391  0.0223 -0.2659 -0.3098
 7640W        W 9840   7.256   1.580  10.152 -0.0613  0.2885 -0.0240
 7641W        W 9841   4.695   0.319  26.338  0.3211  0.1680 -0.1906
 7642W        W 9842  24.667   7.763  19.126 -0.3549  0.0462 -0.1333
 7643W        W 9843   4.739   6.256   3.509 -0.0497  0.3136  0.2731
 7644W        W 9844   1.700   6.437   5.667 -0.4220 -0.1043 -0.3363
 7645W        W 9845  15.921   1.247  24.910  0.3983  0.0582 -0.1159
 7646W        W 9846   0.778   6.089   3.338 -0.3134 -0.0590 -0.0762
 7647W        W 9847  17.575   7.325  10.952  0.2348  0.0321  0.2613
 7648W        W 9848   6.103   1.666  22.267  0.3928  0.0245  0.0673
 7649W        W 9849   1.099   5.018  23.053  0.3206  0.2581 -0.1024
 7650W        W 9850  14.228   5.904  23.772  0.1910 -0.3344 -0.1564
 7651W        W 9851   5.347   6.757  30.919  0.0443  0.0619 -0.0962
 7652W        W 9852   9.552   6.703   0.279  0.0632  0.0644 -0.0994
 7653W        W 9853  12.382   3.445   6.859  0.0660  0.1624  0.1156
 7654W        W 9854  17.008   0.180   6.538 -0.0348  0.0486 -0.0922
 7655W        W 9855  10.248   7.754  17.787 -0.2261 -0.0850  0.3364
 7656W        W 9856   9.770   7.468  15.768  0.1111  0.1600 -0.2001
 7657W        W 9857  15.973   6.973  25.064  0.0439  0.0710 -0.1081
 7658W        W 9858  11.985   2.870   2.341 -0.0081 -0.1307 -0.2178
 7659W        W 9859   9.304   3.681   3.720  0.0652 -0.1101  0.0237
 7660W        W 9860   8.667   7.693  24.748  0.1215 -0.1660 -0.0395
 7661W        W 9861  19.569   1.994  19.135 -0.2145 -0.0167  0.0588
 7662W        W 9862   6.396   4.940  27.290  0.1241  0.0058 -0.0035
 7663W        W 9863  21.911   0.892   8.872 -0.0089 -0.1728 -0.1179
 7664W        W 9864  20.457   7.619  21.159 -0.0901  0.1039 -0.1733
 7665W        W 9865  12.685   2.535   3.244  0.1333  0.2253  0.0331
 7666W        W 9866  24.268   1.163  31.820  0.1942 -0.1100  0.2037
 7667W        W 9867   6.955   0.307  10.722 -0.4472  0.0165 -0.0835
 7668W        W 9868   5.751   6.154   6.574 -0.0241 -0.1148 -0.0579
 7669W        W 9869   1.371   6.375   4.742 -0.1357  0.2732  0.0592
 7670W        W 9870   2.892   7.496  28.478 -0.1429  0.0567 -0.1522
 7671W        W 9871   2.230   3.502  28.726 -0.0871 -0.0145  0.0973
 7672W        W 9872  17.975   6.636  27.671  0.0296 -0.2589  0.1558
 7673W        W 9873   9.966   2.102  32.439 -0.2402  0.2020 -0.0520
 7674W        W 9874  12.267   7.294   3.312 -0.0114 -0.0730 -0.2160
 7675W        W 9875  18.826   3.644  23.202  0.0177 -0.0289  0.0683
 7676W        W 9876  12.147   2.091  25.256 -0.0448  0.1182 -0.0041
 7677W        W 9877  22.408   0.110   3.201  0.1548 -0.0828 -0.1441
 7678W        W 9878  16.741   4.037   3.117 -0.2159  0.0812  0.0616
 7679W        W 9879  11.449   1.099   4.480 -0.0748 -0.0742  0.0843
 7680W        W 9880  12.861   6.603  31.003  0.3206 -0.3792 -0.0066
 7681W        W 9881  24.850   5.005  24.210  0.1835 -0.1229 -0.1804
 7682W        W 9882  17.269   3.686   1.094 -0.3197  0.1142  0.1613
 7683W        W 9883  18.793   3.170   5.539  0.0291 -0.0266 -0.1119
 7684W        W 9884  22.488   0.730  25.437  0.1082  0.0923  0.0874
 7685W        W 9885  24.698   5.424  24.503 -0.1387  0.1186 -0.3636
 7686W        W 9886  24.936   5.948  18.475 -0.0356 -0.1308  0.2349
 7687W        W 9887  21.292   6.720  18.998  0.2512 -0.0156 -0.1109
 7688W        W 9888  14.110   7.423  12.100 -0.0264 -0.0361  0.1128
 7689W        W 9889  22.492   4.397  24.803 -0.0396 -0.0350  0.0578
 7690W        W 9890  11.360   6.177   4.387 -0.1298 -0.1321  0.2234
 7691W        W 9891   1.022   0.785   1.430 -0.3706  0.1944  0.0421
 7692W        W 9892   1.306   6.396  29.633  0.2022  0.0645  0.3589
 7693W        W 9893  24.855   2.875   1.234  0.1656  0.0314 -0.3957
 7694W        W 9894  15.099   4.710  29.943 -0.1588 -0.0884 -0.3306
 7695W        W 9895   7.377   1.431   6.272  0.0206  0.1974 -0.0529
 7696W        W 9896   7.290   1.879  25.578  0.1136  0.1229  0.2325
 7697W        W 9897  23.579   6.446  23.020 -0.1462  0.0083 -0.0250
 7698W        W 9898   8.710   0.018  12.861 -0.0827 -0.3017  0.0344
 7699W        W 9899   6.887   2.964  10.616 -0.1239 -0.0819 -0.0722
 7700W        W 9900  10.962   0.997  23.030 -0.1186  0.0169 -0.1129
 7701W        W 9901   2.460   7.351  31.637  0.1731 -0.3191  0.0795
 7702W        W 9902   8.756   4.858  31.891  0.1122  0.0350 -0.5248
 7703W        W 9903  12.170   4.754  25.724  0.0453 -0.0960 -0.0255
 7704W        W 9904   1.080   3.535   8.067  0.0491 -0.0922  0.2266
 7705W        W 9905  15.596   6.891  11.657  0.1749 -0.1363  0.1012
 7706W        W 9906   4.024   5.040  24.027 -0.3061 -0.0204  0.0749
 7707W        W 9907  21.877   6.954   0.583 -0.3551  0.1328 -0.0262
 7708W        W 9908   8.349   2.883  27.598  0.0582  0.0898  0.0505
 7709W        W 9909  16.804   5.619  11.280  0.0930  0.1348  0.3700
 7710W        W 9910  13.921   3.851  24.435 -0.0910 -0.0333 -0.0315
 7711W        W 9911   9.195   4.027  31.286  0.0138  0.1066 -0.1100
 7712W        W 9912   9.270   0.991   8.231 -0.1125  0.0064 -0.1052
 7713W        W 9913  23.008   5.266   3.714  0.0960 -0.1330  0.1126
 7714W        W 9914  12.023   3.315  15.492  0.0334  0.2552 -0.3733
 7715W        W 9915  21.488   6.411  14.597  0.0932  0.1193  0.0776
 7716W        W 9916  17.121   0.084  26.706 -0.0667 -0.0182 -0.1317
 7717W        W 9917  13.752   1.073  27.167 -0.3554 -0.2163 -0.0873
 7718W        W 9918  16.942   0.880   4.691  0.0202 -0.1920  0.0401
 7719W        W 9919  21.010   2.309   1.668 -0.2470 -0.3069 -0.0251
 7720W        W 9920   5.293   1.902  25.037  0.0358  0.0189 -0.2266
 7721W        W 9921  19.508   4.380   0.793 -0.0278 -0.0871 -0.3915
 7722W        W 9922   6.025   0.689  13.558 -0.1137 -0.2855 -0.0907
 7723W        W 9923  23.971   2.656  21.350  0.0315  0.0043  0.1967
 7724W        W 9924   0.929   3.692   4.084  0.1660  0.0464  0.1473
 7725W        W 9925  11.209   2.473  29.474  0.0847 -0.0482 -0.2334
 7726W        W 9926   2.727   2.739  31.164 -0.1750  0.1618  0.0771
 7727W        W 9927   3.812   6.996  29.228  0.0360 -0.1432 -0.1851
 7728W        W 9928   1.165   7.419  19.746  0.2410  0.0777  0.0486
 7729W        W 9929   7.421   6.932  25.404  0.1925  0.1445  0.1034
 7730W        W 9930  20.793   5.766  27.191  0.1194  0.0044 -0.0734
 7731W        W 9931  24.478   6.729  32.477  0.0400 -0.0712  0.0320
 7732W        W 9932  19.828   0.491  19.807 -0.1166  0.1448 -0.0796
 7733W        W 9933  18.529   6.131   8.763  0.1574  0.1248  0.1557
 7734W        W 9934   0.094   7.199   6.969 -0.0107  0.4359 -0.1334
 7735W        W 9935   3.234   1.982  32.692 -0.0353 -0.1926 -0.2133
 7736W        W 9936  12.388   7.416   1.896 -0.1426 -0.1832  0.1962
 7737W        W 9937  20.051   5.300  26.304 -0.1502  0.2791  0.0213
 7738W        W 9938  17.818   6.840  19.050  0.0590  0.0643 -0.1572
 7739W        W 9939   8.460   0.707  24.073 -0.0621  0.0772  0.0169
 7740W        W 9940  22.315   7.324  18.202 -0.2361  0.0235 -0.0271
 7741W        W 9941   7.936   5.587  23.717 -0.3233 -0.0035  0.1749
 7742W        W 9942   3.836   2.028  29.494 -0.2118 -0.0870  0.0766
 7743W        W 9943   3.930   6.363   9.261 -0.1118 -0.2431 -0.1221
 7744W        W 9944   3.452   4.990  28.881  0.0046 -0.0212 -0.0910
 7745W        W 9945  18.011   5.966  27.662  0.1440 -0.3502  0.2071
 7746W        W 9946  24.743   1.245   6.306  0.0135 -0.1570 -0.2659
 7747W        W 9947   5.331   7.433   7.907  0.2259 -0.0049 -0.0112
 7748W        W 9948   5.280   3.480  27.842  0.1446  0.2419 -0.0216
 7749W        W 9949   2.004   3.122  32.195 -0.1079  0.0400  0.1621
 7750W        W 9950   0.526   4.988   3.970  0.1478 -0.1374  0.0021
 7751W        W 9951  19.930   0.154  29.824  0.1200  0.0353 -0.0099
 7752W        W 9952  13.680   5.691  31.627 -0.0472  0.1787  0.2814
 7753W        W 9953  11.322   6.436  15.177 -0.0085 -0.0183  0.0896
 7754W        W 9954  19.167   3.169  30.890  0.1356 -0.4794 -0.1537
 7755W        W 9955  24.561   7.189  30.031 -0.2391  0.2519  0.3651
 7756W        W 9956  18.825   5.771  24.138 -0.2040 -0.0382  0.1942
 7757W        W 9957  21.878   0.844  18.460 -0.0725 -0.1584 -0.0950
 7758W        W 9958  21.427   2.917  16.088  0.0244  0.2374 -0.1109
 7759W        W 9959  13.059   0.955  30.846  0.0640  0.0782  0.2226
 7760W        W 9960   2.974   3.652  27.745 -0.1110  0.2741  0.1341
 7761W        W 9961   0.790   5.239  31.277 -0.0580  0.3916 -0.1219
 7762W        W 9962  16.625   0.706  27.038  0.1099 -0.1598 -0.0686
 7763W        W 9963  23.153   7.353  21.471 -0.1751 -0.1740 -0.0861
 7764W        W 9964   1.592   5.004  20.820 -0.0548  0.1468 -0.2198
 7765W        W 9965   1.398   1.123  10.014 -0.3339  0.2510 -0.2400
 7766W        W 9966  22.082   1.490   0.234  0.2089 -0.1067 -0.0108
 7767W        W 9967  14.577   1.806  30.363 -0.0136 -0.0018  0.1064
 7768W        W 9968  10.588   4.975  24.400 -0.0023 -0.0211  0.0723
 7769W        W 9969  10.420   3.429  24.170  0.2390  0.0921  0.2444
 7770W        W 9970  16.971   4.158   5.148 -0.0622  0.0983 -0.1028
 7771W        W 9971   9.967   4.592  16.469 -0.0245 -0.0551  0.2342
 7772W        W 9972  17.695   6.542  23.094 -0.0332  0.1879  0.0252
 7773W        W 9973  11.837   6.475  29.923 -0.0661  0.0899  0.0950
 7774W        W 9974  12.695   2.874   1.190  0.1406  0.3150  0.3054
 7775W        W 9975  21.390   6.642  22.906 -0.2360  0.2544  0.0155
 7776W        W 9976  10.719   5.343   0.370 -0.3612 -0.1162  0.3159
 7777W        W 9977   5.390   5.702   5.536  0.0699 -0.0015  0.0317
 7778W        W 9978  20.732   3.260   1.240 -0.1940 -0.0674 -0.0251
 7779W        W 9979  12.541   2.658  22.597 -0.0144 -0.0573 -0.2605
 7780W        W 9980  17.506   0.315   0.058  0.0520 -0.0683 -0.0263
 7781W        W 9981  20.214   1.688   6.232  0.0161  0.0926  0.1906
 7782W        W 9982   3.501   6.087   9.422  0.0232  0.1022  0.3510
 7783W        W 9983  11.841   4.710   8.640 -0.1904 -0.1583 -0.2922
 7784W        W 9984  16.066   2.754  26.856  0.1246 -0.3336 -0.2532
 7785W        W 9985  21.143   2.991   8.949  0.1433  0.0580 -0.0844
 7786W        W 9986   9.570   0.113  24.711  0.0219 -0.2172 -0.0346
 7787W        W 9987   8.522   1.446   9.888 -0.0986  0.0016  0.0178
 7788W        W 9988  22.329   5.564   5.321  0.1248  0.2335 -0.2306
 7789W        W 9989   1.408   6.573  22.747  0.3312  0.4076  0.0410
 7790W        W 9990  20.925   6.609  19.622  0.1337 -0.2270  0.4105
 7791W        W 9991  24.710   1.406  19.662 -0.1697 -0.2291  0.2066
 7792W        W 9992   9.121   3.394   9.844  0.1868  0.0237  0.1361
 7793W        W 9993   5.770   7.469  13.403 -0.1048  0.0155  0.2258
 7794W        W 9994   7.692   4.048   9.249 -0.2000 -0.0713 -0.2132
 7795W        W 9995  15.155   1.649   3.359  0.0501  0.1092  0.2466
 7796W        W 9996  10.094   4.247  13.090  0.0168 -0.2108 -0.3153
 7797W        W 9997  21.376   7.387   9.004  0.3686  0.0306  0.1591
 7798W        W 9998  23.008   2.965  26.144 -0.0615  0.1830  0.1395
 7799W        W 9999  11.523   0.264  26.993 -0.0624 -0.0047  0.1881
 7800W        W10000  21.380   6.342  15.160 -0.0126 -0.1460  0.1442
 7801W        W10001  23.756   2.380  25.335  0.3087  0.0819  0.0055
 7802W        W10002   3.706   1.760   5.654  0.0784  0.0303  0.2138
 7803W        W10003  12.479   4.283  11.433 -0.1114  0.2683  0.1317
 7804W        W10004  20.078   2.832   3.015 -0.2574 -0.2714  0.1548
 7805W        W10005  16.942   2.094  18.700 -0.1128  0.4440 -0.3078
 7806W        W10006  21.739   7.257  18.308 -0.2926 -0.2204  0.0509
 7807W        W10007   6.527   4.011  11.988  0.0234  0.2224  0.0240
 7808W        W10008   1.861   0.047   7.934 -0.1852 -0.0749 -0.2744
 7809W        W10009   1.069   6.952   1.698 -0.4103 -0.3440 -0.0542
 7810W        W10010   3.095   6.953   0.502 -0.0710  0.0290 -0.3696
 7811W        W10011  15.702   2.474  27.805 -0.0483 -0.1253 -0.0641
 7812W        W10012   7.692   4.869  22.848  0.1668 -0.2036  0.2299
 7813W        W10013  24.707   1.379  21.403 -0.0469 -0.0111  0.2979
 7814W        W10014  13.078   5.615   7.662  0.1826  0.0602  0.0596
 7815W        W10015  19.256   3.248  29.569  0.2487 -0.0734 -0.2788
 7816W        W10016   5.883   7.491  26.405 -0.0463  0.1120 -0.1160
 7817W        W10017  17.544   6.632  15.894 -0.1300  0.0687 -0.1995
 7818W        W10018  24.765   4.820  22.863  0.5366 -0.2403 -0.1882
 7819W        W10019   3.205   4.944   8.750  0.0885 -0.2317 -0.0672
 7820W        W10020   7.452   5.679  17.736  0.0169  0.0620  0.0232
 7821W        W10021  19.676   0.934  32.248  0.4150 -0.0595 -0.3065
 7822W        W10022  23.552   2.646   5.671  0.0351  0.0152 -0.2428
 7823W        W10023   4.306   7.266  26.900 -0.1762  0.4624 -0.0577
 7824W        W10024  21.710   3.212  23.837 -0.1725  0.3509 -0.0491
 7825W        W10025   2.181   7.571  29.036 -0.4825 -0.0047 -0.0311
 7826W        W10026  11.277   4.961  12.638  0.0644  0.2582  0.0214
 7827W        W10027   2.554   6.540  31.726  0.0946  0.2625 -0.0722
 7828W        W10028  21.290   0.674   1.119 -0.1062  0.0495  0.0482
 7829W        W10029  22.794   6.293  18.109  0.2036  0.2494  0.4548
 7830W        W10030  19.544   4.892  21.865 -0.0751  0.1981 -0.1031
 7831W        W10031   8.159   6.217   8.803 -0.0092  0.1239  0.3746
 7832W        W10032  11.343   7.559  22.724  0.1680 -0.0155  0.1179
 7833W        W10033   6.320   2.901   8.937  0.1168  0.3341 -0.0781
 7834W        W10034   9.609   3.406   4.699  0.1672 -0.1071 -0.3572
 7835W        W10035  18.445   5.495   5.141 -0.4279  0.0106  0.0824
 7836W        W10036  24.199   7.554   0.336  0.1640  0.0228 -0.0066
 7837W        W10037   4.601   5.124   2.362  0.0874 -0.0259 -0.0128
 7838W        W10038  21.629   1.018  24.871 -0.3007 -0.0224 -0.0542
 7839W        W10039  22.235   1.839  24.980  0.0565  0.0359 -0.0818
 7840W        W10040   5.436   2.149   6.067  0.1189 -0.0268 -0.0972
 7841W        W10041  16.565   2.975  10.628 -0.0908 -0.2064  0.0028
 7842W        W10042  11.358   0.719  15.920 -0.0090  0.2036  0.3734
 7843W        W10043   7.661   2.591  25.415 -0.0050 -0.2294 -0.1611
 7844W        W10044   6.404   6.367  32.317  0.0159 -0.5268  0.3995
 7845W        W10045   4.808   3.673  27.977 -0.0108 -0.2018 -0.1380
 7846W        W10046  11.267   2.995  25.291 -0.0392 -0.0688  0.2027
 7847W        W10047   4.128   2.706  30.850 -0.1381 -0.2128 -0.1232
 7848W        W10048  17.750   4.104   2.753  0.0516  0.0804  0.1238
 7849W        W10049  10.975   5.906  24.721 -0.0408  0.0554  0.0097
 7850W        W10050  11.682   5.883  10.654  0.0266 -0.0099  0.2422
 7851W        W10051  20.702   3.586  14.208 -0.1300 -0.1025  0.1094
 7852W        W10052  22.791   2.013  27.749 -0.0384 -0.0633 -0.0586
 7853W        W10053  14.104   3.572   8.258 -0.0474  0.0044  0.1631
 7854W        W10054  17.168   4.877   1.900  0.2245  0.0382 -0.0051
 7855W        W10055  11.025   3.481  15.242  0.1314  0.0446  0.1172
 7856W        W10056  15.099   5.067  29.617  0.1603  0.0445 -0.1898
 7857W        W10057   0.026   7.511  19.440  0.2274  0.1788 -0.0611
 7858W        W10058  20.673   0.421  31.614 -0.1441  0.2153 -0.2774
 7859W        W10059  10.237   2.636  31.740  0.1175 -0.2027  0.0464
 7860W        W10060  22.121   3.575   8.349 -0.1926  0.1414  0.0294
 7861W        W10061  10.982   7.611  10.141  0.0887 -0.1922 -0.2846
 7862W        W10062  20.686   7.653  15.266  0.0148  0.3195  0.2204
 7863W        W10063  10.665   3.861  27.667  0.1931  0.2067 -0.0316
 7864W        W10064   2.886   2.311  30.974  0.1391  0.3139 -0.1626
 7865W        W10065   3.031   1.574  29.114 -0.2310 -0.1156 -0.2964
 7866W        W10066  17.132   6.667  17.324  0.1301  0.1924 -0.1267
 7867W        W10067  19.834   1.623   7.133 -0.4509  0.1526  0.1790
 7868W        W10068  21.184   5.163  19.599 -0.0662 -0.1237 -0.0118
 7869W        W10069  12.710   4.515  24.173 -0.0100  0.0584  0.1884
 7870W        W10070   4.115   2.107   3.218  0.2079  0.0452  0.1351
 7871W        W10071  19.223   6.398  18.223  0.1408  0.1819 -0.0337
 7872W        W10072   4.043   0.088  21.457  0.1348  0.0581 -0.2841
 7873W        W10073  11.988   5.246  13.313 -0.1049 -0.1262  0.1012
 7874W        W10074  14.827   4.603   3.819 -0.1622  0.1377  0.0824
 7875W        W10075   8.941   1.426  14.802  0.1019 -0.0493 -0.3149
 7876W        W10076   2.067   2.037   5.491 -0.0880  0.1073 -0.2774
 7877W        W10077   4.180   5.597  12.878 -0.1934 -0.1779  0.3572
 7878W        W10078  15.624   2.294   1.249 -0.1773 -0.0131 -0.0475
 7879W        W10079  20.755   4.123   8.645 -0.0244  0.1077 -0.0396
 7880W        W10080  13.845   5.908  27.478  0.1205 -0.0765  0.2259
 7881W        W10081   8.921   6.667  31.627 -0.2940 -0.0126  0.0166
 7882W        W10082  22.730   3.942  20.929 -0.1563  0.0049  0.4360
 7883W        W10083  11.380   1.593   9.441  0.0553 -0.2927  0.0793
 7884W        W10084  23.551   4.321  24.605 -0.1857 -0.1664  0.2210
 7885W        W10085  24.428   1.722  10.044  0.2378  0.3661 -0.0315
 7886W        W10086  18.038   3.871  22.885  0.0331 -0.0804  0.0728
 7887W        W10087  23.911   6.985   3.207  0.1060  0.0626 -0.1837
 7888W        W10088   6.155   3.830  13.136 -0.0117 -0.1237 -0.1389
 7889W        W10089  14.177   1.590   4.334 -0.1259  0.0705  0.1269
 7890W        W10090   4.878   7.764  15.026 -0.2083  0.0472 -0.0459
 7891W        W10091  17.185   2.878  30.493 -0.0757 -0.3092 -0.0571
 7892W        W10092  15.380   2.548  20.550 -0.0066 -0.2272  0.0070
 7893W        W10093  16.146   2.166  27.473  0.0776 -0.0539 -0.0200
 7894W        W10094   6.673   5.759   7.884  0.0722  0.1918 -0.0393
 7895W        W10095  14.047   4.872  32.277 -0.2534 -0.0901  0.0097
 7896W        W10096   1.705   1.412  11.587 -0.1380  0.1280  0.0083
 7897W        W10097  16.776   4.211   9.417 -0.0025  0.1252 -0.2890
 7898W        W10098  11.675   5.196  22.757 -0.0439 -0.1946 -0.0166
 7899W        W10099  20.020   1.653  23.929  0.0807 -0.2114  0.0452
 7900W        W10100  22.002   4.455   0.777 -0.1459 -0.2954  0.1555
 7901W        W10101  20.545   0.198  32.334 -0.0523 -0.0865  0.2396
 7902W        W10102  20.555   5.536  20.438  0.0630 -0.4221 -0.1030
 7903W        W10103   1.581   3.597   7.753  0.0240 -0.2975 -0.2439
 7904W        W10104  16.019   7.762   9.030  0.2177 -0.0845 -0.0703
 7905W        W10105   0.874   2.678  19.244  0.0408  0.0122 -0.2496
 7906W        W10106   5.724   4.249  31.093 -0.2985  0.4081  0.0004
 7907W        W10107  17.616   7.257  26.699 -0.0416  0.1150 -0.1170
 7908W        W10108  22.501   1.882  29.826 -0.0548 -0.3101  0.2391
 7909W        W10109  16.453   5.042  28.381  0.3123 -0.3000 -0.1213
 7910W        W10110  17.235   2.600  20.453 -0.0198  0.0030 -0.3110
 7911W        W10111  16.382   4.734  23.720 -0.0716 -0.2826 -0.2883
 7912W        W10112   0.028   5.516   7.518  0.0156 -0.1671  0.0013
 7913W        W10113  20.117   7.390   8.726 -0.1082 -0.0487  0.1072
 7914W        W10114  12.785   6.272  32.493  0.0161 -0.0613 -0.0720
 7915W        W10115   5.479   3.522   6.393  0.0891 -0.1096  0.3635
 7916W        W10116  18.830   5.247   2.772 -0.0174 -0.1640  0.3221
 7917W        W10117  18.355   7.160  20.548 -0.1364  0.2392  0.2868
 7918W        W10118   9.327   6.741   6.598 -0.0482 -0.0587 -0.1964
 7919W        W10119   5.961   5.625  24.202  0.3174  0.0050  0.1750
 7920W        W10120   7.702   1.471   8.987 -0.1288 -0.3448 -0.0846
 7921W        W10121   9.779   1.695  14.681 -0.1926  0.1630  0.1585
 7922W        W10122  19.248   6.506   9.007 -0.2458 -0.1750 -0.1534
 7923W        W10123  22.259   7.261   2.571  0.0064 -0.2327  0.1477
 7924W        W10124   4.169   0.440   0.556  0.1161 -0.3188 -0.2340
 7925W        W10125  10.129   5.027  31.776 -0.0071  0.1594  0.0800
 7926W        W10126   6.999   3.681   3.694 -0.1788  0.0286 -0.1111
 7927W        W10127   5.891   2.646  27.859  0.0266  0.0703 -0.4015
 7928W        W10128  21.837   5.064  21.594 -0.2974  0.4424  0.1012
 7929W        W10129   0.483   4.534   4.244 -0.1951 -0.1850 -0.0162
 7930W        W10130  13.422   5.860  21.008  0.0608  0.2434  0.1569
 7931W        W10131   8.094   0.825  30.410 -0.3241  0.1935 -0.0019
 7932W        W10132  20.328   6.306  24.237  0.3228  0.1065  0.0354
 7933W        W10133  25.015   6.497  26.524  0.0673 -0.0092  0.1736
 7934W        W10134  17.422   6.410  20.156  0.1412  0.0004 -0.0687
 7935W        W10135   3.282   4.728  28.067  0.1083 -0.0809  0.2637
 7936W        W10136  24.215   7.144   8.962  0.0307  0.2511 -0.1471
 7937W        W10137  10.953   3.747  28.108 -0.0912  0.3146 -0.2151
 7938W        W10138   5.791   7.473   7.219  0.0552 -0.3102 -0.2485
 7939W        W10139  13.046   4.523   7.838  0.2692  0.2425 -0.0236
 7940W        W10140  13.356   7.813  24.027  0.0608  0.0444 -0.0670
 7941W        W10141   6.204   1.019   6.700  0.2013 -0.0286  0.1963
 7942W        W10142   4.439   3.416   6.492  0.2426 -0.0539 -0.1553
 7943W        W10143  24.843   6.425  25.347 -0.0001 -0.0748  0.2113
 7944W        W10144  15.305   0.135  20.514  0.0701  0.2042 -0.1727
 7945W        W10145  13.108   5.461  25.085  0.0411  0.0674 -0.0971
 7946W        W10146   1.561   7.343  31.327  0.2853  0.3431 -0.4737
 7947W        W10147  22.312   6.065  27.610  0.1483 -0.1391  0.1029
 7948W        W10148  24.793   3.802  24.258 -0.1829  0.0203  0.1425
 7949W        W10149   1.777   7.199  27.249 -0.0374 -0.1131  0.1416
 7950W        W10150  11.610   6.972  22.371 -0.0477 -0.1928 -0.2844
 7951W        W10151   0.798   7.729   8.598 -0.2873 -0.1641  0.0430
 7952W        W10152  18.261   3.261  18.396 -0.2439 -0.0150 -0.0751
 7953W        W10153   2.057   6.569  31.888  0.1202 -0.1522  0.3599
 7954W        W10154  10.970   1.361  30.335  0.1358  0.0427  0.2412
 7955W        W10155  12.545   1.792  28.251  0.0362  0.2684  0.2819
 7956W        W10156  24.176   2.896  28.123 -0.2948 -0.0152 -0.1720
 7957W        W10157  18.751   7.802  25.834 -0.3609  0.1449 -0.0877
 7958W        W10158  14.203   5.913  21.107 -0.0124  0.0493 -0.4143
 7959W        W10159   2.530   4.351  32.527 -0.1311 -0.0922  0.2009
 7960W        W10160  12.319   1.424  24.957  0.2378  0.0105  0.0136
 7961W        W10161  14.201   4.221   2.307 -0.0074  0.0346 -0.2425
 7962W        W10162  20.972   5.104  21.867 -0.0381 -0.0335 -0.1176
 7963W        W10163  18.495   7.358  22.585  0.1472  0.0871  0.2782
 7964W        W10164  16.279   5.390   1.968  0.2125 -0.2092 -0.1023
 7965W        W10165  18.532   3.145  29.632  0.1093 -0.0333 -0.1613
 7966W        W10166   8.822   7.743  31.815 -0.1938 -0.1120 -0.1998
 7967W        W10167   9.972   2.134   5.453 -0.4034  0.0390 -0.4062
 7968W        W10168  12.402   6.368  10.008  0.2307  0.1477  0.1948
 7969W        W10169  25.046   2.670  30.029 -0.1273 -0.1803  0.3059
 7970W        W10170  23.583   6.497   3.307  0.0408  0.0845 -0.1103
 7971W        W10171  21.000   5.916  15.204 -0.0377 -0.0405 -0.0262
 7972W        W10172  10.162   3.232   8.827  0.2371  0.3121 -0.2040
 7973W        W10173  22.004   5.352  19.882  0.1452  0.1439 -0.2185
 7974W        W10174   9.167   2.392  16.955 -0.1472  0.0506  0.2785
 7975W        W10175  15.688   5.862   7.594 -0.0532  0.2434 -0.0009
 7976W        W10176   9.121   7.744  23.377  0.1083 -0.1778 -0.0230
 7977W        W10177   9.077   2.123  29.278 -0.0983  0.2507 -0.0370
 7978W        W10178  12.317   6.639  29.977  0.2888  0.1470 -0.0315
 7979W        W10179  17.955   0.400  23.122 -0.1140  0.0084  0.0895
 7980W        W10180   1.180   3.287  23.463 -0.0111 -0.2437 -0.1277
 7981W        W10181   8.050   7.135   1.158  0.0015  0.0491  0.1529
 7982W        W10182  22.024   3.383   8.856 -0.0268 -0.0246 -0.1149
 7983W        W10183   8.735   4.058  31.879  0.0232  0.0661 -0.1580
 7984W        W10184  13.856   5.628  28.233 -0.0540  0.2636 -0.2193
 7985W        W10185  17.262   5.206  23.998  0.0224 -0.0781  0.2894
 7986W        W10186   8.451   4.366  25.952 -0.0738  0.0734  0.0931
 7987W        W10187  11.939   6.279  28.586 -0.0564  0.0253  0.0231
 7988W        W10188   5.862   3.833   5.288  0.1328  0.1740 -0.1322
 7989W        W10189   6.113   2.030   5.515  0.0387 -0.2225 -0.1105
 7990W        W10190  22.458   5.492  29.832  0.1721  0.0266 -0.1837
 7991W        W10191  11.467   2.596   7.088  0.5849  0.1689 -0.0015
 7992W        W10192   1.133   1.982  31.917 -0.0004  0.1179 -0.1514
 7993W        W10193  19.395   3.826   1.544  0.4078  0.1771  0.1298
 7994W        W10194   5.983   4.572  16.550  0.2162 -0.0046  0.1636
 7995W        W10195   4.171   2.643   4.213 -0.1427 -0.0797 -0.1323
 7996W        W10196  22.879   5.596   9.292  0.0528 -0.3069  0.3369
 7997W        W10197   7.135   4.976  26.979  0.1450  0.0857  0.2516
 7998W        W10198  10.701   1.187   9.844 -0.1250  0.1042  0.0910
 7999W        W10199  13.703   1.627  22.337 -0.1145  0.0830  0.0054
 8000W        W10200   2.641   6.358   4.514 -0.1440  0.2570  0.0759
 8001W        W10201  14.104   4.146   2.864  0.0065  0.0716 -0.0040
 8002W        W10202  16.606   3.587   9.968  0.0333 -0.1818  0.0187
 8003W        W10203  11.375   1.195  21.631  0.0504  0.0076 -0.3504
 8004W        W10204  16.223   1.319   1.691  0.0162  0.1573  0.0105
 8005W        W10205  17.527   6.629   3.315  0.2104  0.0304 -0.0489
 8006W        W10206   4.509   4.848   1.945  0.3689  0.1513 -0.0874
 8007W        W10207   4.503   4.955  12.058 -0.0532 -0.2586  0.3252
 8008W        W10208  20.133   1.654  14.616 -0.3220 -0.1627  0.5051
 8009W        W10209   9.489   4.538   0.167 -0.2077  0.0382  0.0511
 8010W        W10210  18.814   1.743   0.588  0.1084 -0.2616  0.0813
 8011W        W10211   2.455   4.493  25.022 -0.3206 -0.0911  0.1498
 8012W        W10212  12.337   5.272  25.732  0.0036 -0.0581 -0.0144
 8013W        W10213  20.620   0.877  25.090  0.0607  0.0204  0.0702
 8014W        W10214   9.701   7.427   4.114  0.1533  0.2151  0.0769
 8015W        W10215  23.665   3.924  26.709  0.1448 -0.3383 -0.2463
 8016W        W10216   3.928   1.640  25.618 -0.4081 -0.0346  0.2084
 8017W        W10217  14.434   4.719  31.947  0.1515 -0.0524  0.4084
 8018W        W10218   7.596   2.345  26.321 -0.0998  0.0660 -0.0930
 8019W        W10219  22.554   2.011  23.729  0.1102  0.2435 -0.6167
 8020W        W10220   3.623   1.461  12.437  0.1107 -0.0340  0.3524
 8021W        W10221   5.999   0.217   8.710 -0.1346  0.3201  0.1192
 8022W        W10222  23.866   1.610   6.426  0.2094 -0.1440 -0.1196
 8023W        W10223  19.230   5.566   3.853 -0.0969 -0.3451  0.2153
 8024W        W10224  13.323   5.769  14.309  0.0890  0.1576  0.1304
 8025W        W10225   4.205   5.611  31.908 -0.1068  0.0602 -0.0251
 8026W        W10226  17.024   4.134  31.524  0.2473 -0.2263 -0.3320
 8027W        W10227  15.736   2.368  31.713 -0.0754 -0.0043 -0.2217
 8028W        W10228   0.835   4.885  19.491  0.1608  0.1766 -0.0593
 8029W        W10229  18.867   6.842  26.169 -0.1785  0.1295 -0.1315
 8030W        W10230   1.016   2.435  10.492  0.0731 -0.1323 -0.1652
 8031W        W10231  19.552   5.218  26.541  0.1523 -0.1902 -0.0678
 8032W        W10232  10.077   2.305   6.280  0.0732 -0.3335 -0.0332
 8033W        W10233  15.114   4.768  29.126 -0.0300 -0.4367 -0.1663
 8034W        W10234   2.570   6.451   3.805 -0.0823 -0.2826  0.1912
 8035W        W10235   7.421   4.849   1.565 -0.1665 -0.3364  0.0301
 8036W        W10236   2.745   5.721  31.835 -0.3021 -0.2035 -0.0456
 8037W        W10237  10.724   1.941  13.526  0.1221  0.1750  0.1182
 8038W        W10238  21.897   2.975  22.599 -0.2569  0.0291  0.0685
 8039W        W10239   2.156   1.890   2.522  0.0067 -0.1067 -0.1728
 8040W        W10240  13.717   5.504   5.441 -0.4065  0.0632  0.3148
 8041W        W10241  10.448   1.972   6.402  0.2835 -0.2002  0.0436
 8042W        W10242  10.117   0.734   4.322 -0.2206  0.2783  0.1538
 8043W        W10243  17.930   7.731   7.749 -0.1175 -0.0343  0.0987
 8044W        W10244   9.980   0.135  22.977  0.1433 -0.0084  0.1827
 8045W        W10245  16.354   4.456   6.787  0.0872 -0.0614 -0.1605
 8046W        W10246  14.630   0.284   5.100  0.1933 -0.2241  0.0564
 8047W        W10247  24.494   5.195  20.581  0.2211  0.0099 -0.0825
 8048W        W10248  18.830   1.502  30.113 -0.3635  0.1614 -0.0116
 8049W        W10249  12.825   3.698   1.673 -0.0774 -0.2188  0.2993
 8050W        W10250  20.571   1.315  18.559  0.0223 -0.0115 -0.1494
 8051W        W10251   0.435   1.507  25.476  0.1723 -0.0170  0.0210
 8052W        W10252  13.010   0.671   7.023 -0.2038 -0.1674  0.1499
 8053W        W10253  21.345   3.626   0.353 -0.1700  0.0866 -0.0491
 8054W        W10254  16.761   1.244  25.740  0.2650 -0.4778  0.1251
 8055W        W10255   9.941   3.304  26.389 -0.0507  0.0352  0.0787
 8056W        W10256   3.396   7.781   7.219 -0.0617 -0.0510 -0.0391
 8057W        W10257   2.078   7.194   0.700  0.3789 -0.0937  0.1283
 8058W        W10258  20.720   0.402  21.522 -0.0655  0.1136  0.1331
 8059W        W10259  12.705   5.655   1.674 -0.1584  0.3716 -0.1351
 8060W        W10260  15.953   7.720  21.593 -0.1679 -0.0793  0.1137
 8061W        W10261  24.522   5.892  16.853 -0.1102  0.0451  0.0972
 8062W        W10262   8.080   4.117   1.177  0.1101  0.0134  0.2034
 8063W        W10263   0.792   6.516  11.627  0.0165 -0.0501  0.0817
 8064W        W10264  17.909   3.119   2.811 -0.0393 -0.2215 -0.1497
 8065W        W10265  13.919   2.518  27.030 -0.3840  0.2119 -0.1563
 8066W        W10266   1.522   5.883   5.604  0.0485 -0.1875 -0.1314
 8067W        W10267   4.510   0.040  30.776 -0.0369 -0.0543 -0.2301
 8068W        W10268  24.664   2.706  20.853  0.2810 -0.0643 -0.0019
 8069W        W10269  20.623   1.386  28.170 -0.2470 -0.2026 -0.2046
 8070W        W10270  22.828   4.773  24.927 -0.1298 -0.1863 -0.0221
 8071W        W10271  18.684   6.695   1.104 -0.0891 -0.0669 -0.0926
 8072W        W10272   1.639   2.682  25.159  0.0027  0.1811 -0.3119
 8073W        W10273  23.339   2.893  23.376  0.3072  0.3598  0.2457
 8074W        W10274  19.047   1.585   4.689 -0.2686 -0.1617 -0.1107
 8075W        W10275  22.603   6.297   9.367  0.1854 -0.3528  0.1661
 8076W        W10276  11.283   5.493  31.166  0.1733  0.0337 -0.0584
 8077W        W10277  14.995   1.791  26.227  0.2071  0.4031 -0.1419
 8078W        W10278  14.235   5.176  24.610  0.0781  0.1234  0.0335
 8079W        W10279  15.307   0.138   7.565 -0.3499 -0.0717 -0.1782
 8080W        W10280  13.804   0.784  23.908  0.1959  0.0496 -0.0302
 8081W        W10281  12.060   4.899  32.128  0.0954  0.3068  0.1738
 8082W        W10282   6.312   7.607  30.008  0.0257  0.3300 -0.0671
 8083W        W10283   8.199   3.847  14.242  0.0539  0.0547 -0.0517
 8084W        W10284   1.054   2.201  30.945  0.0343 -0.1022  0.2561
 8085W        W10285   2.723   0.146   8.812 -0.0145 -0.0850  0.1121
 8086W        W10286  10.951   7.352   2.331 -0.1406 -0.0370  0.3288
 8087W        W10287  12.102   0.634  25.116 -0.0353 -0.0734  0.0468
 8088W        W10288   3.351   1.854  13.368  0.0342 -0.0488 -0.1846
 8089W        W10289   7.290   5.020   0.569  0.1721  0.1197 -0.0150
 8090W        W10290  22.921   4.231  22.771  0.1580  0.1319  0.0726
 8091W        W10291  14.003   1.569  30.382  0.1355  0.3864  0.0758
 8092W        W10292   3.153   1.658   4.871 -0.1636  0.1725  0.0073
 8093W        W10293  22.847   3.617  23.554  0.1691 -0.0275  0.1000
 8094W        W10294  17.139   7.235  28.480  0.2952  0.2501  0.1050
 8095W        W10295   5.616   5.067   2.517 -0.0773 -0.0875 -0.0773
 8096W        W10296  14.407   1.794   5.978  0.0327  0.1079  0.1611
 8097W        W10297  10.120   6.212  32.437 -0.0459  0.1854 -0.0035
 8098W        W10298  10.294   4.762  18.808 -0.0077  0.0723 -0.0317
 8099W        W10299  19.808   5.341  31.631  0.2255  0.0478 -0.2732
 8100W        W10300  18.419   5.200   7.302 -0.2603  0.0163  0.3741
 8101W        W10301  16.503   6.920  19.260 -0.0434 -0.1337 -0.1768
 8102W        W10302  19.548   5.524  28.125 -0.0135 -0.0604 -0.0677
 8103W        W10303   4.050   6.532   7.116  0.1932 -0.0073  0.1037
 8104W        W10304  24.606   2.535   0.923 -0.2643 -0.0328  0.1396
 8105W        W10305  21.310   0.999   8.402 -0.1407 -0.0469 -0.2827
 8106W        W10306  24.874   3.866   1.610 -0.2971 -0.2730 -0.2900
 8107W        W10307   2.709   2.222   6.124 -0.0721 -0.0288  0.1825
 8108W        W10308  13.432   0.736   4.980 -0.2158 -0.0170  0.1020
 8109W        W10309  19.649   6.712  28.451 -0.1696  0.2134 -0.0522
 8110W        W10310  24.750   4.414  18.049 -0.1241  0.1199 -0.1972
 8111W        W10311  11.809   2.165  30.711 -0.2688 -0.1397  0.0162
 8112W        W10312   8.301   5.612   5.541 -0.1807 -0.1415 -0.1247
 8113W        W10313  10.030   2.183  23.241 -0.0614 -0.0005 -0.2382
 8114W        W10314   4.038   2.831  29.138  0.0602  0.4286  0.0859
 8115W        W10315   3.106   3.952   3.769  0.0501  0.0024 -0.2455
 8116W        W10316  13.579   4.143   2.803 -0.2525  0.0298 -0.0834
 8117W        W10317   0.063   5.775  29.796 -0.0960  0.0150  0.0047
 8118W        W10318  20.196   0.713  25.015  0.1012 -0.0040  0.5357
 8119W        W10319  11.424   6.046  10.260  0.1396 -0.3065 -0.0296
 8120W        W10320   3.812   0.094  26.566  0.0474 -0.0559  0.0483
 8121W        W10321  13.494   3.061   5.116 -0.1885  0.1601  0.0059
 8122W        W10322   1.340   3.919  24.978  0.1835  0.1532 -0.0415
 8123W        W10323   4.583   2.281  28.873 -0.3372 -0.0608 -0.1219
 8124W        W10324   3.900   2.846  26.394  0.0749  0.0615 -0.0695
 8125W        W10325   6.416   4.960  12.945  0.0586 -0.1595 -0.0624
 8126W        W10326  17.981   4.304   7.373  0.3668 -0.0868  0.0615
 8127W        W10327   3.179   3.250  21.001 -0.1023 -0.4344 -0.1058
 8128W        W10328  10.675   0.779   8.973 -0.1598  0.1444 -0.0202
 8129W        W10329  21.612   4.258   0.501  0.1940  0.1191  0.0309
 8130W        W10330   9.691   4.193   7.582  0.1512  0.1136 -0.3032
 8131W        W10331  17.572   2.529   3.688  0.2664 -0.0636 -0.0417
 8132W        W10332  17.017   6.371   0.875 -0.3162 -0.0647 -0.0225
 8133W        W10333  13.189   4.600  27.931  0.1273 -0.1299  0.1938
 8134W        W10334  22.022   7.379   0.843  0.0281 -0.0421  0.2401
 8135W        W10335   2.382   7.455  29.809  0.1080 -0.2250  0.1912
 8136W        W10336   0.649   6.580  20.432 -0.1853 -0.0833  0.0716
 8137W        W10337   1.879   6.523  25.879  0.2769  0.1478 -0.1585
 8138W        W10338  20.350   7.825   4.341  0.2372  0.0409  0.1634
 8139W        W10339  10.722   6.402  27.859  0.2689 -0.0524  0.2195
 8140W        W10340  20.228   1.346  29.132  0.3180 -0.2312 -0.1259
 8141W        W10341   9.550   1.848  28.523 -0.2700  0.1345 -0.2678
 8142W        W10342  23.612   4.573  18.990  0.1803  0.1003  0.2484
 8143W        W10343  15.658   0.877  25.270 -0.1261 -0.0011 -0.1142
 8144W        W10344  24.473   4.663  20.307  0.0302  0.3546 -0.0195
 8145W        W10345  10.016   3.189   2.591  0.1661 -0.0545 -0.1515
 8146W        W10346   4.079   3.253  28.836  0.2503 -0.2347  0.2714
 8147W        W10347  14.896   3.977  22.700 -0.0350  0.0749  0.0258
 8148W        W10348  23.331   2.158   7.066 -0.0363 -0.5499 -0.1158
 8149W        W10349  12.479   7.349   0.918 -0.2054 -0.2354  0.0525
 8150W        W10350   5.297   0.440  23.900  0.2860 -0.1405 -0.2378
 8151W        W10351   7.736   4.239  12.746 -0.1980  0.1419 -0.1735
 8152W        W10352   2.803   7.018   6.181 -0.2878 -0.1000 -0.1086
 8153W        W10353  15.627   1.053   4.434 -0.0285  0.1289 -0.4351
 8154W        W10354  21.103   1.948  26.520  0.1328 -0.5531  0.1798
 8155W        W10355  10.972   3.609  12.996 -0.1397  0.1118  0.2725
 8156W        W10356   5.250   3.791   1.881 -0.1775 -0.0266 -0.0552
 8157W        W10357   3.293   0.531  27.300  0.1743  0.0675  0.0588
 8158W        W10358   5.714   1.868  16.866 -0.4039  0.3647  0.3308
 8159W        W10359  13.693   3.345  28.029  0.3029 -0.2473  0.0685
 8160W        W10360   7.161   4.959   5.197 -0.2764  0.2132  0.1461
 8161W        W10361   5.620   1.851   6.846  0.2313  0.0077 -0.0241
 8162W        W10362  15.173   5.037  12.885 -0.0504 -0.0494 -0.1590
 8163W        W10363  24.362   7.107  31.136 -0.1984  0.0579  0.2694
 8164W        W10364   0.343   0.999   7.575  0.0193 -0.2125 -0.1443
 8165W        W10365  10.563   0.582  27.030  0.0907 -0.0373  0.1618
 8166W        W10366  20.463   6.506  17.822 -0.1205  0.0120 -0.1219
 8167W        W10367  11.395   1.571  14.747  0.2636 -0.0549  0.1188
 8168W        W10368  17.336   1.667  21.655 -0.3639 -0.3112  0.1462
 8169W        W10369   9.741   6.970  16.009 -0.2030  0.1122 -0.2060
 8170W        W10370   5.916   1.890  10.680 -0.3095  0.1402  0.1681
 8171W        W10371  19.520   5.235  21.345 -0.2314  0.1026  0.1428
 8172W        W10372  15.722   3.029  27.890  0.1655 -0.1211  0.1537
 8173W        W10373   6.941   6.668   3.640  0.0212  0.3127 -0.1566
 8174W        W10374  17.849   7.415  18.061  0.1868  0.3500 -0.0807
 8175W        W10375  14.718   3.911  27.968  0.1590  0.0905  0.0477
 8176W        W10376  15.875   6.739  30.980  0.1086  0.1234  0.3393
 8177W        W10377  15.724   4.017   8.369 -0.1559 -0.0208  0.0159
 8178W        W10378  22.636   3.073  25.798 -0.0708 -0.2467 -0.2603
 8179W        W10379  20.162   5.743  26.077 -0.0366  0.1570  0.0676
 8180W        W10380  12.858   5.148  31.846 -0.0778  0.0304 -0.1415
 8181W        W10381   3.084   0.994  27.348  0.1224  0.2506 -0.0577
 8182W        W10382  16.969   2.262  23.429  0.2582 -0.2395  0.1381
 8183W        W10383   7.055   5.616  13.952 -0.3438  0.0272 -0.0172
 8184W        W10384  22.430   5.460  16.273  0.0440  0.2115  0.0942
 8185W        W10385   7.024   2.683  15.574  0.0323 -0.0684  0.0446
 8186W        W10386  21.883   3.484   9.561  0.1797  0.0023  0.0069
 8187W        W10387   2.901   4.242   9.426 -0.0255  0.0188 -0.0397
 8188W        W10388  24.665   6.767  26.776  0.1402 -0.1979  0.1869
 8189W        W10389   2.699   4.765  21.006 -0.3015 -0.0663  0.2334
 8190W        W10390  24.235   0.872  26.441 -0.0581 -0.0432  0.1886
 8191W        W10391   1.961   5.242   4.850  0.1691  0.5794  0.0937
 8192W        W10392  21.825   7.267  29.262 -0.1026  0.0479 -0.2103
 8193W        W10393  21.053   1.515   2.705 -0.0431 -0.0375 -0.0182
 8194W        W10394  12.314   5.714   9.187  0.1562  0.0611 -0.0476
 8195W        W10395  17.008   6.760   6.275 -0.0206  0.0774 -0.1490
 8196W        W10396   3.643   4.012  11.902  0.1491  0.1035 -0.0198
 8197W        W10397   8.775   3.213  31.077  0.1835 -0.0926  0.2560
 8198W        W10398  15.458   5.548   2.854 -0.2011  0.3454  0.3085
 8199W        W10399  15.663   1.290   3.477 -0.2084 -0.0208 -0.1649
 8200W        W10400  11.031   3.129  27.437 -0.1557 -0.4335 -0.1299
 8201W        W10401   5.582   1.177   8.178 -0.0054 -0.3198 -0.0038
 8202W        W10402  11.809   2.355   2.148 -0.0817  0.1200  0.1327
 8203W        W10403   2.597   2.709  21.965 -0.0205  0.0620 -0.0095
 8204W        W10404   6.250   0.891  10.560  0.0147 -0.1807  0.0366
 8205W        W10405  21.387   5.732  28.688  0.0050  0.1596  0.2416
 8206W        W10406   7.390   3.584  16.197  0.0334 -0.0694  0.2744
 8207W        W10407  21.917   4.083  17.479 -0.1431 -0.2090 -0.1342
 8208W        W10408   4.747   1.349  24.841  0.2295  0.0565 -0.0319
 8209W        W10409   9.577   2.499   2.914 -0.0157  0.1782  0.1260
 8210W        W10410  15.515   1.497  30.104 -0.0721 -0.0862 -0.5391
 8211W        W10411  16.373   2.938  23.195 -0.1054  0.0940 -0.0450
 8212W        W10412   3.130   4.379  13.036 -0.1579  0.0664  0.1798
 8213W        W10413   4.351   6.464  27.242  0.1322  0.2626  0.0551
 8214W        W10414  19.234   5.437   9.444 -0.0269 -0.1943  0.3243
 8215W        W10415   5.079   1.346  27.094  0.4308  0.1576  0.0152
 8216W        W10416   4.155   4.365   3.675 -0.0415 -0.1169  0.3716
 8217W        W10417  21.731   1.876  15.324 -0.1998 -0.1950  0.0680
 8218W        W10418  12.530   1.950   6.454 -0.0642  0.1604 -0.3266
 8219W        W10419  13.503   0.073  23.054  0.0644 -0.0475  0.1597
 8220W        W10420   3.718   7.527  21.286  0.2309 -0.2621  0.0628
 8221W        W10421  14.061   1.310   7.397 -0.1692 -0.1442  0.2366
 8222W        W10422  19.167   0.965  22.656 -0.0775 -0.2353  0.2760
 8223W        W10423   8.136   3.344   3.125  0.1313  0.0617  0.0661
 8224W        W10424  12.156   0.347   2.910 -0.2643  0.0586 -0.1923
 8225W        W10425  13.259   0.605   1.183 -0.0337 -0.0344 -0.0684
 8226W        W10426  21.121   5.813   6.957  0.2453  0.0999  0.0427
 8227W        W10427  24.366   6.511  10.670  0.0530 -0.2976  0.0859
 8228W        W10428   7.372   1.752  22.713  0.2094 -0.3397 -0.0941
 8229W        W10429  18.667   3.412  10.117  0.0870  0.2530  0.1389
 8230W        W10430  22.375   5.456   0.951 -0.1074 -0.0193  0.3801
 8231W        W10431  17.236   4.744  21.933  0.0240  0.1195  0.4787
 8232W        W10432  24.981   0.861   3.416  0.3664  0.2230  0.1356
 8233W        W10433  21.056   3.458  16.578  0.1872 -0.0395  0.0587
 8234W        W10434  10.095   0.940   2.175 -0.1226  0.2060  0.1626
 8235W        W10435  11.912   3.687  28.959  0.2757 -0.2498 -0.0213
 8236W        W10436   9.865   1.626   7.521  0.2636  0.0572 -0.0517
 8237W        W10437  22.325   4.310  25.634  0.1133  0.0440  0.0304
 8238W        W10438   9.192   1.220  15.314 -0.0217  0.3697 -0.1492
 8239W        W10439  19.613   5.389   0.365 -0.0081 -0.1267  0.0254
 8240W        W10440   5.030   3.148  30.388 -0.0495  0.0644 -0.1842
 8241W        W10441  14.879   2.959   6.125 -0.2032  0.1805  0.1112
 8242W        W10442  17.505   3.663  18.194 -0.0563  0.1192 -0.0491
 8243W        W10443  11.633   6.415  15.872 -0.3121 -0.0927 -0.2023
 8244W        W10444  24.270   6.319  26.018 -0.1473 -0.0144 -0.0596
 8245W        W10445   3.857   6.041  11.010  0.2865  0.0259  0.0954
 8246W        W10446  22.605   3.340  23.207 -0.0059 -0.1454  0.0005
 8247W        W10447   4.662   2.465  14.910  0.2845 -0.1470  0.1824
 8248W        W10448  20.264   5.558   7.425  0.1730 -0.0281 -0.0666
 8249W        W10449  11.232   5.382  27.079  0.0112 -0.0921 -0.4534
 8250W        W10450  20.689   5.440   1.247 -0.2702 -0.3724 -0.0396
 8251W        W10451  19.662   3.382  31.525  0.2261  0.0865 -0.1736
 8252W        W10452  16.252   1.048   6.534 -0.1406 -0.1214 -0.1195
 8253W        W10453  18.459   0.365  17.284 -0.2556 -0.1097  0.2046
 8254W        W10454   1.628   5.324  21.538  0.0454 -0.3314 -0.2848
 8255W        W10455  14.635   1.582  10.995  0.1826 -0.0326  0.2361
 8256W        W10456   5.238   7.803   2.570 -0.0645  0.0362  0.0011
 8257W        W10457   7.567   3.452   4.192 -0.1186  0.1622  0.2275
 8258W        W10458  16.928   1.706  11.341  0.2893 -0.0815 -0.1811
 8259W        W10459  14.130   1.080  24.910 -0.1911  0.3778 -0.0071
 8260W        W10460  24.935   0.604  32.229 -0.2642  0.1766 -0.0402
 8261W        W10461   1.611   0.316   2.379  0.0850  0.0592  0.0144
 8262W        W10462  18.574   2.154  26.429  0.0210  0.0101  0.1844
 8263W        W10463  15.719   1.771  29.753 -0.0079 -0.0151  0.2062
 8264W        W10464  17.773   5.745  20.929 -0.2161  0.0271  0.1757
 8265W        W10465  16.355   1.591  23.266 -0.1545 -0.5223  0.1622
 8266W        W10466   5.851   7.084   3.522  0.0347 -0.2639 -0.2562
 8267W        W10467  10.436   5.730   5.400 -0.0690  0.0011 -0.0275
 8268W        W10468  16.728   1.565   1.085 -0.0720 -0.3214  0.1426
 8269W        W10469  12.174   6.216  16.640  0.2087 -0.5209 -0.1111
 8270W        W10470  12.151   6.064  12.603  0.2189  0.1293 -0.2325
 8271W        W10471   6.662   4.573  25.428 -0.1261 -0.3846  0.0087
 8272W        W10472   4.557   6.947  32.162  0.0081 -0.0881  0.1930
 8273W        W10473  11.142   0.541  22.802 -0.0252  0.0273  0.0149
 8274W        W10474  11.342   7.367   3.934 -0.4516  0.1135  0.2081
 8275W        W10475  24.006   5.020   0.205  0.2164 -0.3230 -0.0123
 8276W        W10476  15.292   2.757  26.109  0.0766 -0.3646 -0.0714
 8277W        W10477  17.609   2.793   1.853  0.2371  0.0767  0.0042
 8278W        W10478  24.951   1.096   6.774 -0.1401  0.4298  0.0827
 8279W        W10479  23.299   6.786  27.053  0.1919  0.3062  0.1833
 8280W        W10480  16.700   0.486   0.018 -0.0353  0.3068  0.4533
 8281W        W10481   1.813   1.688  17.999 -0.0224 -0.0333  0.0794
 8282W        W10482  10.231   0.895  29.225  0.0762  0.2803  0.1611
 8283W        W10483  22.714   6.455  17.637  0.0946 -0.0139  0.2013
 8284W        W10484   8.509   2.676  24.902  0.1898  0.1180 -0.1772
 8285W        W10485  16.207   5.035  10.066  0.0883 -0.1306  0.3026
 8286W        W10486  19.328   4.297  31.951  0.0430  0.2285  0.0957
 8287W        W10487   5.139   4.330   9.450  0.2369 -0.0791  0.0124
 8288W        W10488   8.506   7.146   0.832 -0.1660 -0.2877  0.0372
 8289W        W10489  21.905   0.286  22.858 -0.0032  0.2798  0.2148
 8290W        W10490  17.839   5.953  10.978 -0.0106 -0.0098 -0.0432
 8291W        W10491   4.940   5.958  28.987 -0.2306  0.0461  0.2022
 8292W        W10492  13.924   3.771   5.669  0.3557 -0.2113  0.3041
 8293W        W10493   5.415   7.544   2.142  0.0265 -0.2207 -0.0540
 8294W        W10494   9.748   1.040  23.792  0.1257  0.5362  0.2295
 8295W        W10495  13.816   3.683  26.928  0.0820 -0.0022  0.2303
 8296W        W10496  10.817   3.734  30.318 -0.0430  0.1235  0.0981
 8297W        W10497  19.119   4.050   8.029 -0.1392 -0.1136  0.1023
 8298W        W10498  23.988   2.207  10.178  0.3337 -0.1220  0.1713
 8299W        W10499  14.180   1.364   0.318  0.0416  0.0842  0.3884
 8300W        W10500  15.799   1.855   1.411  0.2585 -0.0868  0.0422
 8301W        W10501   8.692   7.495  30.008 -0.0650  0.0001 -0.1192
 8302W        W10502  20.149   7.375   4.723  0.1606  0.2994 -0.0753
 8303W        W10503  22.524   5.955   0.920 -0.1961 -0.3751 -0.1587
 8304W        W10504  14.229   6.279   3.436  0.1684 -0.0626 -0.1107
 8305W        W10505   3.705   6.708  21.602 -0.2601 -0.2716  0.0885
 8306W        W10506  12.824   1.551  11.037 -0.1960  0.1883  0.1745
 8307W        W10507   3.804   4.023   2.938  0.2329 -0.3589  0.2436
 8308W        W10508  19.778   5.099   8.595  0.0221  0.0096  0.0453
 8309W        W10509  16.004   1.697  32.598 -0.0570  0.1071 -0.0500
 8310W        W10510   1.883   6.342  22.402  0.0259 -0.0157  0.1729
 8311W        W10511  14.853   4.247  29.995  0.0757  0.1768 -0.4997
 8312W        W10512  20.015   1.220  23.169 -0.1111  0.0902 -0.2515
 8313W        W10513  19.349   5.664  17.771 -0.2976  0.1688 -0.0795
 8314W        W10514  10.227   0.596  10.503  0.0565  0.1006  0.3141
 8315W        W10515  17.705   5.244  26.408  0.5284 -0.0081 -0.0716
 8316W        W10516  12.730   7.411  24.670  0.1664  0.0345  0.2612
 8317W        W10517   8.805   7.394   2.747 -0.1235  0.0495  0.0355
 8318W        W10518   3.162   5.714  23.533  0.0072  0.1154 -0.0499
 8319W        W10519  12.219   7.561  10.769 -0.0407 -0.1597  0.1890
 8320W        W10520  20.265   7.185  26.430 -0.1051 -0.1087  0.1347
 8321W        W10521   3.207   1.833  20.627  0.3784  0.0341  0.3398
 8322W        W10522   8.393   5.814  28.169 -0.2305  0.0778  0.2031
 8323W        W10523  11.682   3.201   0.381 -0.0520  0.0567 -0.2785
 8324W        W10524  24.318   2.415  16.379 -0.0392  0.2006 -0.2136
 8325W        W10525  15.558   1.327   8.384  0.0156 -0.0446  0.3288
 8326W        W10526   1.770   4.386   3.753 -0.1405  0.0958  0.0517
 8327W        W10527  12.619   6.122  24.581 -0.0381 -0.3355 -0.1543
 8328W        W10528  21.433   5.353  16.345  0.0531  0.0106 -0.1528
 8329W        W10529  24.268   1.218   7.537  0.0298 -0.1139 -0.0110
 8330W        W10530  14.053   1.552  31.577 -0.2437  0.0242  0.1542
 8331W        W10531  14.090   2.324  26.524  0.0095 -0.0456  0.1019
 8332W        W10532  19.158   0.247  24.903  0.2049 -0.2977 -0.0861
 8333W        W10533  11.543   2.654   5.561  0.1395 -0.0618 -0.1294
 8334W        W10534   1.999   7.085   1.862  0.1317  0.0562  0.1071
 8335W        W10535   7.459   0.270  10.569  0.0100 -0.0532  0.0347
 8336W        W10536  10.187   2.494  10.275  0.2242 -0.0861 -0.1377
 8337W        W10537   0.896   5.108   9.489  0.2656 -0.1271 -0.0724
 8338W        W10538  23.150   3.526   5.226 -0.0881 -0.1100 -0.3149
 8339W        W10539   1.929   6.625  22.749  0.0042 -0.1611  0.0406
 8340W        W10540   8.555   1.557  25.853  0.2363  0.0718 -0.1088
 8341W        W10541  20.996   7.155   0.732 -0.2254 -0.1157  0.1171
 8342W        W10542  11.677   2.823  14.555 -0.0726 -0.0129 -0.1994
 8343W        W10543   6.136   6.753  12.344 -0.0853  0.0456  0.0484
 8344W        W10544  13.788   1.140  23.160  0.0234 -0.1655 -0.1428
 8345W        W10545  21.763   3.063  20.486 -0.0615  0.1324 -0.0659
 8346W        W10546  24.806   7.627   6.140  0.0686  0.2496  0.0241
 8347W        W10547  11.692   1.774  23.963 -0.2320  0.1787 -0.3855
 8348W        W10548  13.472   0.231  12.535  0.1347  0.0358  0.1137
 8349W        W10549  15.975   5.332   3.598  0.2409  0.2208 -0.3868
 8350W        W10550   8.325   6.359   1.980 -0.4003 -0.0418  0.0086
 8351W        W10551  10.604   3.068   8.387 -0.2464 -0.1987  0.0308
 8352W        W10552   2.726   0.310  13.163 -0.1621 -0.0349 -0.1293
 8353W        W10553   8.640   0.849  25.150  0.1555  0.1102 -0.0637
 8354W        W10554   8.961   5.003  29.689  0.2071  0.0863 -0.0332
 8355W        W10555  16.129   7.269  19.974  0.2844  0.1056  0.2572
 8356W        W10556   5.612   2.967  26.062 -0.2023  0.1244  0.1634
 8357W        W10557   2.588   0.222  10.901 -0.2738  0.2413  0.2488
 8358W        W10558   3.137   4.882  26.640  0.2897  0.1807  0.0239
 8359W        W10559   4.859   6.018   0.030 -0.0277 -0.4892  0.2530
 8360W        W10560  17.055   0.643  10.363 -0.0070 -0.3913  0.0577
 8361W        W10561   1.698   4.150  20.743  0.0802 -0.3347 -0.3854
 8362W        W10562   3.798   3.580   6.822  0.0082  0.0401 -0.0940
 8363W        W10563   7.882   6.629   4.214  0.3655  0.1535  0.1679
 8364W        W10564  23.822   6.720   5.514  0.2092 -0.0787 -0.2283
 8365W        W10565  19.863   1.691   9.325 -0.0702 -0.1174  0.2622
 8366W        W10566  17.943   1.252  16.309 -0.2968 -0.1837 -0.1055
 8367W        W10567  14.030   6.283  28.808  0.1099  0.0645  0.2697
 8368W        W10568   3.437   3.717   8.107 -0.0592  0.1061 -0.1655
 8369W        W10569  22.079   7.765  21.400  0.2407 -0.0501 -0.1318
 8370W        W10570   8.594   5.280  18.832 -0.0868  0.1529 -0.0753
 8371W        W10571  14.229   7.601   8.227  0.3764 -0.0496  0.2210
 8372W        W10572   8.399   4.672   5.673 -0.0484 -0.0949  0.0743
 8373W        W10573   6.396   7.759  13.836 -0.2493  0.0364 -0.1305
 8374W        W10574  16.899   4.664   9.686 -0.1269  0.2006  0.1004
 8375W        W10575  15.300   6.773   1.902  0.0811  0.0748 -0.2234
 8376W        W10576  13.857   1.805  21.041  0.1433  0.2266 -0.1301
 8377W        W10577  18.553   3.339  18.784 -0.2477 -0.0047 -0.1615
 8378W        W10578  23.671   7.149  20.841  0.0796  0.1273 -0.0048
 8379W        W10579  17.947   2.785   0.672  0.0873  0.0850 -0.0562
 8380W        W10580  16.740   4.204  25.901 -0.1353 -0.3064  0.0809
 8381W        W10581   2.562   6.115  19.782 -0.0144  0.0463 -0.2655
 8382W        W10582   1.025   2.772   8.809  0.0118  0.3478  0.2704
 8383W        W10583  20.769   6.554  19.110  0.1985 -0.1207 -0.1647
 8384W        W10584  18.248   5.349  31.144  0.0950 -0.1081  0.0804
 8385W        W10585  16.933   4.787   1.454 -0.2015  0.0912  0.1515
 8386W        W10586  14.712   2.738   9.681 -0.1352 -0.0759 -0.0537
 8387W        W10587  23.923   6.466  27.102  0.3762  0.2752 -0.0645
 8388W        W10588  16.963   0.424  20.154  0.0491  0.0799 -0.1050
 8389W        W10589  15.982   6.243  29.074  0.0024 -0.2405  0.2339
 8390W        W10590  19.309   2.473   1.218 -0.1285  0.0097 -0.2256
 8391W        W10591   9.680   6.244   7.632  0.0154 -0.2664  0.0011
 8392W        W10592   1.059   2.747  31.231 -0.2860 -0.1298  0.0493
 8393W        W10593   9.717   2.777  26.347 -0.1057 -0.1702 -0.1873
 8394W        W10594   1.460   5.939  26.183 -0.1870 -0.3928  0.0530
 8395W        W10595  17.275   2.359   9.676  0.1960 -0.1983  0.0917
 8396W        W10596  13.732   4.068   7.245 -0.0583 -0.4080 -0.1182
 8397W        W10597  11.945   4.846   1.965  0.1452 -0.1469 -0.1590
 8398W        W10598   6.119   3.540  22.419  0.0607 -0.1865 -0.3325
 8399W        W10599   4.296   7.486   5.847 -0.0264 -0.0477  0.1338
 8400W        W10600  14.648   6.094  32.054  0.0184  0.0465  0.3374
 8401W        W10601   1.989   7.734  30.328  0.0354  0.2906  0.1173
 8402W        W10602  13.752   6.226   5.484  0.0978 -0.0515  0.2111
 8403W        W10603   7.014   5.577  16.702 -0.4429  0.0711  0.1285
 8404W        W10604  11.162   0.120  11.754 -0.1195 -0.0730 -0.3012
 8405W        W10605  16.663   7.036  10.751 -0.4258 -0.1584  0.2649
 8406W        W10606  12.838   1.642   2.059  0.0262  0.0709 -0.0142
 8407W        W10607  18.380   2.070  30.525  0.1118 -0.2453 -0.1818
 8408W        W10608  18.775   2.939  28.386 -0.0085  0.1780  0.2497
 8409W        W10609  24.178   1.729  22.680  0.2064 -0.2378  0.1050
 8410W        W10610  24.568   3.050  28.765 -0.1367 -0.1087  0.1938
 8411W        W10611  16.572   6.620  18.807  0.1521 -0.3063 -0.2524
 8412W        W10612  12.736   5.248   9.781  0.2411  0.2649  0.2870
 8413W        W10613  17.307   0.194  19.837 -0.2263  0.1695 -0.1450
 8414W        W10614  21.551   0.210   5.820 -0.2607 -0.0260  0.2690
 8415W        W10615  15.930   6.590  18.179 -0.0687  0.1297  0.0909
 8416W        W10616  17.918   5.297   8.862  0.2333  0.0209 -0.2566
 8417W        W10617   2.473   1.599  24.396 -0.4317  0.1094  0.1364
 8418W        W10618   4.901   1.184  28.022  0.0901  0.0817  0.0958
 8419W        W10619  18.355   4.620   9.341 -0.1820  0.3951  0.1124
 8420W        W10620   7.049   1.362  27.763  0.1373  0.0398 -0.1631
 8421W        W10621   4.438   5.028  13.690  0.2234 -0.3670 -0.1045
 8422W        W10622   8.555   1.449  24.395 -0.0609  0.0117 -0.2178
 8423W        W10623   3.007   3.466  25.108 -0.0859 -0.0255 -0.3805
 8424W        W10624  21.300   5.077  20.109  0.4291  0.0231  0.0069
 8425W        W10625   0.126   1.023  10.387 -0.0134 -0.1469  0.1808
 8426W        W10626  23.192   3.214  23.740  0.0434 -0.1550 -0.2251
 8427W        W10627  13.652   6.180  30.074  0.1592 -0.3287 -0.3549
 8428W        W10628   1.901   2.011  22.344  0.1819  0.1297 -0.1092
 8429W        W10629   6.627   2.505   7.381 -0.0022 -0.0986  0.0939
 8430W        W10630   2.737   7.817  24.625 -0.2701  0.1845  0.0738
 8431W        W10631  23.120   7.028   5.803 -0.3118 -0.0154 -0.0401
 8432W        W10632   1.486   0.951   8.201 -0.1392 -0.0530 -0.2039
 8433W        W10633  10.915   7.701  27.779  0.0288  0.1218  0.3711
 8434W        W10634  22.718   2.966  19.267  0.0497  0.1331 -0.0074
 8435W        W10635   1.811   6.488   8.560 -0.2587  0.1331  0.1656
 8436W        W10636   2.657   1.704   1.626  0.0040 -0.0959 -0.0249
 8437W        W10637  20.609   1.256   7.060  0.1479  0.2488  0.0926
 8438W        W10638   3.936   3.082   0.211 -0.0220  0.0088  0.0900
 8439W        W10639   7.159   3.805  30.304 -0.0558  0.0712 -0.0255
 8440W        W10640   0.548   3.111  24.803  0.3874 -0.2510 -0.1915
 8441W        W10641   3.309   0.976   0.782  0.2220 -0.1031 -0.2955
 8442W        W10642   1.134   5.073  29.474  0.0749  0.3471 -0.2152
 8443W        W10643  11.334   0.596  31.442  0.0761 -0.2197 -0.3089
 8444W        W10644  23.622   2.256  27.914  0.0065  0.0944  0.0788
 8445W        W10645   7.615   6.860  23.909 -0.3164 -0.2573 -0.3048
 8446W        W10646  24.661   5.085  25.763 -0.1430  0.0886 -0.1624
 8447W        W10647  13.269   3.509  22.977  0.0530 -0.1815  0.0350
 8448W        W10648  24.044   2.672   2.376  0.0695 -0.0559 -0.2084
 8449W        W10649   5.251   0.972  10.068 -0.0822  0.1416  0.2222
 8450W        W10650   1.481   0.647  25.436  0.0107 -0.1454 -0.1623
 8451W        W10651   2.659   5.846   4.805  0.1189 -0.2098 -0.1091
 8452W        W10652  19.556   3.133  32.637  0.1415  0.0067 -0.1127
 8453W        W10653  12.929   3.404  32.454  0.1396  0.0152 -0.0812
 8454W        W10654  15.015   3.126  20.383  0.3079  0.1531  0.0748
 8455W        W10655  14.520   0.591   2.800  0.1626 -0.2567  0.1460
 8456W        W10656  16.714   0.427  21.045 -0.2361  0.1545 -0.1100
 8457W        W10657  19.570   2.417  23.394  0.1289  0.0677  0.2781
 8458W        W10658   5.026   2.426  12.958 -0.1025  0.1430 -0.1851
 8459W        W10659   5.037   2.192  10.790  0.3899  0.0501  0.0927
 8460W        W10660  10.875   1.487  23.761  0.0410 -0.0637  0.2965
 8461W        W10661   0.099   2.977   1.606  0.1346 -0.0473 -0.1867
 8462W        W10662  17.687   7.806   2.273  0.1200  0.2541 -0.0651
 8463W        W10663  11.717   1.003   3.354  0.0266 -0.2439  0.0563
 8464W        W10664  19.254   2.340  16.668  0.2955  0.0242 -0.0031
 8465W        W10665   7.056   3.161  23.760  0.2535  0.1135  0.0402
 8466W        W10666   7.589   1.127  10.337 -0.3494  0.1773 -0.1382
 8467W        W10667  10.000   2.537  11.635  0.3276 -0.3084 -0.0016
 8468W        W10668   6.290   5.454  31.964 -0.0839 -0.0786 -0.0706
 8469W        W10669  23.335   5.859  25.271 -0.0949 -0.4196 -0.3250
 8470W        W10670   8.054   5.872   1.894  0.1348 -0.3818 -0.1748
 8471W        W10671   4.342   7.219   7.916 -0.1095  0.3552  0.0410
 8472W        W10672  13.981   1.713   1.191  0.2376  0.0773  0.0602
 8473W        W10673  12.145   0.897  21.765 -0.0127  0.0323 -0.2080
 8474W        W10674   9.442   4.238   1.129  0.1412  0.0150  0.0302
 8475W        W10675  11.652   0.691   8.960  0.3865 -0.1219 -0.4181
 8476W        W10676   0.882   6.415  20.007  0.2758 -0.1823  0.2496
 8477W        W10677   7.633   5.606  11.957  0.0779  0.1102  0.0092
 8478W        W10678  20.674   3.224  26.482 -0.2074 -0.2184  0.3119
 8479W        W10679   1.700   4.622   2.217  0.2082  0.0842 -0.0928
 8480W        W10680  18.332   6.067  10.580  0.0649  0.1448  0.1777
 8481W        W10681   1.544   2.678  10.075  0.0546 -0.0126  0.2043
 8482W        W10682  16.734   4.479  25.113  0.2611 -0.1184 -0.1887
 8483W        W10683  17.970   5.953  19.367  0.0957  0.1762  0.0994
 8484W        W10684   2.839   4.848   6.140  0.0335  0.0602  0.0597
 8485W        W10685  10.035   7.033  32.465 -0.1237  0.1064 -0.2508
 8486W        W10686   9.072   6.124  15.221  0.0017 -0.2886  0.3865
 8487W        W10687  14.328   0.523   5.572  0.1302 -0.2412 -0.1268
 8488W        W10688   0.424   1.489  17.941  0.0319 -0.2383 -0.2391
 8489W        W10689   6.529   7.809   7.759 -0.1131 -0.0118  0.2459
 8490W        W10690  23.730   3.783  27.689  0.0985 -0.0055  0.0020
 8491W        W10691  11.084   6.317  25.462 -0.1841 -0.2123  0.0780
 8492W        W10692  17.796   5.785   4.067 -0.0034  0.0202 -0.0188
 8493W        W10693  14.617   7.636   9.040  0.3055 -0.0174 -0.0297
 8494W        W10694   8.695   2.761  27.146  0.0607  0.2464  0.0419
 8495W        W10695  18.684   3.302   0.677 -0.2789  0.1816  0.1915
 8496W        W10696  19.376   5.456  31.465  0.0450  0.1778  0.0048
 8497W        W10697  19.038   7.743   8.896  0.2709 -0.2584 -0.1034
 8498W        W10698  12.381   0.493  15.712  0.0916  0.0726  0.0384
 8499W        W10699  19.680   5.740  14.411  0.0921  0.0257  0.1020
 8500W        W10700  19.500   7.678  29.601  0.0801  0.0946 -0.0131
 8501W        W10701  18.212   3.391   4.577 -0.0005  0.1791  0.0698
 8502W        W10702   7.708   5.734   8.110  0.2454  0.1338  0.1518
 8503W        W10703  19.682   1.236   6.896  0.2394  0.0168  0.0691
 8504W        W10704  14.700   4.679  29.632  0.0570  0.1565 -0.1824
 8505W        W10705  15.024   4.080   4.486  0.1095 -0.1443  0.1472
 8506W        W10706   9.127   6.362  29.302 -0.0610 -0.0004 -0.3927
 8507W        W10707  23.106   7.529   0.231 -0.0142 -0.0100  0.0308
 8508W        W10708  18.498   7.713  29.456  0.0505 -0.1967 -0.2775
 8509W        W10709   5.824   1.686  26.432 -0.0327  0.1885 -0.2398
 8510W        W10710  11.056   6.342  16.125  0.2736  0.0779 -0.2904
 8511W        W10711  18.588   3.647  23.725 -0.0661 -0.0945 -0.0274
 8512W        W10712  21.826   0.672  25.681 -0.2254 -0.1433 -0.3611
 8513W        W10713  15.798   4.480   5.733 -0.0871 -0.1990  0.3503
 8514W        W10714  20.395   3.201  20.555 -0.3455 -0.1872 -0.0529
 8515W        W10715  20.865   1.371   1.522  0.3111  0.1782 -0.0260
 8516W        W10716  16.362   7.397  30.807 -0.0474  0.1175  0.2710
 8517W        W10717   3.820   4.432   8.343  0.1579  0.2967  0.3181
 8518W        W10718   7.405   6.408   6.995  0.1467 -0.1474 -0.2360
 8519W        W10719   5.722   3.234  24.677 -0.0144  0.0627 -0.1436
 8520W        W10720   1.590   4.101   7.578  0.1238  0.1890 -0.1026
 8521W        W10721   8.214   2.620   0.718 -0.1989 -0.2410 -0.0838
 8522W        W10722  13.170   1.758  15.739 -0.0629 -0.0213 -0.1267
 8523W        W10723  19.571   1.191  25.447  0.0553  0.0904 -0.0630
 8524W        W10724  15.772   0.794  24.400  0.0578 -0.0167 -0.1648
 8525W        W10725   0.063   2.250  29.388  0.1445 -0.0947 -0.0237
 8526W        W10726   5.473   4.507  14.191 -0.2162 -0.2468 -0.0352
 8527W        W10727   4.250   0.949   5.815  0.0708  0.1211  0.2240
 8528W        W10728  14.647   7.258   1.236  0.0119  0.1989  0.1542
 8529W        W10729  16.129   2.933   3.236 -0.3471 -0.4580 -0.0792
 8530W        W10730   9.152   2.005  26.198  0.3313 -0.3537 -0.0184
 8531W        W10731  12.597   0.025  23.604 -0.2174  0.1153 -0.1891
 8532W        W10732  11.754   5.629   1.416 -0.0258 -0.0598  0.1424
 8533W        W10733   7.851   1.175  27.017 -0.2140 -0.0376  0.0048
 8534W        W10734  20.067   3.294  24.943  0.3398  0.0392  0.5035
 8535W        W10735   3.578   0.952   4.131 -0.2675 -0.0577  0.2065
 8536W        W10736   3.945   1.305  30.332  0.2984  0.2142  0.1929
 8537W        W10737   1.968   5.425  24.136  0.1479  0.0133 -0.2529
 8538W        W10738  12.715   3.603  23.275 -0.3135  0.1237 -0.2976
 8539W        W10739  18.355   4.175  20.472 -0.2454 -0.1926 -0.2521
 8540W        W10740   5.963   3.490  25.121 -0.0432  0.2695  0.0302
 8541W        W10741   1.804   0.180  29.091 -0.0337  0.0976 -0.2110
 8542W        W10742  21.811   3.091   2.731  0.1325  0.0210 -0.1640
 8543W        W10743  15.402   5.634  26.934  0.0928  0.1158 -0.1555
 8544W        W10744  10.087   2.991   2.164 -0.2156 -0.0806 -0.2064
 8545W        W10745   0.133   7.286  27.035  0.0942 -0.2502  0.2808
 8546W        W10746  22.235   2.901  23.843 -0.2395 -0.1988  0.0531
 8547W        W10747  12.982   7.361  29.050 -0.0380  0.1539  0.0901
 8548W        W10748  14.210   6.773  27.700  0.1105  0.1747  0.0643
 8549W        W10749  14.866   0.081   3.067  0.2334 -0.0459  0.1173
 8550W        W10750  18.470   2.975  16.637 -0.2639 -0.2107  0.2293
 8551W        W10751  16.559   2.994  19.626  0.0577 -0.2123  0.2047
 8552W        W10752  22.042   5.987  18.588 -0.0110 -0.2460  0.0842
 8553W        W10753   2.074   6.453  20.585  0.0207  0.0577  0.2207
 8554W        W10754  10.640   4.535   2.398 -0.1797  0.0758 -0.1553
 8555W        W10755   9.711   5.538   1.618 -0.0501  0.2320 -0.1380
 8556W        W10756  16.544   7.737  21.668  0.3408 -0.0712 -0.0834
 8557W        W10757  15.287   5.233   0.187 -0.0529  0.1388 -0.0207
 8558W        W10758  21.704   3.586   6.267 -0.0400  0.0959 -0.0152
 8559W        W10759   1.064   4.376  27.245 -0.0059  0.0759  0.0962
 8560W        W10760  20.029   4.467   5.511 -0.2379  0.0196 -0.2106
 8561W        W10761   4.992   1.796  30.722  0.1184  0.0655  0.0550
 8562W        W10762   0.268   0.398  22.045 -0.0116 -0.3124 -0.0877
 8563W        W10763  15.837   7.642   4.606  0.2603  0.0141  0.0320
 8564W        W10764  22.648   2.889  18.105 -0.0219  0.0129  0.3420
 8565W        W10765  16.058   4.017   0.082 -0.1466  0.5546 -0.0201
 8566W        W10766   7.032   0.917  31.293  0.0444  0.0214 -0.1774
 8567W        W10767  22.344   4.103  17.222  0.2571 -0.1628 -0.0771
 8568W        W10768  16.104   5.075  27.260 -0.0286 -0.0195 -0.1927
 8569W        W10769   7.926   1.707  15.235 -0.1016  0.0862  0.0870
 8570W        W10770  19.706   2.730   2.113  0.2641  0.3229  0.0082
 8571W        W10771  19.561   6.141  17.903  0.0240  0.1045 -0.0021
 8572W        W10772   6.554   5.398   6.576  0.1275  0.0381 -0.0187
 8573W        W10773  16.539   4.711  31.527 -0.0545 -0.2003 -0.1056
 8574W        W10774   0.261   1.641  20.927 -0.1834 -0.0981 -0.1121
 8575W        W10775   4.098   0.024   5.120 -0.1888 -0.1196 -0.1986
 8576W        W10776  10.726   6.806   6.756  0.1397  0.0318 -0.0219
 8577W        W10777   1.538   4.023   4.291 -0.2450 -0.1060 -0.0234
 8578W        W10778   9.722   5.873  26.834  0.0648  0.3495  0.2157
 8579W        W10779   7.542   2.222  10.263 -0.0149 -0.3275 -0.2371
 8580W        W10780  11.398   0.766  12.574  0.2704  0.1069  0.0671
 8581W        W10781  24.003   1.579  17.708 -0.2002  0.0225  0.2297
 8582W        W10782  23.042   2.416  14.334 -0.0151  0.3524  0.1280
 8583W        W10783   4.606   6.427  14.387  0.0887 -0.1875 -0.1985
 8584W        W10784  23.718   2.294  30.232  0.3417  0.0811  0.1884
 8585W        W10785  21.696   5.876  16.443 -0.1300  0.0345 -0.0242
 8586W        W10786  24.930   1.260   1.232  0.1940 -0.0540 -0.1863
 8587W        W10787  14.754   0.689   4.638  0.1826  0.5073  0.1488
 8588W        W10788  13.090   0.961  22.693  0.1196 -0.3211 -0.0905
 8589W        W10789   7.929   1.242  10.756  0.1020 -0.1549  0.0854
 8590W        W10790  20.939   5.334  30.083 -0.0822 -0.0130  0.1742
 8591W        W10791  21.788   1.635   7.388 -0.0896  0.0014 -0.0520
 8592W        W10792   9.042   3.271  11.705 -0.1162  0.0282  0.2345
 8593W        W10793  20.237   2.008   8.934 -0.2684 -0.0168 -0.2551
 8594W        W10794   9.811   6.598  15.694 -0.2632  0.0593 -0.2372
 8595W        W10795   8.616   4.226  15.363 -0.4056  0.3173  0.2138
 8596W        W10796  22.496   5.922  28.398 -0.0753  0.0510  0.3393
 8597W        W10797  20.062   4.160  23.011  0.0021  0.1957  0.2521
 8598W        W10798   5.294   0.521  13.631  0.0902  0.1787 -0.2335
 8599W        W10799   0.200   1.295   4.343  0.2122  0.0638 -0.1276
 8600W        W10800  10.641   2.306  13.896  0.1934  0.0263  0.1250
 8601W        W10801   6.827   3.089   1.167  0.0031  0.1337 -0.1007
 8602W        W10802   7.553   1.181   4.251 -0.2088 -0.0041 -0.0502
 8603W        W10803   7.054   3.981  29.216  0.1042 -0.2220  0.0182
 8604W        W10804   7.414   3.888  27.102  0.1257 -0.0346 -0.2777
 8605W        W10805  13.741   0.407  32.054 -0.3254 -0.1284  0.2065
 8606W        W10806  24.112   1.097  17.918 -0.1406  0.3141 -0.1345
 8607W        W10807  17.078   7.646  21.725  0.0045 -0.1020  0.1594
 8608W        W10808   7.650   2.849  21.888 -0.1568 -0.2424 -0.0228
 8609W        W10809  17.311   3.230  17.986 -0.1595 -0.2046 -0.0562
 8610W        W10810  14.024   1.151  28.054  0.2053  0.4387  0.0310
 8611W        W10811  23.266   2.291   3.100  0.1289 -0.1402  0.1026
 8612W        W10812   6.921   5.016  13.415  0.1116 -0.1661 -0.4035
 8613W        W10813  17.988   4.059  25.467 -0.2046 -0.2925  0.3381
 8614W        W10814   5.927   7.375  23.054 -0.1605  0.1570 -0.1109
 8615W        W10815  18.662   4.103   4.563  0.2285 -0.1906 -0.1137
 8616W        W10816  13.984   0.081  23.215  0.1884 -0.0713 -0.0480
 8617W        W10817  18.256   5.060  30.211  0.3834  0.1984  0.2022
 8618W        W10818  19.249   4.542  14.977  0.1283 -0.2392 -0.4242
 8619W        W10819  14.304   5.427  29.035 -0.0625  0.5336  0.0101
 8620W        W10820  17.451   0.269  25.214  0.2959  0.0246 -0.0054
 8621W        W10821  23.726   4.644   4.140  0.3198  0.0042 -0.3913
 8622W        W10822   4.529   3.407  27.225  0.2056  0.1194 -0.3791
 8623W        W10823   1.848   0.882   8.793  0.1652  0.1188  0.4262
 8624W        W10824  13.321   4.386   3.094 -0.0315 -0.0571 -0.0636
 8625W        W10825  14.726   3.562   4.676 -0.0064  0.4157 -0.1561
 8626W        W10826   0.040   1.085  23.216 -0.0682 -0.1195  0.0768
 8627W        W10827  17.205   0.458  24.133  0.0628  0.1042 -0.0074
 8628W        W10828  17.700   5.548  26.930 -0.1903 -0.0469 -0.0637
 8629W        W10829   0.407   6.337  27.841  0.1703 -0.0582 -0.1533
 8630W        W10830   0.664   5.858  29.178 -0.3573  0.2665 -0.2842
 8631W        W10831   5.168   5.077  32.352 -0.0312 -0.2346 -0.1637
 8632W        W10832   0.243   5.491   1.075 -0.0858 -0.0455  0.0444
 8633W        W10833  12.345   3.765  12.453  0.0479  0.0471 -0.0226
 8634W        W10834  13.818   7.284  21.741  0.1820 -0.0298  0.2497
 8635W        W10835  24.872   4.143   8.037  0.0480 -0.2155  0.0109
 8636W        W10836  10.564   2.754  28.035 -0.0925  0.2682 -0.0420
 8637W        W10837   9.399   0.997  17.686  0.0035 -0.1777  0.3773
 8638W        W10838  20.724   2.905  20.206  0.3786  0.2559 -0.1408
 8639W        W10839  12.971   7.641  32.045 -0.2428 -0.2207 -0.1162
 8640W        W10840   3.362   6.661   3.620  0.0516 -0.0589  0.2954
 8641W        W10841  10.205   1.706  12.209  0.2386 -0.2047 -0.0438
 8642W        W10842  14.785   6.795   3.814 -0.1676 -0.3280  0.0960
 8643W        W10843   9.535   6.024  23.439  0.1025 -0.2531 -0.1638
 8644W        W10844  21.576   4.147  19.048  0.2518 -0.2881  0.1297
 8645W        W10845  15.935   0.703  24.834 -0.0183 -0.0674 -0.0714
 8646W        W10846   4.115   7.372  23.006  0.0560 -0.0923 -0.1136
 8647W        W10847   4.477   1.408   3.447 -0.0426  0.0338  0.1878
 8648W        W10848  14.716   6.540   4.237 -0.3040  0.0486 -0.3855
 8649W        W10849   0.800   0.818   2.290  0.3131  0.1507 -0.2376
 8650W        W10850  25.035   2.266  21.617  0.1146  0.1504  0.1915
 8651W        W10851  24.618   2.087  21.932  0.2016 -0.1853 -0.0470
 8652W        W10852  11.799   1.858  28.830  0.1190  0.0677 -0.1551
 8653W        W10853   6.918   6.408   2.103  0.2070 -0.1692  0.1104
 8654W        W10854   9.838   7.179   2.498 -0.0038 -0.0523 -0.0007
 8655W        W10855   2.071   6.250  10.314  0.1587 -0.1902  0.1393
 8656W        W10856  20.816   3.669  15.618 -0.1404 -0.1547  0.1882
 8657W        W10857   0.392   3.366   0.257  0.0063 -0.1371 -0.2431
 8658W        W10858  20.909   6.644  26.652 -0.0479  0.1141 -0.0556
 8659W        W10859   2.178   2.154  11.789  0.1483 -0.3061  0.0872
 8660W        W10860   2.656   1.566   0.436  0.2922 -0.1955 -0.2585
 8661W        W10861  13.937   2.504  31.363 -0.0995  0.0542 -0.0287
 8662W        W10862  20.492   7.170  19.422  0.2956 -0.1403  0.2084
 8663W        W10863   2.263   7.648   0.480 -0.1072 -0.1216  0.0856
 8664W        W10864  14.911   5.207  21.778  0.0980  0.1567 -0.1569
 8665W        W10865   6.857   3.677   3.221 -0.1554 -0.0356  0.0118
 8666W        W10866   6.639   7.711   1.440 -0.3788 -0.0274 -0.0325
 8667W        W10867   6.400   6.497  11.915 -0.0586 -0.0142 -0.1198
 8668W        W10868  10.730   1.055  23.542  0.1282  0.1294  0.0278
 8669W        W10869  13.048   4.943  26.245  0.5310 -0.0788 -0.2174
 8670W        W10870   1.553   1.673   4.940  0.0406 -0.1822 -0.1500
 8671W        W10871  20.847   5.332  23.199  0.0219  0.1752 -0.0754
 8672W        W10872   0.169   6.416  17.551 -0.2855  0.1728 -0.1560
 8673W        W10873  14.739   3.142  28.986  0.4864  0.0369 -0.0917
 8674W        W10874  11.899   3.251  10.804  0.2258  0.0971 -0.0551
 8675W        W10875  18.954   5.999   9.071  0.0362 -0.0637 -0.0463
 8676W        W10876  16.774   7.778   8.904  0.2397  0.0560 -0.1415
 8677W        W10877  15.622   2.422  26.207  0.0042 -0.3327 -0.0550
 8678W        W10878  13.145   2.815   4.901  0.2423  0.0853 -0.0011
 8679W        W10879   9.316   4.893  12.440 -0.1326  0.0922  0.3144
 8680W        W10880   8.351   7.073  28.159  0.2704 -0.1986  0.1574
 8681W        W10881  11.613   0.275  14.930 -0.3942 -0.0914 -0.2431
 8682W        W10882  11.641   4.762  15.755 -0.0771 -0.0306 -0.1450
 8683W        W10883  20.673   4.117  29.203  0.0823  0.0818  0.1361
 8684W        W10884   6.082   2.306   9.546 -0.0903 -0.0471  0.0836
 8685W        W10885  22.500   2.654  27.666 -0.3184 -0.0582 -0.0249
 8686W        W10886   1.120   6.436   2.481  0.0436 -0.2415 -0.0458
 8687W        W10887  16.215   6.375   1.626  0.2300 -0.0748  0.0874
 8688W        W10888  10.820   7.109  31.777  0.1319  0.2280 -0.2376
 8689W        W10889   9.484   4.769   5.408 -0.0635  0.2912 -0.1525
 8690W        W10890  24.950   3.475  17.056  0.0574 -0.0374 -0.1108
 8691W        W10891   3.757   1.237   9.005  0.3354  0.0053  0.1612
 8692W        W10892   3.748   7.416  27.551 -0.0789 -0.0108  0.2079
 8693W        W10893  15.187   3.752  25.110 -0.1537 -0.1845  0.2655
 8694W        W10894  12.180   6.404  23.941  0.0336  0.0877  0.0751
 8695W        W10895  17.693   3.154  28.988 -0.0823  0.0882  0.2032
 8696W        W10896   8.845   1.227  26.697 -0.0755  0.3139 -0.1654
 8697W        W10897  10.852   2.780  28.698  0.0791 -0.2423 -0.2750
 8698W        W10898   5.076   5.854   7.786 -0.0812  0.1623  0.0724
 8699W        W10899  21.394   7.476  16.802  0.0470 -0.0662  0.2503
 8700W        W10900  10.743   2.636  17.557 -0.1248 -0.0462  0.1161
 8701W        W10901  12.422   5.423  23.380 -0.0973 -0.1056  0.2155
 8702W        W10902  14.567   3.391  29.484 -0.4568  0.0598 -0.1590
 8703W        W10903   6.264   5.407  13.884  0.0687 -0.1458  0.0347
 8704W        W10904  14.764   3.285  32.299  0.0831 -0.2737  0.0451
 8705W        W10905   4.454   4.348  27.232 -0.0143 -0.2184 -0.1893
 8706W        W10906  18.567   3.886  18.868  0.2561  0.0727 -0.0979
 8707W        W10907  18.738   0.259   5.749  0.0915 -0.0371  0.1950
 8708W        W10908  17.554   5.963  19.940  0.0109  0.1829  0.1784
 8709W        W10909   5.195   2.024   7.983  0.1216  0.2331 -0.0711
 8710W        W10910  17.358   4.378  22.820  0.1137 -0.2072  0.1659
 8711W        W10911  23.130   6.547  27.431  0.0125  0.4112 -0.4418
 8712W        W10912  24.321   2.810  26.172  0.2726 -0.1014 -0.0248
 8713W        W10913   1.211   4.980  29.953  0.0319 -0.1569 -0.1079
 8714W        W10914   9.790   3.932  12.258  0.2589  0.1182  0.0521
 8715W        W10915  14.328   0.773   9.452  0.1873 -0.1731  0.4680
 8716W        W10916   5.659   6.745   9.522 -0.1841  0.1778  0.1508
 8717W        W10917  21.621   3.956  31.159  0.0375 -0.2509  0.2088
 8718W        W10918  17.965   1.565   2.483  0.0274 -0.3361 -0.0477
 8719W        W10919  20.138   1.707  20.820  0.1964  0.0616 -0.0851
 8720W        W10920  22.561   4.352  31.526  0.2439 -0.1310  0.2062
 8721W        W10921   1.112   1.598   4.564 -0.0394 -0.2858  0.0034
 8722W        W10922  12.206   3.670   5.140 -0.2355 -0.0862  0.2396
 8723W        W10923  22.445   3.414  28.987 -0.4893 -0.0119  0.0975
 8724W        W10924  12.775   3.020  14.666 -0.0939  0.2449 -0.1103
 8725W        W10925  21.896   6.742   9.033 -0.3572  0.0559 -0.0483
 8726W        W10926  17.307   5.557  29.442 -0.0313 -0.0899  0.0537
 8727W        W10927   2.043   6.201  23.216  0.3159 -0.0140  0.2193
 8728W        W10928   8.006   6.067   4.608 -0.0919  0.0575  0.2527
 8729W        W10929   1.933   4.237   0.199 -0.2827 -0.0634  0.1180
 8730W        W10930  23.524   2.395   6.153  0.0939  0.0341 -0.3385
 8731W        W10931   0.898   2.315  26.669  0.2975 -0.1631 -0.0066
 8732W        W10932   8.073   4.514  28.330  0.0624 -0.1892 -0.0104
 8733W        W10933  24.512   2.831   3.098 -0.0357  0.2725 -0.1556
 8734W        W10934  11.274   6.898  23.821  0.0196 -0.0069 -0.0688
 8735W        W10935  13.046   6.223  27.032  0.0305 -0.2340  0.0126
 8736W        W10936  24.850   4.675  17.210  0.3149  0.0104  0.2794
 8737W        W10937  20.106   0.190  22.364  0.1673 -0.0225  0.2677
 8738W        W10938  13.583   6.691   1.087  0.0989 -0.1646  0.0343
 8739W        W10939  23.325   5.046  18.692  0.0110  0.0812  0.1595
 8740W        W10940  18.842   7.378  26.117 -0.1102 -0.3431 -0.3226
 8741W        W10941  16.201   0.555  12.385 -0.0261  0.0786  0.0796
 8742W        W10942  12.177   7.433   6.405  0.0298  0.1105 -0.1885
 8743W        W10943   3.860   0.482   9.552 -0.0391 -0.0647 -0.1778
 8744W        W10944  10.147   5.297   5.303 -0.0521 -0.2013  0.0659
 8745W        W10945   0.253   2.580   6.335  0.3348 -0.1102 -0.1086
 8746W        W10946   3.566   7.020  22.073 -0.0065  0.3907 -0.1825
 8747W        W10947  10.518   3.538  31.900  0.0491 -0.1805 -0.0006
 8748W        W10948  18.578   3.378   6.854 -0.0034  0.4088  0.3317
 8749W        W10949   1.368   0.331  20.029  0.3960 -0.0167  0.1557
 8750W        W10950  19.041   4.780  28.094  0.3267  0.1233  0.1734
 8751W        W10951  19.935   6.993   9.007  0.0991 -0.0697 -0.1641
 8752W        W10952   5.246   4.465  31.096  0.0220 -0.0654 -0.0103
 8753W        W10953  17.453   5.990  30.245  0.4711 -0.2183  0.2920
 8754W        W10954  16.905   6.808  20.099 -0.2112  0.1800 -0.0045
 8755W        W10955  21.156   1.878   1.574 -0.1089 -0.0586 -0.0529
 8756W        W10956  15.401   3.564   8.388  0.1802  0.0804 -0.0231
 8757W        W10957  18.345   4.837  17.474 -0.0706  0.2935  0.0172
 8758W        W10958  21.554   2.536  25.014  0.3808 -0.0257  0.1138
 8759W        W10959  20.024   4.267   1.152 -0.1933 -0.2838  0.1856
 8760W        W10960  19.687   4.420  19.225  0.0778  0.0990 -0.0361
 8761W        W10961   9.740   7.580  26.514  0.1680 -0.0079 -0.2358
 8762W        W10962   6.436   2.614  23.970 -0.1735 -0.0233 -0.0111
 8763W        W10963  24.519   2.568   1.478 -0.1418  0.1194  0.1805
 8764W        W10964  24.280   5.759  31.356  0.0199  0.3409  0.1750
 8765W        W10965   1.385   2.780  18.529  0.1308  0.1547  0.3005
 8766W        W10966   5.800   1.607   2.249  0.2145 -0.0692 -0.4325
 8767W        W10967   4.989   3.019  30.872 -0.0053  0.1875 -0.2280
 8768W        W10968  22.904   2.566   9.368  0.1582 -0.1650  0.0965
 8769W        W10969   7.302   4.733  24.797  0.0195 -0.2600 -0.1084
 8770W        W10970  21.348   4.360  30.831  0.0897 -0.0388  0.0163
 8771W        W10971  23.869   5.863   9.647  0.0672  0.2327 -0.0636
 8772W        W10972   1.439   7.305   1.882 -0.0776 -0.0608  0.0881
 8773W        W10973   0.824   6.311   8.296 -0.3957  0.2209 -0.1366
 8774W        W10974   2.566   3.586  30.653  0.1199  0.2958 -0.1573
 8775W        W10975  12.728   3.292  12.088  0.2645 -0.1358  0.0661
 8776W        W10976  22.891   1.463  17.335  0.1381 -0.2822  0.2307
 8777W        W10977  19.986   4.761  25.865 -0.2611 -0.0847 -0.0237
 8778W        W10978   1.855   1.863   6.518  0.1381 -0.1096  0.0267
 8779W        W10979  23.907   0.979  32.237  0.0179 -0.2275 -0.2087
 8780W        W10980   1.533   2.476   2.943  0.0504 -0.3605 -0.0963
 8781W        W10981  10.484   2.489   6.483 -0.0894  0.1666 -0.1442
 8782W        W10982   5.897   1.523  16.516 -0.0122  0.0718 -0.2545
 8783W        W10983   7.587   1.349  11.118  0.0363  0.2171  0.0593
 8784W        W10984   3.025   0.620  31.076  0.0062  0.0650 -0.1745
 8785W        W10985   1.668   1.555  20.075 -0.0787  0.0909 -0.0463
 8786W        W10986  13.177   1.991  27.669 -0.1227  0.0152 -0.1785
 8787W        W10987   5.331   2.203   4.114  0.2412 -0.0242  0.0296
 8788W        W10988   0.156   6.264  19.545  0.1171 -0.0788 -0.0383
 8789W        W10989  23.742   1.475   5.903  0.0890  0.1910 -0.1685
 8790W        W10990   4.133   4.346  12.680  0.0142 -0.2237  0.1567
 8791W        W10991   5.620   3.807   0.451  0.2018 -0.2078  0.1843
 8792W        W10992  10.068   3.557  23.803 -0.0527  0.3845 -0.1150
 8793W        W10993   4.603   0.656   1.159 -0.0562 -0.0200  0.0176
 8794W        W10994   5.564   0.021   7.025 -0.1390  0.0491  0.2302
 8795W        W10995  22.067   7.294   3.691 -0.0463  0.0412 -0.0338
 8796W        W10996  11.041   0.819   0.331 -0.0814 -0.0327  0.0173
 8797W        W10997   0.192   5.800  19.749  0.1736 -0.0828  0.1339
 8798W        W10998   5.807   5.659  32.694 -0.3817  0.0277  0.3732
 8799W        W10999   0.255   3.875  28.152  0.1619  0.0427 -0.0027
 8800W        W11000  17.783   2.134   2.441  0.2883  0.2138 -0.0428
 8801W        W11001   8.275   3.483  15.394  0.1856  0.0618  0.2211
 8802W        W11002   5.366   0.164  25.189  0.0065 -0.0275  0.2241
 8803W        W11003  11.089   7.358  26.578 -0.0840  0.2585 -0.0389
 8804W        W11004   1.342   1.516  21.522 -0.0845 -0.0838 -0.1989
 8805W        W11005   9.043   2.875  15.767  0.0057  0.2284  0.0934
 8806W        W11006   2.399   1.638   4.878 -0.1609  0.0481 -0.0699
 8807W        W11007  16.236   0.963   9.747  0.0498  0.0709 -0.2060
 8808W        W11008   5.273   7.568  13.352  0.1248 -0.2283 -0.2477
 8809W        W11009  17.756   4.284   6.320  0.1354  0.0684  0.5093
 8810W        W11010  10.535   3.473  17.545 -0.1796 -0.1502  0.0964
 8811W        W11011   6.334   0.763  31.554 -0.2242  0.1380  0.1101
 8812W        W11012  19.708   4.758  10.332 -0.0867 -0.1101 -0.1850
 8813W        W11013   0.962   0.597  27.704  0.1155  0.0050 -0.0579
 8814W        W11014  11.021   5.813  31.985  0.0046  0.0960  0.0185
 8815W        W11015   6.034   4.064   0.216  0.5923 -0.1847  0.1923
 8816W        W11016  20.774   5.668   7.844 -0.1944  0.0849 -0.0555
 8817W        W11017  14.013   1.624   3.138  0.0138 -0.1116 -0.0638
 8818W        W11018  13.284   3.709   5.229 -0.1047  0.0153  0.0554
 8819W        W11019   6.673   0.155  28.007  0.1399 -0.1405  0.0217
 8820W        W11020  19.335   1.959   4.850  0.0253  0.3797 -0.2101
 8821W        W11021   8.463   4.499  25.122  0.3100  0.1024 -0.1195
 8822W        W11022   3.763   7.632   9.968  0.2722  0.0547  0.2029
 8823W        W11023   5.276   7.063   5.841 -0.4945  0.3648  0.0453
 8824W        W11024   6.966   6.737   6.902  0.1041  0.1904  0.4136
 8825W        W11025   7.155   1.340   1.182 -0.0254  0.1270 -0.0150
 8826W        W11026   0.402   2.307  27.489 -0.0217 -0.1001 -0.0347
 8827W        W11027   4.331   6.544  12.670 -0.1248  0.1348  0.0371
 8828W        W11028  10.698   1.279  28.295  0.0077  0.1094  0.2596
 8829W        W11029  14.861   4.725   5.504 -0.1277  0.0235  0.1043
 8830W        W11030  17.228   7.069   0.942 -0.0125 -0.1748 -0.3241
 8831W        W11031   7.817   4.178   4.137  0.0586  0.3380  0.1316
 8832W        W11032  17.782   3.868   7.218  0.0214  0.0007 -0.1444
 8833W        W11033  16.775   6.832  31.416 -0.1765 -0.0495 -0.0291
 8834W        W11034   9.571   0.783  30.431 -0.0965 -0.0100  0.2059
 8835W        W11035  20.571   2.814  20.805  0.1648 -0.0435 -0.1257
 8836W        W11036   3.181   1.673   5.412 -0.1463 -0.0949  0.2092
 8837W        W11037   4.034   4.890  29.732  0.1178 -0.0067 -0.3486
 8838W        W11038   1.576   2.696  23.578 -0.0021 -0.5269 -0.1231
 8839W        W11039  23.473   7.381   4.474  0.1628 -0.0710  0.1973
 8840W        W11040   7.480   6.306   6.205 -0.1494  0.3166  0.2596
 8841W        W11041   1.338   5.981   4.465 -0.2971 -0.1509 -0.3347
 8842W        W11042  10.345   0.384   9.693  0.1077 -0.1326  0.4229
 8843W        W11043  12.652   4.325  13.661  0.4723 -0.1858 -0.0486
 8844W        W11044   5.582   4.573   3.736 -0.0773  0.4931 -0.1094
 8845W        W11045  13.743   2.631   9.380 -0.0255  0.3099  0.2269
 8846W        W11046  20.707   4.450  26.407  0.0525  0.0979  0.1200
 8847W        W11047   1.533   4.422   3.194 -0.2568 -0.1203  0.0547
 8848W        W11048   9.645   6.134  16.953 -0.1904  0.1724  0.2801
 8849W        W11049  17.390   6.479  18.200 -0.1767 -0.1145  0.0343
 8850W        W11050   4.647   2.895  26.815  0.2396  0.1647 -0.2498
 8851W        W11051  19.384   1.280   9.267  0.1545  0.0987  0.0595
 8852W        W11052   2.925   2.818   8.815 -0.2126 -0.1847 -0.2710
 8853W        W11053  15.753   1.996  11.961 -0.0326  0.0640 -0.2173
 8854W        W11054   4.338   7.143  15.814  0.2138  0.3580  0.1871
 8855W        W11055  16.797   1.355  11.045 -0.0264  0.0472 -0.0570
 8856W        W11056   0.623   5.498   1.425 -0.2200  0.0653  0.0642
 8857W        W11057  24.630   5.361   4.998 -0.0676  0.4410  0.1290
 8858W        W11058   8.608   4.499  23.466  0.0224  0.2461  0.0270
 8859W        W11059   6.376   0.296  31.316 -0.3276 -0.4363  0.3424
 8860W        W11060   2.512   3.717   8.683  0.2534  0.4017 -0.0708
 8861W        W11061  15.266   2.947   3.397  0.0795  0.2265  0.1584
 8862W        W11062  21.806   6.779  31.327 -0.1262  0.1410  0.0602
 8863W        W11063  22.185   3.894   3.026  0.0436  0.0897  0.0542
 8864W        W11064  15.486   6.281   9.670  0.1024 -0.0437 -0.1529
 8865W        W11065   8.195   6.931  10.445 -0.0409  0.1258 -0.0416
 8866W        W11066   6.011   6.304  25.663 -0.0110  0.1155  0.0569
 8867W        W11067   5.469   6.557  31.876  0.3893  0.1557  0.0531
 8868W        W11068   5.425   0.134   9.423  0.0645  0.0660 -0.0689
 8869W        W11069  11.617   7.254   2.908 -0.0450  0.1266  0.0223
 8870W        W11070  20.015   3.673  17.210 -0.1478 -0.0985 -0.0284
 8871W        W11071  12.978   4.620  11.004  0.1167 -0.2190 -0.0471
 8872W        W11072  18.884   1.463   7.968  0.0803 -0.0035  0.1285
 8873W        W11073   4.362   3.365   9.186 -0.4929 -0.1376  0.1811
 8874W        W11074  21.944   5.927  17.463  0.0119 -0.1484 -0.1716
 8875W        W11075  11.222   2.078  10.591 -0.2369  0.0210 -0.1982
 8876W        W11076   6.347   7.636   8.899 -0.0434  0.0848  0.0817
 8877W        W11077  13.313   1.033  14.848 -0.0510  0.2516 -0.0456
 8878W        W11078  16.733   0.205  31.492 -0.0960  0.5610 -0.2076
 8879W        W11079  10.015   1.840  24.275 -0.0597 -0.2628 -0.0572
 8880W        W11080   4.930   4.966  10.820  0.0731  0.2726  0.0625
 8881W        W11081   8.469   0.454  27.179  0.3478 -0.1457 -0.1547
 8882W        W11082   8.353   3.718   9.818  0.3703 -0.2996 -0.3260
 8883W        W11083  11.943   5.637   2.407  0.1019  0.0455 -0.3055
 8884W        W11084  13.815   5.923   2.165 -0.3085  0.2679 -0.2251
 8885W        W11085   9.819   5.052  11.009 -0.0493 -0.1189 -0.1382
 8886W        W11086  11.399   1.851   7.051 -0.2550 -0.2882 -0.0655
 8887W        W11087  13.302   1.885  12.674  0.0729 -0.1171  0.0388
 8888W        W11088   4.140   4.137  15.395  0.0850 -0.0076  0.0263
 8889W        W11089  22.250   4.572  22.039 -0.4095 -0.1691 -0.1624
 8890W        W11090  22.358   1.652   3.759 -0.0616 -0.0585  0.1127
 8891W        W11091  22.991   2.558   2.657 -0.1473  0.2326 -0.0799
 8892W        W11092  10.152   5.823  14.894  0.0299 -0.0356  0.0581
 8893W        W11093  11.286   1.570  30.622  0.1810 -0.2698 -0.0929
 8894W        W11094   4.967   1.913   0.795  0.0837  0.0410 -0.1624
 8895W        W11095  11.139   0.661   5.801  0.2875  0.0817 -0.0144
 8896W        W11096   6.245   3.649  16.039 -0.0279  0.1647 -0.0550
 8897W        W11097   6.598   2.414  15.682  0.0579 -0.2315  0.1683
 8898W        W11098  17.229   1.843  24.703  0.1378 -0.0683  0.1093
 8899W        W11099  11.775   6.353   7.898  0.2436  0.2039  0.0196
 8900W        W11100  24.998   1.918  30.725  0.2551 -0.3099 -0.0392
 8901W        W11101   7.666   2.976  29.319 -0.0745  0.0543 -0.0917
 8902W        W11102   4.504   1.252  28.872  0.0313  0.0733  0.3141
 8903W        W11103   3.720   2.140   0.823 -0.0570 -0.0420 -0.1714
 8904W        W11104  12.180   6.489  29.516  0.1850 -0.0871  0.0905
 8905W        W11105   7.581   2.637  13.464 -0.1654  0.2047  0.0870
 8906W        W11106  16.115   5.933  10.783  0.1535 -0.0149 -0.2322
 8907W        W11107   3.520   4.048  10.405 -0.1256  0.0044  0.0762
 8908W        W11108  21.599   1.010  19.849  0.0695  0.0067  0.0371
 8909W        W11109  11.145   3.860  10.007  0.0309 -0.1515 -0.0113
 8910W        W11110  19.636   5.306   2.709 -0.0102  0.2804  0.2899
 8911W        W11111  23.593   3.836  31.095 -0.0411 -0.1806  0.0504
 8912W        W11112  24.605   3.425   8.167  0.1679  0.0484 -0.1461
 8913W        W11113  10.380   4.764   9.836  0.2266  0.1259 -0.1929
 8914W        W11114   8.220   4.332   0.352 -0.1606 -0.2307  0.0064
 8915W        W11115  23.661   5.007   0.665 -0.1128  0.0955 -0.2371
 8916W        W11116  24.822   6.484  21.831 -0.1455 -0.1204  0.1458
 8917W        W11117  22.209   0.165  16.444 -0.0069  0.1011  0.1108
 8918W        W11118  14.143   3.709   7.375  0.1889 -0.0870 -0.2473
 8919W        W11119  17.678   4.670  23.234  0.0325 -0.0680  0.0458
 8920W        W11120  10.340   5.863  25.818  0.0665  0.1421 -0.1467
 8921W        W11121  16.063   3.064   5.367  0.0460 -0.2061  0.1058
 8922W        W11122  18.720   5.274  31.406 -0.3183  0.0227 -0.1539
 8923W        W11123  13.559   6.472  29.454  0.2159  0.0174  0.3123
 8924W        W11124  18.673   2.496   2.946 -0.1064 -0.1592 -0.2300
 8925W        W11125  21.727   3.982   7.577  0.1205  0.1896 -0.1015
 8926W        W11126   8.118   3.984  26.077  0.1174 -0.1890 -0.2110
 8927W        W11127   8.080   6.042   7.248 -0.0517 -0.0377  0.0296
 8928W        W11128  23.946   3.291  27.880 -0.0080  0.0890  0.1288
 8929W        W11129  11.171   7.393   7.254  0.1800 -0.0336 -0.0105
 8930W        W11130  13.405   5.885   5.319 -0.0794  0.0115  0.1329
 8931W        W11131  16.483   2.549   4.164  0.2623  0.0749  0.0157
 8932W        W11132   2.550   7.323   1.700 -0.1040  0.1500  0.1390
 8933W        W11133   3.059   5.158  22.819 -0.0950 -0.1124 -0.0575
 8934W        W11134  15.533   6.455   2.893  0.1076  0.0304  0.1570
 8935W        W11135  20.577   7.350   7.924  0.1788  0.2169 -0.0410
 8936W        W11136   6.239   4.957  17.864  0.3810  0.1592  0.3036
 8937W        W11137  15.070   1.391   4.579 -0.0686  0.0002 -0.0265
 8938W        W11138   8.898   6.901   2.668  0.0343 -0.4536  0.3638
 8939W        W11139  14.098   5.410  31.341  0.2358 -0.1044  0.0727
 8940W        W11140   7.589   1.143  13.450 -0.1074 -0.0220  0.2320
 8941W        W11141   8.604   1.283  27.375 -0.1294 -0.0422  0.0116
 8942W        W11142  24.075   5.991  20.610 -0.2531 -0.0684  0.2056
 8943W        W11143  24.853   7.113  17.541 -0.0261  0.3191 -0.0710
 8944W        W11144   5.514   0.709  11.535 -0.4875  0.0087 -0.3543
 8945W        W11145   7.330   6.773   0.652 -0.0941 -0.2869 -0.1717
 8946W        W11146   1.158   5.700  27.700 -0.0142 -0.3441  0.1626
 8947W        W11147  18.201   1.136   2.411  0.2848 -0.0757  0.2035
 8948W        W11148   3.671   3.705  11.497 -0.1482 -0.4161  0.0355
 8949W        W11149  18.388   5.824  24.524 -0.0004  0.2642  0.0536
 8950W        W11150   5.929   1.990  14.450 -0.0842 -0.1101  0.0775
 8951W        W11151  24.642   3.618  26.507  0.1540 -0.1671 -0.2072
 8952W        W11152   4.411   2.289  27.076 -0.1501  0.0846  0.0121
 8953W        W11153   9.742   1.200   5.058  0.2955 -0.0722 -0.3233
 8954W        W11154  14.311   0.231   7.781  0.0005  0.1307 -0.1016
 8955W        W11155   8.460   5.623  15.489 -0.3054  0.1430 -0.0974
 8956W        W11156  14.530   1.600  13.604 -0.1944  0.0667 -0.1104
 8957W        W11157  13.842   2.068  24.265  0.2247 -0.1410  0.0325
 8958W        W11158   8.045   2.500   2.911 -0.0160 -0.2529  0.3008
 8959W        W11159  12.686   3.509  27.139 -0.0202 -0.0053 -0.1894
 8960W        W11160  16.977   2.807  10.521  0.3233  0.1527  0.1481
 8961W        W11161  13.195   6.574  25.275 -0.0339 -0.1676 -0.0131
 8962W        W11162  12.373   2.910  13.017  0.1727  0.1087 -0.3793
 8963W        W11163  15.133   7.597  21.120  0.0712  0.2888  0.1291
 8964W        W11164  14.418   5.519  29.906  0.0569 -0.1640 -0.0460
 8965W        W11165   7.503   4.898  16.098  0.2705  0.0325  0.1070
 8966W        W11166   2.408   3.966   5.670 -0.0002  0.0392  0.1791
 8967W        W11167   6.445   1.331   9.729 -0.0366 -0.0703  0.0836
 8968W        W11168  25.018   3.518  31.683  0.1264 -0.1242 -0.1506
 8969W        W11169  21.711   2.201  18.217 -0.0998 -0.3513  0.1037
 8970W        W11170   8.002   3.693   4.008  0.0972 -0.1628 -0.1036
 8971W        W11171  19.471   0.994   4.736 -0.0637 -0.0204  0.0772
 8972W        W11172   5.022   7.130  26.267  0.1892  0.0349 -0.0720
 8973W        W11173  18.631   0.574   1.193  0.0587 -0.0966  0.1137
 8974W        W11174  16.705   4.868   6.703 -0.2562  0.0874 -0.3730
 8975W        W11175  13.337   6.128  23.536  0.0661 -0.1128  0.0273
 8976W        W11176   3.099   4.607   7.905  0.0808 -0.0958 -0.1398
 8977W        W11177   6.710   3.675  26.565  0.1590  0.1767 -0.0996
 8978W        W11178  21.602   2.770   0.868 -0.3147  0.0236 -0.0961
 8979W        W11179  20.279   2.930   7.853 -0.0307 -0.0164  0.1544
 8980W        W11180   3.965   1.810  12.266  0.3427 -0.0000 -0.5042
 8981W        W11181  19.309   7.070   4.522  0.0893 -0.0759  0.2855
 8982W        W11182  23.170   4.425   4.819  0.0900  0.1030 -0.1724
 8983W        W11183   5.749   2.603  30.680 -0.2057  0.1438  0.2420
 8984W        W11184   1.949   3.181   4.851 -0.2170  0.0971 -0.0795
 8985W        W11185  16.539   2.555   8.468 -0.0411 -0.2182  0.0264
 8986W        W11186  13.161   2.156  26.831 -0.0208 -0.0453 -0.1674
 8987W        W11187   1.185   7.366  30.620 -0.0817 -0.0423  0.1012
 8988W        W11188  19.731   3.641   9.251  0.2100 -0.1641  0.1909
 8989W        W11189   6.427   1.367  17.232  0.0956  0.2263  0.0309
 8990W        W11190  22.467   4.862  15.230  0.1154 -0.2520  0.1713
 8991W        W11191   0.822   4.752  31.162  0.1940  0.2326 -0.0222
 8992W        W11192  11.932   1.914   0.355  0.2146 -0.0129 -0.0212
 8993W        W11193  19.200   0.163   3.961  0.0156 -0.2484 -0.0051
 8994W        W11194  15.334   3.535   3.916  0.2205  0.0700 -0.0427
 8995W        W11195  11.402   0.527   6.332  0.0445  0.0023  0.0095
 8996W        W11196  21.788   0.540   9.320  0.2673  0.0782  0.1595
 8997W        W11197  21.037   1.008   2.293 -0.2218  0.0145 -0.1975
 8998W        W11198  14.534   2.341  12.061  0.0964 -0.1865  0.1355
 8999W        W11199  23.026   0.682  22.310  0.1404 -0.1294  0.1336
 9000W        W11200  23.133   5.269   3.146 -0.0565 -0.2785  0.0830
 9001W        W11201   8.412   3.355  22.871 -0.0025  0.1004  0.1400
 9002W        W11202   7.333   5.118   8.769 -0.3545  0.1340 -0.0324
 9003W        W11203  16.762   2.462   9.306  0.2059  0.0290 -0.2359
 9004W        W11204   3.704   1.351  31.287  0.2727 -0.4162 -0.4241
 9005W        W11205   0.459   3.483  29.600  0.2063  0.2199  0.0910
 9006W        W11206  16.918   7.319   9.792  0.1661  0.0483  0.1714
 9007W        W11207  12.218   2.394   2.483 -0.0094  0.4575  0.2778
 9008W        W11208   7.896   5.640  13.602  0.1742 -0.0361  0.1978
 9009W        W11209   0.424   1.905  16.938 -0.0646  0.0911  0.1280
 9010W        W11210  20.914   3.546   7.349  0.1339 -0.1019  0.0209
 9011W        W11211  18.080   7.527  16.781 -0.0728 -0.0971  0.3164
 9012W        W11212  19.428   0.261  18.907 -0.2456 -0.0146 -0.0900
 9013W        W11213  12.655   4.608  28.021 -0.0084  0.1915 -0.4000
 9014W        W11214  17.465   7.598  17.198 -0.0197 -0.2202  0.1601
 9015W        W11215  18.804   6.820  24.735  0.2484 -0.1143  0.1574
 9016W        W11216   1.489   3.125   4.548 -0.0925 -0.3967  0.0873
 9017W        W11217  12.631   1.585  30.434 -0.1212  0.1420 -0.0679
 9018W        W11218  12.865   0.506   7.534  0.1967 -0.1720  0.3183
 9019W        W11219   7.412   1.986  16.667 -0.2377  0.1734  0.1119
 9020W        W11220  20.338   4.261   6.868 -0.3784 -0.1320  0.0676
 9021W        W11221   0.213   6.746  26.914  0.0779  0.1866  0.0334
 9022W        W11222  16.698   5.607  31.713 -0.0739  0.1963 -0.0302
 9023W        W11223   6.258   3.188  13.139  0.1690 -0.1000  0.2039
 9024W        W11224   7.723   0.492  22.413  0.1313  0.1026  0.3202
 9025W        W11225  19.637   0.234  25.557 -0.1327 -0.2547 -0.0530
 9026W        W11226  19.721   6.376  31.970 -0.1031  0.0738 -0.1438
 9027W        W11227  23.635   3.626  28.167  0.2165  0.0142 -0.3575
 9028W        W11228  11.947   4.017   5.895 -0.1060  0.0053 -0.2221
 9029W        W11229   9.465   3.619  10.947 -0.0099 -0.1580 -0.0562
 9030W        W11230  12.328   7.202   5.916 -0.0344 -0.5338 -0.0991
 9031W        W11231  13.378   2.155   6.079  0.0129  0.0978 -0.1026
 9032W        W11232  17.473   0.491   6.736 -0.0214  0.3143 -0.0686
 9033W        W11233  24.430   4.895  16.760 -0.0151  0.0158  0.2129
 9034W        W11234  19.075   3.538   1.958 -0.1646 -0.1258 -0.1345
 9035W        W11235   4.317   6.471  22.951 -0.0533 -0.0802 -0.2584
 9036W        W11236  13.445   0.392   7.121 -0.1480  0.0383  0.1471
 9037W        W11237  14.582   5.849  12.202 -0.0466 -0.0521  0.2037
 9038W        W11238  24.751   7.809   2.411  0.0137 -0.2512 -0.2958
 9039W        W11239   6.110   5.160   5.306  0.0315 -0.0080  0.0690
 9040W        W11240  14.187   3.969  25.602 -0.0350 -0.0579 -0.1715
 9041W        W11241  20.280   2.743  13.990 -0.1091  0.3506 -0.0292
 9042W        W11242   4.445   0.275  12.336  0.0022  0.1405 -0.0580
 9043W        W11243  23.478   1.817  10.338  0.3532  0.4573 -0.0835
 9044W        W11244   1.187   1.514  20.173 -0.0817  0.0319 -0.2323
 9045W        W11245   3.252   0.678   3.230  0.0507 -0.1112 -0.1474
 9046W        W11246  20.718   3.528  18.518 -0.0900  0.0356 -0.1223
 9047W        W11247  24.530   7.671  18.107 -0.1472 -0.0811  0.2799
 9048W        W11248   7.950   5.911   3.431  0.1810  0.2771 -0.0934
 9049W        W11249   7.391   4.213  24.733  0.3212  0.3045 -0.1701
 9050W        W11250  12.011   2.312  26.311 -0.2234  0.0992 -0.0662
 9051W        W11251   3.283   3.609  31.395  0.0050  0.1572  0.0041
 9052W        W11252   7.726   6.343   1.381 -0.0438  0.1970 -0.0910
 9053W        W11253   2.758   1.700  10.748 -0.0519 -0.2371  0.2506
 9054W        W11254  17.334   0.314  20.981  0.0620 -0.0777  0.1598
 9055W        W11255   8.363   6.434  25.883  0.0076  0.0225 -0.1845
 9056W        W11256  20.774   5.681  24.717  0.0123  0.0609  0.2299
 9057W        W11257  12.387   3.121  26.015  0.1625  0.2216 -0.3953
 9058W        W11258   2.531   4.103   4.397  0.2034  0.1253  0.0763
 9059W        W11259   5.715   1.171   1.799 -0.1656  0.3162  0.1239
 9060W        W11260  10.063   1.478  30.387  0.0659  0.1294 -0.0131
 9061W        W11261  14.440   4.204  10.051  0.1726  0.2086  0.2877
 9062W        W11262   6.928   5.498   2.722  0.1128  0.1940 -0.1345
 9063W        W11263   1.809   6.144   4.806  0.0564  0.1394 -0.1045
 9064W        W11264   0.203   4.778   7.858  0.0929 -0.0279  0.0255
 9065W        W11265  16.669   0.550   6.173 -0.0919 -0.1689 -0.2940
 9066W        W11266   6.570   5.042   6.064  0.2916  0.2347  0.1398
 9067W        W11267  21.674   1.465   5.680  0.0095  0.0412  0.3366
 9068W        W11268  17.368   6.525   5.405 -0.3065  0.3042 -0.3682
 9069W        W11269   8.503   5.933  14.864  0.0786 -0.2582  0.1741
 9070W        W11270  14.390   2.224  26.901  0.1440  0.2424  0.0426
 9071W        W11271  24.355   4.327   7.197 -0.1542  0.0039 -0.1681
 9072W        W11272  22.707   3.216  21.307 -0.1177 -0.0491 -0.0665
 9073W        W11273   6.827   5.359  16.217 -0.1947 -0.2951 -0.1391
 9074W        W11274   2.358   1.869  22.493  0.0810 -0.0094 -0.0431
 9075W        W11275   7.374   1.917  11.696 -0.2484 -0.0888  0.0946
 9076W        W11276  18.049   1.079   1.725 -0.0255  0.2366  0.3399
 9077W        W11277  22.110   5.538   4.854 -0.0904  0.0729  0.0555
 9078W        W11278  14.530   3.709  32.695  0.0506  0.1380 -0.0337
 9079W        W11279  20.609   5.261   5.067 -0.2709 -0.0760 -0.0674
 9080W        W11280   1.014   2.680   6.567  0.0226 -0.1467 -0.1264
 9081W        W11281  21.404   3.105   6.265 -0.0367 -0.0463 -0.0417
 9082W        W11282   3.917   1.050  23.607  0.2891 -0.0408 -0.0416
 9083W        W11283   6.285   7.607  32.299  0.0727 -0.3217  0.0078
 9084W        W11284  17.744   3.239   1.703 -0.2105  0.2761  0.2032
 9085W        W11285   7.352   5.595  27.460 -0.1392 -0.0392 -0.2344
 9086W        W11286  17.215   3.814  10.177  0.0370  0.1014 -0.0503
 9087W        W11287   7.191   2.359   3.366  0.0646  0.0844 -0.2504
 9088W        W11288   3.038   6.431   1.292  0.0987 -0.1470 -0.1726
 9089W        W11289   1.394   3.133   9.944  0.1006  0.1057 -0.0059
 9090W        W11290  20.670   5.392  26.916 -0.0117  0.1760 -0.0332
 9091W        W11291   6.343   5.153  29.643  0.0498  0.3023  0.0004
 9092W        W11292   5.556   5.235  31.082  0.1054  0.0978  0.1168
 9093W        W11293   9.828   1.175  32.504  0.0182 -0.3080  0.0566
 9094W        W11294  18.365   4.921  10.650 -0.2077  0.0553 -0.0602
 9095W        W11295   8.787   5.845  26.660 -0.1639  0.2156  0.0113
 9096W        W11296   5.975   0.672  25.616 -0.2222 -0.2591  0.1047
 9097W        W11297  13.799   7.688   1.488 -0.5322 -0.1823 -0.1917
 9098W        W11298  17.994   7.722  31.491 -0.0534 -0.2628  0.1164
 9099W        W11299  10.371   3.164   3.545  0.1971  0.3143  0.0092
 9100W        W11300  18.251   1.798  24.347 -0.0941  0.2941 -0.3518
 9101W        W11301   4.833   5.842   8.320 -0.2456  0.1971  0.1854
 9102W        W11302  20.096   3.459  10.789  0.1654  0.1179 -0.0030
 9103W        W11303  12.047   2.997  29.436  0.4626  0.1205 -0.1039
 9104W        W11304  18.406   2.511  28.319 -0.3940 -0.0744 -0.3271
 9105W        W11305   0.507   5.302   0.611 -0.1673 -0.0477  0.0663
 9106W        W11306  12.058   7.433  30.979  0.1181  0.0369 -0.1966
 9107W        W11307   2.832   6.495  26.101 -0.1317 -0.0727  0.2576
 9108W        W11308   3.798   0.791   6.927 -0.1522  0.0701  0.0757
 9109W        W11309  22.478   5.281  15.572  0.2824 -0.0390  0.3079
 9110W        W11310  21.671   6.320  27.556 -0.2098  0.0861  0.3193
 9111W        W11311   0.546   2.031   6.216  0.0681 -0.0012  0.1590
 9112W        W11312   6.347   6.176  27.824 -0.0016 -0.3219 -0.0692
 9113W        W11313   6.889   0.028   9.832 -0.1674 -0.1305  0.0574
 9114W        W11314  19.196   0.447  16.819  0.1532 -0.0048  0.1373
 9115W        W11315   4.734   5.175  25.468 -0.1255  0.0028  0.3630
 9116W        W11316  24.073   3.718   4.297  0.0883  0.0176 -0.3088
 9117W        W11317   9.883   5.791  22.994  0.0023  0.1198 -0.1509
 9118W        W11318   0.417   6.396  17.954 -0.2823 -0.1377 -0.1653
 9119W        W11319  18.083   4.317   9.004  0.4080  0.0255  0.3836
 9120W        W11320   3.987   7.302   8.304  0.0133  0.1294 -0.2222
 9121W        W11321  17.033   4.999  10.009 -0.1815  0.0102 -0.0384
 9122W        W11322   1.040   6.259   4.091  0.2613  0.0137  0.2687
 9123W        W11323   5.486   0.207  10.029 -0.1481  0.0821 -0.3706
 9124W        W11324  18.584   0.464  15.399  0.1647  0.0264 -0.0810
 9125W        W11325  20.323   2.382  22.236 -0.3655  0.3802 -0.1101
 9126W        W11326   1.954   3.490  24.457 -0.1779 -0.0816 -0.1076
 9127W        W11327  15.820   2.666   9.651  0.1155 -0.1435 -0.1707
 9128W        W11328   8.707   5.800  14.416  0.1164 -0.0613  0.0768
 9129W        W11329   2.664   3.613  10.014  0.1008  0.0569  0.1770
 9130W        W11330   8.147   6.246  16.999  0.0111  0.4479  0.0083
 9131W        W11331   6.052   5.517   4.939  0.2487 -0.0289  0.3266
 9132W        W11332   7.818   3.630   6.299 -0.0925 -0.1043  0.0536
 9133W        W11333  17.385   6.415  26.001  0.0396 -0.3113 -0.1353
 9134W        W11334  24.875   0.038  30.792  0.1683  0.2810 -0.0994
 9135W        W11335  12.091   5.052   7.590 -0.0922 -0.2079  0.1404
 9136W        W11336  17.591   2.605   7.528 -0.0704  0.2317 -0.0298
 9137W        W11337  11.719   7.679  26.709 -0.0204 -0.3485  0.0692
 9138W        W11338   5.340   6.770  28.771 -0.2722 -0.3112 -0.0416
 9139W        W11339  19.213   5.659  24.450  0.1569  0.0580  0.0660
 9140W        W11340   2.676   0.979  21.586 -0.2137  0.2164  0.0667
 9141W        W11341   8.433   7.795  30.999 -0.1357 -0.0740 -0.3160
 9142W        W11342  21.199   7.553  27.400 -0.1705  0.0340 -0.1420
 9143W        W11343  23.365   6.111  31.134 -0.1719 -0.0260  0.0089
 9144W        W11344  16.509   6.965  11.589  0.2961  0.1513  0.1676
 9145W        W11345   2.594   7.596  10.689  0.2151 -0.0779  0.2602
 9146W        W11346  20.899   7.820   3.410 -0.0982  0.0980  0.0624
 9147W        W11347  23.093   7.173  31.081  0.0239  0.1696 -0.1845
 9148W        W11348   2.452   5.277   4.921 -0.1928 -0.1809  0.1042
 9149W        W11349  10.310   1.683  32.495 -0.2372 -0.0701 -0.0200
 9150W        W11350   9.233   7.751   6.274 -0.0179  0.0918 -0.1335
 9151W        W11351  17.134   5.489  18.747 -0.0852 -0.2549 -0.1180
 9152W        W11352  11.130   6.011   8.506 -0.0046  0.1238 -0.1322
 9153W        W11353  23.843   2.598  28.370 -0.1524 -0.1421  0.0977
 9154W        W11354  16.837   5.143  29.447 -0.2470 -0.0884 -0.2617
 9155W        W11355   4.091   4.684   4.880  0.1694 -0.1554  0.1140
 9156W        W11356   8.476   0.403   8.403  0.0766 -0.2766  0.2018
 9157W        W11357   5.627   2.407   9.786  0.0059 -0.0924  0.0887
 9158W        W11358  20.339   3.021  26.128 -0.0226  0.0669 -0.3471
 9159W        W11359  12.645   6.157  31.180  0.0326  0.0276 -0.1806
 9160W        W11360   5.601   7.037   4.330  0.0300  0.1220 -0.0051
 9161W        W11361   0.500   0.766   5.419  0.2171 -0.3921 -0.0272
 9162W        W11362   5.917   5.356  11.932 -0.1122  0.0635 -0.0330
 9163W        W11363  20.952   7.268   8.658 -0.1156  0.0845 -0.0396
 9164W        W11364  19.960   1.960  18.236 -0.0019 -0.1160 -0.1172
 9165W        W11365   7.875   6.317  30.503  0.0595 -0.0325 -0.1074
 9166W        W11366   7.337   0.772  31.676 -0.0458  0.0039 -0.1700
 9167W        W11367  18.486   3.972   5.035  0.0124  0.0684  0.2560
 9168W        W11368   1.879   7.610  23.140 -0.0279  0.0840  0.2444
 9169W        W11369  21.676   4.592  19.375  0.1078  0.2156 -0.3540
 9170W        W11370   1.259   4.960  19.648  0.0043 -0.1182 -0.1008
 9171W        W11371  22.462   4.246  28.312 -0.0431  0.1446 -0.1525
 9172W        W11372  22.560   0.978  10.198  0.1981  0.0416 -0.2016
 9173W        W11373   0.025   4.383  17.605  0.0807  0.0876 -0.0327
 9174W        W11374  13.784   4.650  21.562 -0.2160 -0.1247 -0.1556
 9175W        W11375   8.002   2.454   5.269 -0.0050  0.0170  0.3571
 9176W        W11376  13.286   0.836  31.408 -0.1124  0.1060  0.1050
 9177W        W11377   8.391   0.236   1.447  0.1577  0.2348  0.1821
 9178W        W11378  21.676   4.271  14.952  0.0308 -0.2570 -0.1621
 9179W        W11379  13.445   1.398   1.235  0.0217  0.0520  0.1141
 9180W        W11380  20.211   4.179  24.540  0.0937 -0.0027 -0.1414
 9181W        W11381  14.332   5.575  23.332  0.0616  0.3060  0.0374
 9182W        W11382  22.337   4.732   1.236 -0.0182  0.0881  0.0685
 9183W        W11383  10.014   5.135  28.656 -0.0968  0.1022  0.1754
 9184W        W11384  15.933   3.683  20.340  0.1361 -0.3477  0.2695
 9185W        W11385  18.664   5.186  27.148  0.0426  0.2066  0.1014
 9186W        W11386  18.344   4.406  32.091  0.4451  0.1409  0.1619
 9187W        W11387   5.338   3.588  30.389 -0.1772  0.1030  0.2575
 9188W        W11388  17.265   4.900   8.744  0.2584  0.1085 -0.1170
 9189W        W11389   9.796   4.630  14.280 -0.1199  0.2262  0.2108
 9190W        W11390  19.688   2.249  26.826  0.2241 -0.0179 -0.2466
 9191W        W11391   8.664   3.856  25.241  0.2409 -0.1083 -0.0529
 9192W        W11392  19.515   4.551   6.248  0.0379 -0.0737 -0.1203
 9193W        W11393   2.800   3.192  30.280  0.1222 -0.2657 -0.1093
 9194W        W11394  13.287   6.147  13.537  0.1125  0.0711 -0.2351
 9195W        W11395   6.717   4.623  23.056 -0.1300  0.1339  0.1183
 9196W        W11396   8.188   7.818  10.705 -0.1547  0.2389 -0.0206
 9197W        W11397  12.450   6.219  13.336 -0.0656  0.1276 -0.0648
 9198W        W11398  15.484   7.490   5.008  0.0332 -0.1248  0.1564
 9199W        W11399   2.708   6.547   1.600 -0.2379 -0.3098  0.0869
 9200W        W11400  24.693   0.810  10.084  0.1037  0.0099  0.2419
 9201W        W11401  11.524   4.051  12.559 -0.1323  0.0512  0.0073
 9202W        W11402  24.786   6.314  16.062 -0.1847 -0.1829 -0.2334
 9203W        W11403   8.753   2.111  15.085 -0.0385 -0.1264  0.0180
 9204W        W11404   8.450   1.628  23.175 -0.3388 -0.0392 -0.0716
 9205W        W11405   9.411   7.301  26.782  0.0622  0.2645  0.2428
 9206W        W11406   8.775   2.894   8.400 -0.1144  0.0434  0.2166
 9207W        W11407  15.059   3.490  25.545  0.2524 -0.0197 -0.1175
 9208W        W11408   7.545   3.806  24.387 -0.2785 -0.0928  0.2979
 9209W        W11409  17.255   5.968  28.210 -0.0545  0.2557 -0.0116
 9210W        W11410  19.770   6.126  26.893 -0.4377  0.0155 -0.3301
 9211W        W11411  20.948   0.217  16.607 -0.0934 -0.1336  0.2950
 9212W        W11412   3.800   5.113   7.026  0.0549 -0.0720  0.0378
 9213W        W11413   0.277   4.944  17.720 -0.0742  0.3416  0.0824
 9214W        W11414   9.565   6.833  26.943 -0.0290  0.2880 -0.0344
 9215W        W11415   5.738   2.068  29.656  0.3416 -0.3382 -0.0137
 9216W        W11416  12.802   0.624  10.606  0.0993  0.0651  0.0206
 9217W        W11417   1.754   1.122  28.928 -0.0908 -0.1311 -0.0418
 9218W        W11418  22.735   5.263  17.352 -0.2332 -0.2338  0.1407
 9219W        W11419   2.015   6.560   6.074  0.1916  0.0912  0.2018
 9220W        W11420  19.121   3.609  24.741 -0.1730 -0.0791  0.2211
 9221W        W11421  11.415   2.449   6.004  0.0302  0.1372  0.0854
 9222W        W11422   9.094   1.738   9.069 -0.0552 -0.0815 -0.0927
 9223W        W11423   8.187   5.937  29.144  0.2272  0.0849  0.1575
 9224W        W11424   9.016   3.944  25.609  0.0269  0.2459  0.1792
 9225W        W11425  24.508   5.257  10.301  0.0332 -0.0202 -0.1314
 9226W        W11426  23.715   7.076  23.009  0.1118 -0.2192  0.0827
 9227W        W11427  19.904   0.609  22.489  0.1560 -0.1353 -0.3863
 9228W        W11428  21.050   0.100   6.009  0.0565  0.0398  0.1010
 9229W        W11429  13.439   5.109  26.931 -0.4283  0.1112 -0.0220
 9230W        W11430  13.280   2.617   7.572 -0.0909 -0.2118 -0.1015
 9231W        W11431  23.435   3.351  31.124 -0.2864 -0.1275 -0.3149
 9232W        W11432   8.984   0.424  28.749  0.1363  0.0195  0.2497
 9233W        W11433   3.994   4.868  12.691  0.1370 -0.0612 -0.0606
 9234W        W11434   3.598   0.124   6.531  0.0177  0.1380  0.1164
 9235W        W11435   5.445   2.161  32.611  0.0235  0.1632 -0.0351
 9236W        W11436  10.423   0.630  24.989  0.0492  0.3699 -0.3747
 9237W        W11437  15.256   5.135   2.091 -0.1208  0.1557 -0.1356
 9238W        W11438  19.491   0.013  27.897  0.3782 -0.0270  0.1365
 9239W        W11439  15.874   6.208  24.672 -0.0884  0.0283  0.3545
 9240W        W11440  23.892   3.728  22.288 -0.0219  0.3425 -0.1525
 9241W        W11441  11.432   3.118  14.162  0.1313 -0.2233 -0.0125
 9242W        W11442  15.548   7.124  32.368 -0.0930  0.5950  0.0008
 9243W        W11443  24.127   5.586  27.063 -0.0863 -0.0125  0.0095
 9244W        W11444  17.050   0.016   9.646 -0.0762 -0.0488  0.1872
 9245W        W11445   8.408   0.527  29.346  0.1148  0.0076  0.0178
 9246W        W11446  24.016   1.608   4.463 -0.2014  0.1767 -0.0795
 9247W        W11447   8.351   3.157  16.379  0.3290 -0.4357  0.0181
 9248W        W11448   2.763   7.636   5.793 -0.1005 -0.2000  0.0013
 9249W        W11449  18.477   0.032  30.390  0.0070 -0.1061  0.2584
 9250W        W11450  23.294   4.292  22.355 -0.2864 -0.0320 -0.1970
 9251W        W11451   5.244   0.083   5.502 -0.4138  0.2183 -0.2970
 9252W        W11452   1.145   0.497  19.604 -0.0575 -0.0113 -0.2665
 9253W        W11453  19.447   1.084  30.568  0.0035 -0.0673 -0.2318
 9254W        W11454  22.295   0.065   8.632  0.1115  0.2859 -0.2146
 9255W        W11455  24.010   1.169   4.713 -0.1080  0.1853 -0.0208
 9256W        W11456  16.322   1.561  29.626 -0.0373 -0.0137  0.0413
 9257W        W11457   0.961   7.787   8.168 -0.0331  0.0179 -0.1667
 9258W        W11458  24.253   1.092   5.178 -0.1570  0.1100  0.3368
 9259W        W11459  22.153   0.573  18.182  0.2739 -0.0481 -0.0532
 9260W        W11460   7.585   5.151  15.350 -0.1248 -0.2143  0.0781
 9261W        W11461  16.452   5.116  30.332 -0.2179  0.2023 -0.1465
 9262W        W11462  22.337   1.821   8.139  0.2193  0.0378  0.1326
 9263W        W11463  21.881   5.590  15.255  0.1405 -0.1549 -0.1324
 9264W        W11464   9.410   3.998  26.373 -0.0967 -0.1117 -0.3771
 9265W        W11465  14.996   5.850  21.922 -0.2145 -0.0127  0.0511
 9266W        W11466  23.559   0.727  28.873 -0.2496  0.4303  0.1097
 9267W        W11467  18.642   5.520  23.176  0.3260 -0.0311  0.0768
 9268W        W11468  24.972   0.271  20.163 -0.1079 -0.0595  0.1901
 9269W        W11469   6.829   3.987  32.446  0.0748  0.2796  0.0167
 9270W        W11470  21.050   5.531  32.170 -0.2669  0.1062  0.1101
 9271W        W11471   7.491   7.290  27.213  0.4674 -0.1845 -0.2163
 9272W        W11472  24.343   0.509   6.959  0.0193 -0.0557  0.0800
 9273W        W11473   8.441   1.590   5.389 -0.3078  0.0326  0.0194
 9274W        W11474  10.232   6.535  31.521 -0.1325  0.3148 -0.0228
 9275W        W11475   4.291   1.733   8.450 -0.1595 -0.1871 -0.1264
 9276W        W11476  12.505   4.026  25.154  0.0549  0.2792 -0.1426
 9277W        W11477  24.440   3.559   7.415 -0.3096 -0.2324 -0.0938
 9278W        W11478  17.881   5.282  22.548  0.0471 -0.1056 -0.0246
 9279W        W11479  18.967   2.720  27.416 -0.3988  0.3259 -0.0899
 9280W        W11480   6.743   6.626   4.966 -0.2501 -0.1304 -0.2257
 9281W        W11481  22.854   0.800  30.718 -0.4272 -0.0042  0.2800
 9282W        W11482  17.015   1.647   8.882  0.4180  0.1200  0.2018
 9283W        W11483  13.107   2.566  25.969  0.2036 -0.2228 -0.0704
 9284W        W11484  11.022   3.053   1.064  0.0681 -0.1121  0.0613
 9285W        W11485  21.828   5.455  16.665  0.0603  0.0026  0.0107
 9286W        W11486  21.343   6.826  19.480  0.1471 -0.0073 -0.1514
 9287W        W11487   4.479   1.492  24.129 -0.1266  0.0306  0.0678
 9288W        W11488   1.525   6.037  27.812 -0.1034  0.0543  0.4739
 9289W        W11489  23.609   5.993   8.262 -0.0137  0.2097  0.0361
 9290W        W11490   9.240   7.280   7.481  0.2898 -0.1536  0.0103
 9291W        W11491   6.513   3.844  28.296 -0.1641 -0.0771 -0.3194
 9292W        W11492  15.385   4.401  26.075 -0.2737 -0.0774  0.1163
 9293W        W11493  13.545   0.624  26.939  0.1024  0.1888  0.1939
 9294W        W11494  23.935   6.410   0.111  0.3020  0.0808  0.1299
 9295W        W11495   4.601   0.624   8.035 -0.4432  0.1076 -0.0724
 9296W        W11496  24.600   7.226   4.972 -0.1233 -0.0812  0.5444
 9297W        W11497  11.897   6.263  25.745 -0.1085 -0.1972  0.0503
 9298W        W11498  15.208   3.569   9.599  0.2328  0.1243 -0.0553
 9299W        W11499  15.250   4.470   8.550  0.1895  0.1599 -0.0304
 9300W        W11500  20.979   5.996  18.416  0.2120  0.0732  0.1719
 9301W        W11501   6.503   5.340   1.825  0.1799 -0.0133  0.0573
 9302W        W11502   0.845   3.615  19.314  0.1313 -0.0970 -0.1084
 9303W        W11503   9.445   7.686  16.764 -0.0402 -0.0276 -0.1910
 9304W        W11504  24.737   1.301   1.722  0.1998  0.2514  0.0976
 9305W        W11505   9.665   3.749   0.239 -0.1028  0.0995 -0.0882
 9306W        W11506  16.549   6.257  21.043  0.3016  0.0890  0.1393
 9307W        W11507   9.531   3.102  12.829  0.1712 -0.2395 -0.1824
 9308W        W11508   5.560   5.507  29.937  0.1725 -0.0059 -0.1268
 9309W        W11509   6.300   6.180  31.801 -0.0462 -0.1943  0.2551
 9310W        W11510  24.666   6.800   4.428 -0.2265 -0.0388 -0.2710
 9311W        W11511  15.375   5.409   4.857 -0.1321 -0.1664  0.4479
 9312W        W11512  19.805   0.690  18.848 -0.2967 -0.0044  0.1090
 9313W        W11513  10.538   2.895  27.544 -0.0792  0.1214 -0.0241
 9314W        W11514   7.598   4.407   3.749  0.2838  0.0067  0.1943
 9315W        W11515   9.740   0.067  31.246  0.1757 -0.0149 -0.2203
 9316W        W11516  11.606   1.468   5.796  0.0332  0.2739  0.1415
 9317W        W11517  20.570   6.762   0.851  0.0552 -0.1362 -0.3225
 9318W        W11518  18.546   6.772  17.241 -0.2012  0.2399  0.1846
 9319W        W11519   4.314   7.075   9.691 -0.2063  0.0236 -0.1747
 9320W        W11520  16.849   4.972  11.470 -0.0454 -0.1018 -0.1924
 9321W        W11521  17.873   1.842  25.259 -0.2071  0.0241  0.0631
 9322W        W11522   4.444   6.553  26.533 -0.1131  0.1317 -0.0353
 9323W        W11523   5.075   4.587  13.315  0.0924  0.0320  0.1722
 9324W        W11524  21.907   7.599  16.149  0.2797 -0.0946 -0.1022
 9325W        W11525  20.636   4.826  24.409  0.0779 -0.1284 -0.2735
 9326W        W11526  23.648   0.003  16.599  0.0429 -0.0775 -0.3425
 9327W        W11527  14.458   3.902   1.121 -0.0842 -0.0239 -0.0475
 9328W        W11528  20.354   1.483   1.691  0.0393  0.0429  0.0966
 9329W        W11529   7.666   2.442  14.557  0.1280  0.0893  0.0993
 9330W        W11530  11.895   0.847   2.410 -0.3395 -0.0602  0.2262
 9331W        W11531   4.315   5.876  31.059  0.2894  0.1290 -0.3768
 9332W        W11532   0.511   2.106  23.297  0.2024 -0.0801 -0.0848
 9333W        W11533   0.251   5.106  24.357 -0.1112  0.3022 -0.0816
 9334W        W11534  10.113   0.780   5.845  0.3545 -0.0685  0.0056
 9335W        W11535   9.869   3.609  25.566 -0.0398  0.1952 -0.3261
 9336W        W11536  16.947   0.738   5.183  0.2031  0.0013  0.0793
 9337W        W11537  22.157   7.089  24.078 -0.1596 -0.3865  0.1355
 9338W        W11538   0.706   4.474   2.682  0.1471  0.2932 -0.2400
 9339W        W11539   0.364   7.146  27.828 -0.1628 -0.0822 -0.0878
 9340W        W11540   3.319   1.882   4.208  0.1429  0.3046 -0.0843
 9341W        W11541  13.388   5.331  12.950  0.0795  0.0999  0.1802
 9342W        W11542  21.837   4.983  31.416  0.0294  0.0887  0.0232
 9343W        W11543  15.552   4.398  20.830  0.1860 -0.1338 -0.0131
 9344W        W11544   9.104   4.349  23.432 -0.2684 -0.0642 -0.0767
 9345W        W11545   8.753   6.441   9.344 -0.2857  0.3048  0.1524
 9346W        W11546   5.473   6.421  23.679  0.0998  0.3415 -0.4609
 9347W        W11547   9.202   7.706  15.282  0.0237 -0.0777  0.1620
 9348W        W11548  15.251   2.097   6.456 -0.0172 -0.0920  0.2340
 9349W        W11549  21.596   3.798  32.558 -0.0983  0.2095  0.2609
 9350W        W11550  17.512   0.447  26.763 -0.0674 -0.1121 -0.0590
 9351W        W11551   4.523   6.741  31.609 -0.1108  0.2939  0.0051
 9352W        W11552  13.128   4.182  10.787  0.1778  0.1200 -0.0839
 9353W        W11553  12.519   2.962   8.991 -0.3209 -0.0654  0.0209
 9354W        W11554   1.273   3.097  26.782  0.1810  0.0851 -0.0150
 9355W        W11555   4.269   3.987   6.030 -0.0452  0.0048 -0.0164
 9356W        W11556  13.110   2.252  10.782  0.1375  0.1691 -0.2020
 9357W        W11557  14.733   5.414  28.677  0.2298  0.0473  0.2034
 9358W        W11558  13.088   6.158  11.808 -0.2710  0.2005 -0.2084
 9359W        W11559  14.024   7.152   3.208  0.1076 -0.2418 -0.0330
 9360W        W11560  15.957   2.681  21.802  0.0697  0.1655  0.0661
 9361W        W11561   5.307   3.544   4.558  0.0510 -0.2393  0.1730
 9362W        W11562  10.568   4.484  24.845  0.1722 -0.0257  0.1518
 9363W        W11563  10.924   2.481   9.486  0.0592  0.0240  0.1174
 9364W        W11564  21.963   0.170  30.672  0.1424 -0.4526 -0.2401
 9365W        W11565   6.450   5.524  11.565 -0.1455  0.1122  0.0363
 9366W        W11566  11.485   1.618   8.065 -0.0496  0.0415  0.0742
 9367W        W11567   9.630   5.612  15.875 -0.3842 -0.1904  0.4301
 9368W        W11568  22.901   4.201   2.327  0.1308  0.0447  0.0812
 9369W        W11569   4.535   5.927   7.666 -0.1331 -0.0280 -0.1651
 9370W        W11570  20.681   5.849  25.202 -0.0581  0.3720 -0.1795
 9371W        W11571  16.037   4.949  23.328 -0.1895 -0.1871  0.1062
 9372W        W11572   5.257   5.058  30.686 -0.1060  0.0140  0.0936
 9373W        W11573  11.158   6.471  30.877 -0.0736 -0.1198  0.2187
 9374W        W11574   5.162   2.159  22.037 -0.0921  0.2030 -0.0415
 9375W        W11575  11.914   3.234  14.314  0.1045 -0.2232 -0.1817
 9376W        W11576  11.749   0.206  32.443 -0.0956  0.1450  0.2234
 9377W        W11577   5.976   6.898   4.014 -0.0051 -0.2944  0.0091
 9378W        W11578   2.746   1.576  27.376 -0.3796 -0.0074 -0.0711
 9379W        W11579   8.118   1.128  31.888 -0.0569  0.0148 -0.2503
 9380W        W11580  24.866   0.691  10.556  0.2575  0.1498  0.0189
 9381W        W11581  19.513   7.762  18.147 -0.1062 -0.0004 -0.0636
 9382W        W11582   5.688   6.032  25.959 -0.1061  0.1967 -0.2401
 9383W        W11583  16.659   7.624  28.086 -0.2710  0.1832 -0.0840
 9384W        W11584  12.597   2.380   1.129  0.0722 -0.0914  0.1520
 9385W        W11585  15.883   6.676  20.483  0.2651  0.1196  0.0789
 9386W        W11586   8.953   0.127  29.227  0.1858 -0.2227 -0.2906
 9387W        W11587  15.330   1.301   3.005 -0.0409  0.2264 -0.2399
 9388W        W11588  10.502   5.639   3.937 -0.2916  0.2352 -0.0724
 9389W        W11589  15.618   0.313  29.931  0.0708 -0.0072  0.0226
 9390W        W11590  22.497   5.879   9.055  0.1808  0.0081  0.2688
 9391W        W11591   8.734   1.965   6.064 -0.3943  0.0041 -0.1286
 9392W        W11592  24.998   3.840  28.543 -0.1832 -0.1736  0.4574
 9393W        W11593   7.023   6.054   8.056  0.3005 -0.3234  0.0379
 9394W        W11594   4.011   3.349  28.296 -0.0133 -0.1711 -0.2424
 9395W        W11595  17.589   1.018   5.960  0.1826 -0.0024  0.5326
 9396W        W11596   4.951   1.173  24.028  0.1744 -0.0633 -0.0501
 9397W        W11597   7.111   2.708  16.518  0.0983 -0.1171 -0.1026
 9398W        W11598  18.171   6.242   0.428 -0.2452 -0.2751  0.1893
 9399W        W11599  21.802   3.262  17.525  0.1334 -0.0907  0.2569
 9400W        W11600  20.200   0.413  19.006 -0.0466  0.0598 -0.0428
 9401W        W11601   2.010   2.622  23.802 -0.4017  0.1317 -0.3173
 9402W        W11602   6.643   1.506   1.781 -0.1219 -0.1510 -0.0831
 9403W        W11603   5.440   3.390  31.636 -0.0126  0.0208  0.0013
 9404W        W11604   7.203   1.182   2.712 -0.1787 -0.0422 -0.4522
 9405W        W11605   5.037   5.448  28.824 -0.0200  0.1454 -0.0088
 9406W        W11606  16.323   7.192   7.105  0.0494  0.0155  0.3013
 9407W        W11607   0.312   5.051  10.093  0.0974  0.0384 -0.3246
 9408W        W11608  13.469   0.527  11.312  0.0145 -0.1486  0.0773
 9409W        W11609  11.203   5.545  17.265  0.0577  0.1511  0.0921
 9410W        W11610   4.109   6.376   8.391 -0.2699  0.2764  0.0215
 9411W        W11611  11.120   6.915  15.983  0.0213 -0.1431  0.2675
 9412W        W11612  14.942   6.454  27.204 -0.1744 -0.1402 -0.1528
 9413W        W11613  21.435   0.618   8.045 -0.2619  0.3675 -0.0412
 9414W        W11614  17.385   3.001   6.766 -0.1736  0.1072 -0.0626
 9415W        W11615   4.597   7.229  13.105  0.2927  0.2795 -0.1994
 9416W        W11616  21.265   2.050  10.254 -0.1214  0.0395 -0.1767
 9417W        W11617  22.184   2.106   3.001  0.1965 -0.0920 -0.1012
 9418W        W11618   7.712   0.143  14.623  0.2134 -0.0846  0.0073
 9419W        W11619   1.636   6.613   3.450 -0.0493 -0.0725 -0.1730
 9420W        W11620  17.925   3.370   3.247  0.1103 -0.0223  0.1849
 9421W        W11621   8.373   1.087  12.852 -0.2558  0.0018 -0.1854
 9422W        W11622  20.966   7.355   3.644 -0.2272 -0.2219  0.1752
 9423W        W11623  13.289   3.111  11.990 -0.1841 -0.1027  0.0652
 9424W        W11624  24.484   2.497  20.437  0.0558 -0.4289  0.2484
 9425W        W11625  23.214   6.090  23.799 -0.1183 -0.0780 -0.1294
 9426W        W11626  11.456   4.940  25.186 -0.2227 -0.3319 -0.1021
 9427W        W11627   3.895   7.461   7.824  0.2303  0.0258 -0.1372
 9428W        W11628   6.891   2.926  16.109  0.1485 -0.1065  0.1543
 9429W        W11629   0.166   7.485   7.839  0.0858  0.2360 -0.1143
 9430W        W11630   9.023   0.393   2.689 -0.2346 -0.0328 -0.0183
 9431W        W11631   6.836   5.836   6.686  0.0449  0.2686  0.3635
 9432W        W11632  19.564   7.725  26.374 -0.1149 -0.1316  0.1737
 9433W        W11633  18.403   5.886  19.791 -0.1959 -0.1012  0.2007
 9434W        W11634  21.292   5.193  30.424  0.0039 -0.1437 -0.2526
 9435W        W11635   0.187   4.106  29.444  0.0640 -0.0087 -0.0452
 9436W        W11636   7.468   2.493   1.682  0.0221  0.1515  0.2437
 9437W        W11637  12.845   6.138  22.571 -0.0544  0.1305  0.3599
 9438W        W11638  13.118   1.849   0.485  0.2434  0.2069 -0.1683
 9439W        W11639  15.982   6.053  11.786 -0.1502 -0.1774 -0.0760
 9440W        W11640   9.403   7.168   4.966  0.1350  0.1335  0.2466
 9441W        W11641  17.566   4.849   5.082 -0.1413 -0.0292  0.0343
 9442W        W11642   9.651   2.569  15.182 -0.2822 -0.0022 -0.0828
 9443W        W11643   5.637   7.682   8.434 -0.0318 -0.3783  0.2300
 9444W        W11644   0.838   3.153  19.035  0.2305 -0.1391 -0.0881
 9445W        W11645   8.352   6.734   4.314 -0.1881 -0.1523 -0.2140
 9446W        W11646   1.563   2.426  19.805 -0.0303 -0.0713 -0.0558
 9447W        W11647  22.867   1.768  32.351  0.1086  0.0082  0.0039
 9448W        W11648  16.677   1.427   8.567  0.0434  0.0254 -0.1192
 9449W        W11649  14.570   3.489   7.842 -0.1107 -0.1162  0.0520
 9450W        W11650  13.391   1.703   7.734  0.2185  0.1920  0.0303
 9451W        W11651   7.552   4.588  11.474 -0.0975  0.0216  0.0761
 9452W        W11652   4.438   4.423   8.501 -0.1123 -0.2550 -0.0660
 9453W        W11653  24.799   0.379   5.972 -0.1289  0.0400  0.1714
 9454W        W11654   5.200   6.353   2.221  0.0401 -0.0098 -0.2180
 9455W        W11655   7.186   4.212   2.258 -0.1199  0.0223 -0.0076
 9456W        W11656   0.007   0.056   8.158 -0.0984 -0.1468 -0.2713
 9457W        W11657   6.629   4.224   1.361  0.0948 -0.1056  0.2069
 9458W        W11658  13.529   1.290  21.812  0.0255 -0.2914 -0.2610
 9459W        W11659  13.833   5.217  11.801  0.2504  0.2311  0.1976
 9460W        W11660  23.340   6.447   7.173  0.0411 -0.1196  0.1810
 9461W        W11661  13.088   3.732  10.263 -0.1299 -0.0197  0.3227
 9462W        W11662   1.999   4.271  28.455 -0.1845  0.0636 -0.0606
 9463W        W11663  21.508   7.141  27.577  0.2461  0.0356 -0.0853
 9464W        W11664  22.837   2.434  19.253 -0.2723 -0.3928 -0.0698
 9465W        W11665   0.393   1.505   1.075 -0.3567  0.2491 -0.2295
 9466W        W11666   7.302   0.025  25.673 -0.2758  0.0566  0.1493
 9467W        W11667  20.732   7.327   9.118  0.2219 -0.3151  0.2499
 9468W        W11668  12.140   5.814   6.004  0.1742  0.0792 -0.2326
 9469W        W11669  22.602   6.346   0.409  0.0643 -0.0996 -0.0496
 9470W        W11670   8.019   2.814  25.698 -0.0304 -0.2834 -0.1156
 9471W        W11671  20.253   0.804  20.677  0.0799 -0.0546 -0.1956
 9472W        W11672  23.978   1.922   4.055 -0.0601  0.1567 -0.0534
 9473W        W11673  19.272   1.730  27.985  0.0019  0.0366 -0.0119
 9474W        W11674  17.589   2.791  17.916 -0.0748 -0.2050  0.1512
 9475W        W11675   7.777   2.763   0.896  0.0384 -0.2470  0.1504
 9476W        W11676   7.961   6.138  28.257  0.0268  0.1272  0.6432
 9477W        W11677  11.622   0.338  30.089  0.0866 -0.1706  0.0578
 9478W        W11678  17.269   5.537  21.863  0.2842  0.0389 -0.0368
 9479W        W11679   6.109   0.740  22.277  0.3047 -0.3486 -0.0874
 9480W        W11680   2.991   3.541  10.943  0.2037 -0.1003  0.2173
 9481W        W11681  13.627   6.085   9.549 -0.1626  0.2360  0.0280
 9482W        W11682  23.098   6.417   9.935 -0.0687  0.0876 -0.0625
 9483W        W11683  16.100   1.943  29.338  0.1935  0.0422  0.0809
 9484W        W11684  17.797   4.580   1.218  0.0207 -0.3948  0.1323
 9485W        W11685  12.968   1.635  23.263  0.2040  0.0458  0.2635
 9486W        W11686  18.091   6.164   3.922  0.0749 -0.0572  0.1180
 9487W        W11687   3.034   5.614   9.819  0.1007  0.0474 -0.0418
 9488W        W11688  18.889   5.565  17.940 -0.0099  0.1235  0.2586
 9489W        W11689  12.059   4.219   0.469 -0.1176  0.0088  0.0019
 9490W        W11690  21.108   6.422   6.378 -0.3748  0.1817  0.3610
 9491W        W11691   2.773   5.332  28.392 -0.1742  0.0016 -0.2721
 9492W        W11692   6.361   3.215  10.906 -0.2006  0.0419  0.2496
 9493W        W11693  15.465   5.586  25.496  0.1481 -0.0714  0.1495
 9494W        W11694  13.466   3.379  25.336 -0.2826 -0.3053  0.4093
 9495W        W11695  17.569   1.566  31.490 -0.1795 -0.1617  0.3359
 9496W        W11696  21.973   6.337  14.998  0.2285  0.0823 -0.0710
 9497W        W11697   4.559   5.793  23.549  0.0703  0.1256 -0.0267
 9498W        W11698   8.138   2.906   0.264 -0.1721  0.0452  0.2322
 9499W        W11699  10.123   1.300  25.353  0.0798 -0.1810  0.2262
 9500W        W11700  21.696   1.341   9.745  0.0164 -0.1185  0.1765
 9501W        W11701  12.074   5.288  27.608  0.1542  0.1214  0.1181
 9502W        W11702   8.899   6.081  27.078 -0.2552  0.0885 -0.0660
 9503W        W11703  15.801   5.367  22.331 -0.0395 -0.2346 -0.3331
 9504W        W11704   2.302   1.175  25.063  0.1720 -0.0828 -0.0488
 9505W        W11705   7.691   5.769   5.083 -0.2868 -0.0553  0.1199
 9506W        W11706  20.938   5.139  24.673  0.1275  0.3338 -0.1994
 9507W        W11707  17.214   7.784   4.899  0.0021  0.0083  0.1003
 9508W        W11708  19.926   3.858   1.420  0.0094  0.2696  0.0308
 9509W        W11709   1.073   6.918   0.743  0.1502 -0.0690  0.0567
 9510W        W11710  21.434   5.359  21.410  0.1664  0.0068 -0.1437
 9511W        W11711   6.269   5.415   7.038  0.2915 -0.2148 -0.2381
 9512W        W11712   4.823   2.673   2.159  0.2529 -0.1506 -0.1952
 9513W        W11713  13.014   2.036  28.659 -0.0368  0.2383 -0.2622
 9514W        W11714   2.664   5.534  27.228 -0.1211  0.1335 -0.1649
 9515W        W11715   5.683   6.155  22.761 -0.2042 -0.0498 -0.1360
 9516W        W11716   8.233   5.906  26.526 -0.1345  0.1450 -0.2997
 9517W        W11717  23.041   5.197  26.510  0.0711 -0.0817 -0.0494
 9518W        W11718  17.630   7.378  20.324 -0.1007  0.0464 -0.2549
 9519W        W11719  15.237   1.364   0.819 -0.1324 -0.1266 -0.0547
 9520W        W11720  11.260   5.367   4.346  0.0260  0.1292  0.0641
 9521W        W11721  18.222   0.551  11.756  0.1904 -0.2966 -0.0304
 9522W        W11722  14.382   1.792   7.959 -0.0146  0.0772  0.0231
 9523W        W11723  18.346   2.340   5.965 -0.0357 -0.2473  0.1777
 9524W        W11724   3.357   7.237  21.680 -0.2768  0.0593  0.1176
 9525W        W11725  20.192   3.130  14.365 -0.0797  0.2942  0.0271
 9526W        W11726  23.587   7.355  28.622 -0.4178 -0.2330 -0.0293
 9527W        W11727  18.519   2.840  22.696  0.0816  0.0636  0.0502
 9528W        W11728   5.287   6.333   6.868  0.0984  0.1567 -0.3003
 9529W        W11729  21.381   7.818   9.810  0.1489  0.1381  0.1406
 9530W        W11730   0.121   7.417   6.373  0.2846 -0.0585 -0.3672
 9531W        W11731  17.027   0.210  29.263 -0.2322  0.0157  0.0833
 9532W        W11732  17.290   6.471  10.001  0.0484 -0.0310 -0.2184
 9533W        W11733  10.810   1.987   2.398 -0.0752 -0.1510  0.0787
 9534W        W11734   6.325   0.436  21.946  0.2023  0.1022  0.3674
 9535W        W11735  20.804   4.124  17.253 -0.2040 -0.0785 -0.0204
 9536W        W11736   2.983   1.717   6.308 -0.2110 -0.1316 -0.1727
 9537W        W11737  23.293   5.593  31.177 -0.3909 -0.1779  0.1042
 9538W        W11738  19.641   3.076   3.678 -0.0330 -0.0879 -0.2444
 9539W        W11739  20.294   7.622   9.463 -0.2075  0.1398  0.0435
 9540W        W11740  12.403   1.260  14.264 -0.0063  0.1603 -0.3257
 9541W        W11741   0.010   3.450   1.758  0.2066  0.3175  0.2729
 9542W        W11742  23.168   2.960  30.091 -0.0749  0.0701  0.0734
 9543W        W11743   7.707   5.549  13.158  0.3307 -0.3020 -0.0597
 9544W        W11744   2.154   5.850   7.470  0.0383 -0.2353  0.1163
 9545W        W11745   1.015   0.803  30.948  0.0317 -0.1480  0.1530
 9546W        W11746  18.976   2.384  30.751  0.0997 -0.2043  0.1241
 9547W        W11747  18.493   4.598   2.300  0.1479  0.2323  0.0353
 9548W        W11748   9.521   0.727  25.083  0.0743 -0.0442 -0.0766
 9549W        W11749  11.855   3.789   2.143 -0.0574 -0.5169 -0.1858
 9550W        W11750  16.349   7.584   5.432 -0.0259  0.1303 -0.0202
 9551W        W11751  21.782   6.170  15.412  0.0721 -0.1666  0.2708
 9552W        W11752   4.507   1.588   0.887  0.2023 -0.3143 -0.2158
 9553W        W11753  22.131   3.712   6.461  0.0287 -0.1864 -0.0064
 9554W        W11754   1.163   5.759   0.151  0.1003 -0.2907 -0.1182
 9555W        W11755  22.959   1.659  21.790 -0.2347  0.4688 -0.0163
 9556W        W11756   2.505   2.538  10.124  0.0873  0.3253  0.2942
 9557W        W11757  24.698   0.043   8.533 -0.2731 -0.0715  0.0210
 9558W        W11758   0.419   2.097  20.767 -0.1350 -0.1489  0.0934
 9559W        W11759  10.514   2.777  15.459  0.1530 -0.0356  0.2268
 9560W        W11760  12.507   7.603  23.191 -0.1679 -0.1297 -0.0990
 9561W        W11761   3.686   3.264   1.799  0.1907 -0.0547  0.3285
 9562W        W11762   8.335   6.942  29.502 -0.0686 -0.0025 -0.2864
 9563W        W11763   3.053   2.404  26.664 -0.1257  0.2098  0.0541
 9564W        W11764   8.854   6.327   6.708  0.1372 -0.6266  0.0365
 9565W        W11765  13.412   5.143   8.587  0.0619  0.0496  0.1702
 9566W        W11766   9.755   4.106   1.484 -0.0692 -0.0978 -0.1390
 9567W        W11767   6.717   0.357   1.286 -0.0484  0.0260 -0.1711
 9568W        W11768  24.031   5.618  20.972  0.2837  0.0088 -0.0306
 9569W        W11769  24.533   0.925  18.928 -0.1406  0.1651  0.0235
 9570W        W11770  23.827   4.712  21.994  0.2435  0.2530  0.1153
 9571W        W11771  13.186   6.955   2.337  0.1191 -0.0215 -0.1319
 9572W        W11772  24.422   2.907  26.680 -0.0313  0.0044 -0.0266
 9573W        W11773   2.575   1.704  21.977  0.2601 -0.3961 -0.2032
 9574W        W11774  17.774   6.077   2.627 -0.1508 -0.2154  0.0890
 9575W        W11775  19.034   3.005  30.034 -0.1131 -0.1565  0.1460
 9576W        W11776   1.415   1.430   5.349  0.0315 -0.1875 -0.1262
 9577W        W11777  19.469   6.906  20.482 -0.0031  0.0435 -0.0361
 9578W        W11778   0.798   6.257  29.996  0.1187 -0.2102 -0.1290
 9579W        W11779   6.858   0.037   0.872  0.1557 -0.2764 -0.0454
 9580W        W11780  21.154   7.417  20.030  0.3529  0.1798  0.0025
 9581W        W11781   8.660   2.359   8.292  0.1533  0.0471  0.1802
 9582W        W11782  23.164   1.069  29.220 -0.0774 -0.0907  0.0387
 9583W        W11783  22.189   1.661   9.049  0.2401 -0.3072 -0.0437
 9584W        W11784   1.416   5.837  23.926  0.1150  0.0212  0.0693
 9585W        W11785   4.622   1.947  26.210  0.0531 -0.0252 -0.0024
 9586W        W11786  22.805   5.319  21.735  0.1741 -0.2255  0.1054
 9587W        W11787   9.029   2.175  27.588 -0.1318  0.2114 -0.2736
 9588W        W11788  18.684   2.963  27.807 -0.0804  0.1583 -0.0676
 9589W        W11789   8.827   0.994   2.021 -0.0793  0.1664  0.0903
 9590W        W11790  23.043   6.433  17.096  0.2632 -0.4863 -0.2073
 9591W        W11791   7.887   7.673   3.567 -0.0174 -0.1580 -0.0510
 9592W        W11792  14.829   3.354  20.882  0.0099 -0.1799 -0.2395
 9593W        W11793   6.335   6.505  24.307  0.0829 -0.0428  0.0521
 9594W        W11794  16.878   6.349  31.742  0.0139  0.4081  0.1206
 9595W        W11795  10.699   3.608  30.934  0.0158  0.1227 -0.1477
 9596W        W11796   4.920   5.629  26.387 -0.1614  0.0088 -0.0697
 9597W        W11797  20.974   6.626  15.931 -0.0921 -0.2272  0.2181
 9598W        W11798   2.280   4.426  30.086  0.0311  0.0932 -0.0715
 9599W        W11799  13.621   1.690   5.278  0.1757 -0.0154  0.0280
 9600W        W11800  23.370   2.265   1.458 -0.3191  0.1649  0.2092
 9601W        W11801  10.144   2.699   3.635  0.1810  0.2262  0.0205
 9602W        W11802  11.482   2.957  27.625  0.0289  0.2369 -0.1150
 9603W        W11803   1.060   2.417   3.925 -0.0426 -0.1576  0.3871
 9604W        W11804  11.586   6.133  27.707 -0.0374  0.5084  0.0125
 9605W        W11805  23.803   7.802  17.409 -0.1571  0.1271 -0.3268
 9606W        W11806   8.495   7.170  25.821 -0.0165 -0.1590  0.3775
 9607W        W11807  20.227   4.648   5.019  0.1446  0.2917  0.0025
 9608W        W11808  12.248   1.180  31.291  0.1350  0.1149 -0.0097
 9609W        W11809  20.979   5.196   4.687 -0.0600 -0.0122  0.1260
 9610W        W11810   3.676   1.545   5.151  0.2065  0.0477  0.0149
 9611W        W11811  19.886   2.350   0.048  0.3210 -0.0157 -0.1790
 9612W        W11812  15.975   0.311  23.640  0.3520  0.0993  0.1706
 9613W        W11813   8.105   0.311  15.209 -0.0050 -0.1406 -0.1251
 9614W        W11814  16.674   4.232  26.968 -0.0451 -0.1684 -0.0548
 9615W        W11815  11.165   0.065  28.937  0.0989 -0.3116 -0.5916
 9616W        W11816  12.687   1.620   4.380  0.1044  0.1847 -0.0879
 9617W        W11817   9.911   6.247  14.621  0.0907 -0.2847 -0.2680
 9618W        W11818  18.412   1.536   0.870  0.2003  0.2070 -0.1036
 9619W        W11819  22.590   3.676   7.963  0.2051 -0.2223 -0.3597
 9620W        W11820  23.803   2.871   4.796 -0.3010  0.2314  0.4560
 9621W        W11821  12.484   5.619   2.230 -0.3241 -0.0085 -0.2862
 9622W        W11822   1.304   5.966   0.956  0.1364 -0.0444 -0.1701
 9623W        W11823  10.992   3.463  31.654 -0.0751  0.1049  0.2112
 9624W        W11824   1.725   6.867  31.406 -0.0768  0.2195  0.1520
 9625W        W11825   9.535   4.554  24.492 -0.0555 -0.0638 -0.5068
 9626W        W11826   1.711   5.513   5.182 -0.1356 -0.2478  0.0348
 9627W        W11827  20.692   0.264  15.086 -0.1630 -0.1242 -0.0648
 9628W        W11828  15.569   1.724  20.695 -0.1511  0.1120  0.3033
 9629W        W11829  20.177   2.460  16.164 -0.2145  0.1421 -0.0260
 9630W        W11830  19.596   5.186  18.585  0.0144  0.3036 -0.0827
 9631W        W11831   8.289   7.382  27.365  0.2350 -0.1106  0.0131
 9632W        W11832   0.540   6.439  31.603 -0.1415  0.0157 -0.0111
 9633W        W11833  25.023   5.550   1.571  0.2888  0.0114  0.0212
 9634W        W11834  24.540   2.991   5.740 -0.1429 -0.1248 -0.0814
 9635W        W11835  12.337   3.022  13.548  0.0843  0.1574  0.0494
 9636W        W11836   0.813   1.539  18.934  0.5638  0.2208  0.0632
 9637W        W11837  19.460   3.621  30.886 -0.1496  0.0353  0.2432
 9638W        W11838  19.228   5.733  15.894 -0.1215  0.2307  0.1085
 9639W        W11839   8.403   3.872  13.238 -0.0327  0.2699 -0.0217
 9640W        W11840   0.624   4.598  10.065  0.0851 -0.0602 -0.1378
 9641W        W11841   7.916   5.088  26.610 -0.0031  0.1617  0.2106
 9642W        W11842  23.298   3.867  19.641 -0.1175  0.2297 -0.0161
 9643W        W11843   2.094   7.710  22.702  0.1012  0.0552  0.1459
 9644W        W11844  13.423   4.824   0.830  0.2733  0.0133 -0.2118
 9645W        W11845  19.262   6.096   4.181  0.1893  0.0076  0.2357
 9646W        W11846  11.362   2.484  21.911  0.1700  0.1254 -0.1274
 9647W        W11847   3.995   4.551   5.344 -0.1900  0.1133 -0.2140
 9648W        W11848  21.921   2.060   8.200 -0.1720 -0.0335 -0.2422
 9649W        W11849   2.580   0.517   9.620  0.0229  0.2658 -0.2037
 9650W        W11850  20.810   7.308   7.336  0.0235  0.0533 -0.0808
 9651W        W11851   7.709   7.785  32.448  0.0820 -0.0879 -0.1624
 9652W        W11852  20.700   4.053  18.626 -0.0310  0.0818 -0.1084
 9653W        W11853   3.799   4.574  28.202 -0.2764  0.1412  0.0153
 9654W        W11854  13.822   7.825  29.633  0.1336  0.2916 -0.1963
 9655W        W11855  10.688   4.031   9.828 -0.2452  0.0234  0.1042
 9656W        W11856  19.876   0.360  28.336 -0.2138  0.1689 -0.2734
 9657W        W11857  20.764   7.552  22.079 -0.0406 -0.2713  0.3160
 9658W        W11858  10.394   6.588  24.088 -0.1214 -0.0045 -0.0351
 9659W        W11859  19.209   7.260  31.496  0.0943 -0.3971 -0.0273
 9660W        W11860  23.705   2.837  22.678 -0.1650 -0.0040  0.1678
 9661W        W11861   9.428   3.745   1.240 -0.2108  0.1429 -0.1182
 9662W        W11862  16.435   1.708   3.993  0.0290 -0.0694  0.0328
 9663W        W11863  15.448   1.984  10.001 -0.2660 -0.0067 -0.2873
 9664W        W11864  22.796   5.769  20.293 -0.3064 -0.0844 -0.2067
 9665W        W11865   1.599   6.860   1.698 -0.2419  0.0630  0.0676
 9666W        W11866  24.254   1.523   3.299  0.1233 -0.1232 -0.1129
 9667W        W11867   4.398   7.685  13.095  0.2779  0.1737  0.0293
 9668W        W11868   3.850   5.565  27.948  0.2834 -0.1127  0.1637
 9669W        W11869  19.438   4.805  25.639  0.0997  0.1909  0.3082
 9670W        W11870  23.353   2.999   1.970  0.1709  0.0772  0.1836
 9671W        W11871   2.059   4.863   6.513  0.0914 -0.1155  0.1288
 9672W        W11872  17.062   0.071  10.171  0.2420  0.1769 -0.1318
 9673W        W11873   7.970   7.002  31.320 -0.0922  0.1640 -0.1377
 9674W        W11874  12.658   6.305   4.074  0.3481  0.0634  0.2219
 9675W        W11875   6.224   0.190  24.770 -0.2599 -0.0846  0.0360
 9676W        W11876  18.436   0.333  19.268 -0.2374  0.1973  0.1390
 9677W        W11877  20.838   4.629  24.000 -0.1748  0.1381 -0.0791
 9678W        W11878  19.467   6.613   6.071 -0.3237  0.0109  0.2443
 9679W        W11879   7.892   6.415   6.888  0.0340 -0.3012  0.1189
 9680W        W11880  19.893   6.561  29.736 -0.3448  0.0302 -0.0964
 9681W        W11881  15.484   3.219  28.307  0.0872  0.2394 -0.0720
 9682W        W11882   1.888   6.549  28.364  0.0286 -0.1486  0.2043
 9683W        W11883  18.762   2.220  14.643 -0.0443  0.0807  0.3409
 9684W        W11884  18.425   2.552  14.866  0.0598 -0.1013  0.2185
 9685W        W11885  10.493   2.115  28.623 -0.0252 -0.0397 -0.1319
 9686W        W11886   1.092   3.163  17.036  0.0167  0.5384  0.0521
 9687W        W11887   7.510   5.530  26.294 -0.0437  0.1158  0.2701
 9688W        W11888  12.815   1.127   0.785  0.0860  0.1993  0.2093
 9689W        W11889   9.592   3.096  10.835  0.0169  0.2023 -0.0164
 9690W        W11890  22.035   5.476  22.641  0.0424  0.0643  0.2930
 9691W        W11891   4.775   3.798   6.798 -0.1815  0.2663  0.1771
 9692W        W11892  16.193   0.197  28.264  0.0708  0.3888 -0.1103
 9693W        W11893  10.392   2.900  17.275 -0.1808 -0.1922  0.2206
 9694W        W11894   3.860   5.825   1.459  0.0060  0.1024 -0.0681
 9695W        W11895  24.412   3.783  29.749 -0.3114  0.2305  0.1004
 9696W        W11896  11.218   2.129   5.615  0.1126 -0.2455  0.1550
 9697W        W11897   6.748   7.438  23.956  0.1809 -0.0466 -0.0483
 9698W        W11898  15.549   1.022   2.227 -0.2802  0.1045  0.3179
 9699W        W11899  22.395   4.122   0.557 -0.2538 -0.3549  0.0371
 9700W        W11900   7.959   5.424   1.235 -0.2261 -0.0976 -0.1435
 9701W        W11901   3.402   7.285   8.342  0.1263 -0.2827 -0.1134
 9702W        W11902  19.220   2.712  28.530  0.2768 -0.1604 -0.5552
 9703W        W11903  17.260   3.126  27.495 -0.1959  0.0694  0.3470
 9704W        W11904  18.471   5.943  27.398  0.0652 -0.1253 -0.2846
 9705W        W11905  15.328   7.525  30.437  0.2530 -0.4003 -0.2312
 9706W        W11906  10.447   6.709  10.149  0.0552 -0.1725  0.2011
 9707W        W11907  11.227   2.780   7.531  0.1346 -0.0220 -0.1820
 9708W        W11908  10.998   0.307  28.541  0.0308  0.0956 -0.0934
 9709W        W11909   8.886   0.879  14.707 -0.2780 -0.3930  0.0028
 9710W        W11910  23.472   3.045  15.360  0.2138 -0.0204 -0.0235
 9711W        W11911   8.048   4.834   6.115 -0.1025 -0.2152  0.0595
 9712W        W11912  19.664   4.216  23.286 -0.1165 -0.1948 -0.0613
 9713W        W11913  16.577   0.799  27.750  0.1868  0.0134  0.1198
 9714W        W11914  23.038   7.470   5.974 -0.3246 -0.0281 -0.0718
 9715W        W11915  23.957   5.219  32.430 -0.3035  0.1086  0.0778
 9716W        W11916  23.214   4.470  25.122  0.0282  0.1828 -0.2106
 9717W        W11917   1.707   2.160   9.207 -0.0756 -0.2781  0.2520
 9718W        W11918  10.033   3.720  24.294 -0.1134  0.0436 -0.0104
 9719W        W11919  14.621   0.372   9.363 -0.2651 -0.1684  0.1226
 9720W        W11920  12.622   2.437  32.026  0.1288  0.0717 -0.1657
 9721W        W11921  21.018   6.706  28.336  0.0942 -0.0916  0.2338
 9722W        W11922  20.697   1.269   4.614 -0.2371 -0.2051 -0.2458
 9723W        W11923  21.083   1.229  31.224 -0.0475 -0.2992  0.1217
 9724W        W11924   0.375   2.627  29.017 -0.0297  0.0361 -0.1765
 9725W        W11925  21.642   6.898  17.089 -0.0706  0.2702 -0.0903
 9726W        W11926   9.135   2.098  16.524 -0.0482  0.1446 -0.3462
 9727W        W11927  24.457   4.452  28.160  0.1450  0.3575 -0.1417
 9728W        W11928  10.894   5.495   2.623  0.0272  0.1763 -0.2870
 9729W        W11929  21.017   1.390  17.205 -0.0692  0.2204 -0.1615
 9730W        W11930  20.234   5.495   1.632 -0.1520 -0.1057  0.2037
 9731W        W11931  22.180   3.561   7.692 -0.0406 -0.3588  0.3800
 9732W        W11932  20.375   6.423   2.637  0.0326  0.1294 -0.0465
 9733W        W11933   0.599   3.565   2.716  0.3318  0.0778  0.0856
 9734W        W11934   3.668   3.323   7.241 -0.2326  0.0121 -0.2316
 9735W        W11935  12.337   1.743  14.961 -0.0698 -0.3964 -0.1378
 9736W        W11936  18.919   2.903  29.479 -0.0868 -0.2338 -0.1782
 9737W        W11937   6.528   6.201   9.216 -0.0572  0.1705  0.1496
 9738W        W11938  21.909   3.698  17.823 -0.1516  0.0113 -0.0605
 9739W        W11939  14.694   0.702  23.510  0.0407  0.2268 -0.2968
 9740W        W11940  24.564   2.612  30.060 -0.4023  0.1762 -0.0982
 9741W        W11941   2.026   2.326  11.378  0.3090 -0.1715  0.3805
 9742W        W11942  23.707   1.303   8.319 -0.0515 -0.1391  0.1022
 9743W        W11943  12.163   5.913   1.932  0.2324  0.1495  0.0612
 9744W        W11944  15.352   3.623  23.699 -0.0471 -0.0036  0.0400
 9745W        W11945  23.695   5.844  23.603 -0.1827 -0.0800 -0.0369
 9746W        W11946  16.778   5.194  24.274 -0.0484  0.2675  0.1938
 9747W        W11947  16.112   7.273  31.247 -0.2548  0.0279  0.1994
 9748W        W11948  10.538   4.039   3.443 -0.4120  0.2421  0.2056
 9749W        W11949   6.942   1.813   7.829  0.0628  0.0312  0.1555
 9750W        W11950   8.991   7.583   2.188 -0.0710 -0.1400 -0.1973
 9751W        W11951   9.276   6.458   7.137  0.0954  0.0517  0.2081
 9752W        W11952   3.547   5.187  13.433  0.0331 -0.1436  0.0762
 9753W        W11953   1.263   1.691   0.553 -0.2361  0.0471 -0.0192
 9754W        W11954   8.556   1.084  25.573  0.0808  0.1343 -0.1801
 9755W        W11955  16.701   5.122  26.351 -0.4105 -0.0819  0.1732
 9756W        W11956   1.371   7.073  24.701  0.3938  0.0621  0.0669
 9757W        W11957  17.331   2.943  25.322 -0.0881 -0.1342 -0.2068
 9758W        W11958   4.901   5.874   9.274 -0.0246 -0.1747 -0.2298
 9759W        W11959  23.620   5.312  32.000  0.0385  0.0277  0.2501
 9760W        W11960   4.183   1.191  13.996 -0.1360  0.2472 -0.0383
 9761W        W11961  15.353   6.909  22.774 -0.4203  0.0254  0.1674
 9762W        W11962   1.409   4.232  30.633 -0.3727  0.2849  0.3046
 9763W        W11963  15.705   3.374   7.516  0.1078 -0.1704  0.2473
 9764W        W11964  14.246   6.872  12.493  0.1185 -0.0828 -0.2125
 9765W        W11965   4.529   7.301  22.009 -0.0886  0.1484 -0.0737
 9766W        W11966   7.904   3.938  27.596  0.3109  0.1026  0.2012
 9767W        W11967   1.540   6.498  29.208 -0.0530 -0.2653  0.2037
 9768W        W11968  15.120   4.972   9.827  0.1475 -0.0906 -0.0576
 9769W        W11969  24.350   6.522  32.013  0.0195  0.2305  0.0542
 9770W        W11970  16.035   4.356  28.865  0.2441 -0.1656  0.0469
 9771W        W11971  23.314   0.764  17.150  0.0295  0.1274 -0.0857
 9772W        W11972  16.075   6.801  27.451 -0.1831 -0.0622  0.0892
 9773W        W11973  13.693   0.236  11.677 -0.0239 -0.1172  0.4334
 9774W        W11974  19.647   5.156  27.672 -0.0651 -0.1597  0.0617
 9775W        W11975  15.069   1.785  25.030 -0.1328  0.1707  0.0168
 9776W        W11976  14.536   7.772  29.381  0.0935 -0.0528 -0.3422
 9777W        W11977  23.939   5.021   7.479  0.0155 -0.1895 -0.0296
 9778W        W11978  11.947   6.986  22.024 -0.0810  0.1902  0.0296
 9779W        W11979  15.497   1.285  20.535 -0.4628  0.2352 -0.0425
 9780W        W11980  13.506   3.983   3.400  0.2514  0.0050 -0.0672
 9781W        W11981   9.169   2.370  15.875  0.0239 -0.1524 -0.1738
 9782W        W11982  18.022   4.788  20.582  0.1321  0.1961  0.0338
 9783W        W11983  18.359   0.467  27.176  0.1433 -0.0381  0.0216
 9784W        W11984  11.722   0.253   4.648  0.0493  0.3182 -0.2276
 9785W        W11985  22.675   3.159   5.309  0.1646 -0.3702 -0.0006
 9786W        W11986  22.658   5.889  18.634 -0.0406 -0.0956 -0.1494
 9787W        W11987   0.743   0.686   5.897  0.1637  0.2173 -0.0319
 9788W        W11988  22.351   3.499  24.771  0.0883 -0.0106  0.0671
 9789W        W11989  10.170   2.560  13.879 -0.1807 -0.1158  0.3595
 9790W        W11990  23.160   7.542  27.166 -0.0390  0.0600  0.1268
 9791W        W11991  21.039   2.408  20.173 -0.1283  0.2202  0.1082
 9792W        W11992  13.520   4.720  26.024 -0.1331 -0.0638 -0.2121
 9793W        W11993  17.172   7.311  30.862 -0.0165 -0.0098  0.2199
 9794W        W11994   2.101   5.325  31.511 -0.0385 -0.0800 -0.1867
 9795W        W11995   5.217   1.324  22.726  0.1717  0.2011 -0.1477
 9796W        W11996  22.965   7.749   3.252 -0.0665 -0.3125  0.1379
 9797W        W11997   3.414   7.420   7.861 -0.1722  0.2973  0.0995
 9798W        W11998   3.187   0.345   2.801  0.2165  0.0855 -0.1214
 9799W        W11999   1.108   4.714  22.176  0.0391 -0.3192 -0.2134
 9800W        W12000  13.559   0.859  11.758  0.0745 -0.2533  0.1859
 9801W        W12001  14.679   7.079  29.880  0.3729  0.1792  0.0022
 9802W        W12002  17.563   4.602   8.180 -0.1157  0.0530  0.1446
 9803W        W12003   5.283   2.301  22.452 -0.2781 -0.1367  0.1025
 9804W        W12004  17.771   7.229   8.641  0.0972  0.0196  0.0110
 9805W        W12005  24.319   6.920  31.580 -0.0941 -0.2466 -0.0637
 9806W        W12006  21.002   3.591  22.189 -0.0955  0.2780 -0.2238
 9807W        W12007   0.147   3.058  18.693  0.0910  0.0138 -0.0163
 9808W        W12008  17.951   4.765  15.726 -0.4215 -0.1654  0.4962
 9809W        W12009  22.266   7.476   9.570 -0.1156  0.3415  0.0537
 9810W        W12010  16.358   1.298  32.482  0.0437 -0.0838 -0.0029
 9811W        W12011  18.265   4.399  19.863 -0.1118  0.0191  0.0189
 9812W        W12012   2.804   6.631  23.438  0.3343  0.2850 -0.0928
 9813W        W12013  11.975   3.982  27.171  0.0816 -0.1028 -0.1043
 9814W        W12014   3.092   7.536  21.916 -0.1707  0.1642 -0.2697
 9815W        W12015  15.749   5.683  26.435 -0.1306 -0.2840  0.1279
 9816W        W12016   1.572   0.402  32.325  0.0232  0.0738 -0.1803
 9817W        W12017  24.328   6.215   0.385 -0.3997 -0.0516  0.0563
 9818W        W12018  17.409   2.135  11.124  0.1046 -0.1081  0.1089
 9819W        W12019   1.223   2.585  22.843 -0.1035  0.0634  0.2589
 9820W        W12020  12.794   3.514  30.004 -0.4310  0.1075 -0.0675
 9821W        W12021   6.542   0.624  15.965 -0.1127 -0.1612  0.0672
 9822W        W12022   2.820   7.731   1.602  0.1315  0.0672  0.1732
 9823W        W12023  14.965   0.322   9.679  0.0387 -0.0415  0.2885
 9824W        W12024  14.189   3.529  26.220 -0.0955 -0.2242 -0.0145
 9825W        W12025  12.992   2.822   6.445  0.0079 -0.0264 -0.0540
 9826W        W12026   3.424   0.771   9.865 -0.0373  0.0044 -0.0517
 9827W        W12027   5.150   6.768  27.111  0.1583  0.3116  0.0527
 9828W        W12028  10.169   1.925   6.816 -0.0675 -0.1483 -0.1558
 9829W        W12029   0.448   6.285  28.360 -0.2361 -0.1308 -0.0052
 9830W        W12030  10.179   4.694  24.508 -0.1035  0.0941  0.1762
 9831W        W12031  18.822   2.576  32.288  0.5638  0.2199  0.2163
 9832W        W12032  19.139   5.341  30.406  0.0359  0.1694 -0.1031
 9833W        W12033  16.389   3.169  25.445  0.0799 -0.1524  0.1454
 9834W        W12034  19.998   0.959  19.225 -0.2303 -0.0746  0.3250
 9835W        W12035  23.155   2.171   8.183  0.1295 -0.1740  0.3235
 9836W        W12036  13.999   4.264   1.530  0.1358 -0.2037 -0.0398
 9837W        W12037   0.851   3.815  22.371 -0.0311  0.0596 -0.0043
 9838W        W12038  23.717   4.687  23.834  0.1628 -0.0008  0.1571
 9839W        W12039   7.253   0.435  22.342 -0.3042 -0.1518  0.2401
 9840W        W12040   2.447   3.281  23.639 -0.3243 -0.2143 -0.1087
 9841W        W12041  12.254   2.942  14.111 -0.0135  0.0074  0.0090
 9842W        W12042  17.578   1.724  24.327 -0.1018  0.0417 -0.0837
 9843W        W12043  16.559   5.226  23.806 -0.1842 -0.0186  0.3083
 9844W        W12044  12.958   7.486  31.224 -0.0279  0.2102 -0.1303
 9845W        W12045  18.780   0.709  17.152  0.0088  0.1542  0.2419
 9846W        W12046  18.158   0.675  30.724  0.1594 -0.0364  0.1198
 9847W        W12047   8.730   4.537  32.292  0.0152  0.0381 -0.1465
 9848W        W12048  21.182   4.154  20.542  0.1231 -0.0370 -0.2169
 9849W        W12049   0.335   3.526  10.397 -0.2361  0.1087 -0.1642
 9850W        W12050  17.579   6.953  18.068  0.3090  0.0221  0.2460
 9851W        W12051  10.708   7.511  32.022  0.1365  0.1732  0.2927
 9852W        W12052   6.080   1.297  30.218  0.1120  0.2786 -0.1135
 9853W        W12053   2.234   0.340  23.056 -0.0862  0.0098 -0.0221
 9854W        W12054   1.209   1.668  22.015 -0.1054 -0.1587  0.1904
 9855W        W12055   6.179   2.036  30.221 -0.0953  0.3181  0.2894
 9856W        W12056   7.330   1.474  13.138  0.0001 -0.2595  0.0566
 9857W        W12057  11.845   2.485   1.665  0.0716 -0.0470  0.0206
 9858W        W12058   0.156   3.499   0.689 -0.6104 -0.0795  0.0873
 9859W        W12059  23.148   0.292  29.831  0.0223 -0.1689 -0.0009
 9860W        W12060  10.729   4.092  29.860 -0.1084  0.0626  0.0746
 9861W        W12061  19.605   5.643   4.375 -0.2788  0.0463  0.0975
 9862W        W12062  10.228   4.018  23.041  0.2414  0.1440  0.0865
 9863W        W12063   5.071   2.239  28.976  0.3585 -0.2795  0.1112
 9864W        W12064  11.834   5.661  12.470  0.3500 -0.0054  0.0767
 9865W        W12065  12.017   3.657  28.497 -0.1586  0.1309 -0.0727
 9866W        W12066  23.730   5.991   7.711  0.2020 -0.0579 -0.0231
 9867W        W12067  23.800   0.049  19.690 -0.0194 -0.0697 -0.1983
 9868W        W12068  19.993   3.897   4.284 -0.2320  0.1596  0.1135
 9869W        W12069   1.867   2.705   1.400  0.3290 -0.0922  0.0083
 9870W        W12070  22.526   3.669  14.741 -0.0400 -0.3322  0.1894
 9871W        W12071  23.386   4.414  26.031  0.1908 -0.2189 -0.0616
 9872W        W12072  22.445   6.960  24.531 -0.0116 -0.1772 -0.0323
 9873W        W12073  14.803   7.223   9.945  0.2470 -0.0460 -0.0346
 9874W        W12074   9.272   4.641  15.315  0.3664  0.1265  0.0294
 9875W        W12075  16.881   6.170  27.012 -0.1092 -0.0560  0.1730
 9876W        W12076  21.526   1.734  23.721  0.3277 -0.0729 -0.0988
 9877W        W12077  11.904   3.753  13.261  0.2167 -0.2701  0.0123
 9878W        W12078  10.665   3.954   5.954 -0.0445 -0.1484  0.2469
 9879W        W12079  24.452   5.638   3.065 -0.1825  0.1166  0.5250
 9880W        W12080   6.728   5.413   7.555  0.1269 -0.3005  0.1688
 9881W        W12081  23.443   0.593  22.626  0.0557 -0.2568  0.4048
 9882W        W12082  24.762   2.181  17.912  0.0227 -0.0252  0.2133
 9883W        W12083  24.980   0.017  25.894  0.1667 -0.2726 -0.1554
 9884W        W12084  11.434   3.969  16.000 -0.0925 -0.1207 -0.1645
 9885W        W12085   2.606   1.942   8.539 -0.1097  0.2229 -0.1509
 9886W        W12086  15.989   2.447   5.322  0.0410 -0.2273 -0.0652
 9887W        W12087  17.539   6.813  27.292 -0.1714  0.2854  0.1782
 9888W        W12088   2.134   4.678   6.035  0.1049  0.1832  0.0166
 9889W        W12089  15.140   6.570  21.009  0.1206 -0.1241 -0.1201
 9890W        W12090   7.363   7.252  27.784 -0.1958 -0.0115 -0.2261
 9891W        W12091   6.957   6.204   3.466  0.2290 -0.0289 -0.2914
 9892W        W12092  17.804   0.843  26.543  0.0047  0.1733 -0.3197
 9893W        W12093   6.864   5.325   4.917  0.0810 -0.0903 -0.1313
 9894W        W12094   6.644   5.162   5.321  0.1440 -0.1720  0.0826
 9895W        W12095  20.208   3.994  25.024 -0.2327  0.2914  0.0483
 9896W        W12096   9.575   3.856   7.249  0.2565  0.0843 -0.0610
 9897W        W12097   8.880   4.837  18.120  0.3790  0.0717  0.3031
 9898W        W12098   8.649   7.604  26.004  0.1586  0.0731  0.1018
 9899W        W12099   0.908   7.170   5.396  0.1391 -0.1202 -0.0462
 9900W        W12100  22.404   0.183  21.753  0.0273  0.1648  0.0157
 9901W        W12101  13.684   2.753   3.928 -0.0357 -0.1761  0.0878
 9902W        W12102  22.932   0.537  31.951 -0.2763  0.1458 -0.1874
 9903W        W12103  20.018   2.148  21.097  0.1231 -0.0803 -0.3314
 9904W        W12104   3.324   3.447   2.117 -0.1419 -0.1124 -0.0191
 9905W        W12105  24.565   4.499  19.168 -0.0222 -0.0617 -0.0578
 9906W        W12106  20.205   2.995   8.770  0.2232 -0.2473 -0.2444
 9907W        W12107  22.262   0.442   9.469  0.1925  0.0953 -0.0891
 9908W        W12108  20.795   2.637  23.001 -0.1345  0.0256 -0.1277
 9909W        W12109  15.985   2.692  22.882  0.0265 -0.3631  0.0213
 9910W        W12110  11.945   1.743   0.867  0.0920  0.1055  0.0812
 9911W        W12111   4.237   7.597   8.834 -0.1329  0.1921 -0.1064
 9912W        W12112   8.650   4.278  23.941 -0.2724 -0.1345 -0.2987
 9913W        W12113  21.767   2.642  15.729  0.3380 -0.1493 -0.0061
 9914W        W12114  22.659   4.419   7.436  0.0962 -0.2435 -0.0252
 9915W        W12115  20.203   1.822  15.573  0.1741 -0.2689  0.3320
 9916W        W12116  19.340   0.717  24.733  0.1516 -0.3200  0.1355
 9917W        W12117  20.338   0.496  28.128 -0.2723 -0.2644 -0.1304
 9918W        W12118  21.471   3.188   0.621  0.0368 -0.0254  0.0201
 9919W        W12119  24.916   3.587  20.893 -0.1885 -0.2030 -0.0466
 9920W        W12120   0.911   6.872  22.785  0.1212 -0.1600  0.1393
 9921W        W12121   4.174   4.480  25.880 -0.1831 -0.0809  0.3885
 9922W        W12122  15.650   3.723   9.890 -0.1015 -0.0659  0.0549
 9923W        W12123  16.071   6.482  17.393  0.0412  0.0886 -0.2556
 9924W        W12124   5.708   7.279  15.131  0.0543 -0.0552  0.1687
 9925W        W12125   1.955   7.556  20.742  0.1747 -0.3639  0.0860
 9926W        W12126  19.038   1.149  17.075 -0.2035  0.0011 -0.0972
 9927W        W12127   0.199   0.835  21.397 -0.1416 -0.0952 -0.3705
 9928W        W12128  25.023   3.911  27.232 -0.0836  0.0733 -0.0014
 9929W        W12129   9.296   6.775  15.787  0.3130  0.0368  0.1436
 9930W        W12130  10.565   5.804   1.850 -0.1040  0.2059  0.2072
 9931W        W12131  13.340   1.002  27.699  0.2383  0.1791  0.0287
 9932W        W12132   7.524   2.480   7.617 -0.0109  0.0210  0.0348
 9933W        W12133   4.957   2.427  14.008 -0.2385 -0.0824  0.4175
 9934W        W12134   3.443   6.868  22.786  0.0828  0.1180 -0.0703
 9935W        W12135  15.008   1.490  32.437 -0.0582  0.0974 -0.0453
 9936W        W12136   3.264   6.213   3.065  0.0832 -0.3115  0.4007
 9937W        W12137  19.654   4.166  26.165 -0.1238  0.2337 -0.0872
 9938W        W12138  17.224   2.802  30.997 -0.1741  0.1274  0.0186
 9939W        W12139  24.455   7.804  23.098  0.3894  0.0573 -0.0837
 9940W        W12140  11.422   4.951  30.378  0.2450  0.3917  0.2826
 9941W        W12141  21.638   3.402   1.430 -0.0297 -0.0389  0.1744
 9942W        W12142   9.844   7.311   8.645 -0.0114 -0.2778 -0.1157
 9943W        W12143  22.781   1.299   1.228 -0.0793 -0.1026 -0.1566
 9944W        W12144   3.688   4.113   1.944 -0.0509 -0.2187 -0.0633
 9945W        W12145   2.684   4.506   7.631  0.0530 -0.0967 -0.2949
 9946W        W12146  14.288   7.706  10.626  0.0828 -0.0858 -0.2237
 9947W        W12147  11.409   5.214  15.848 -0.2216 -0.3648  0.2410
 9948W        W12148   5.705   3.918  30.555  0.1169 -0.1832  0.2671
 9949W        W12149  21.067   6.539   8.663  0.0871  0.2717 -0.2699
 9950W        W12150   6.090   1.374  27.439 -0.1298 -0.2495 -0.3841
 9951W        W12151  20.172   6.572   1.301 -0.0988  0.1968  0.0926
 9952W        W12152   9.083   3.226   0.769  0.2940  0.1632  0.0776
 9953W        W12153  19.656   3.129   7.618  0.2084  0.1923 -0.0492
 9954W        W12154  12.377   3.661  24.567  0.0621 -0.0782  0.0589
 9955W        W12155  20.897   1.472  26.481  0.0483  0.0440  0.1352
 9956W        W12156   7.166   7.088   3.282  0.1344 -0.0530 -0.0484
 9957W        W12157  10.150   5.387   7.255  0.0843 -0.1084  0.0799
 9958W        W12158   8.437   5.980  12.161  0.0936  0.1422  0.0164
 9959W        W12159  19.016   1.628  31.035 -0.0781 -0.0837 -0.1792
 9960W        W12160   0.950   3.721  26.003 -0.2822 -0.1767 -0.1977
 9961W        W12161   2.998   0.953  23.177  0.3204  0.0439 -0.0679
 9962W        W12162   1.947   4.318  23.241 -0.0387 -0.0371 -0.1110
 9963W        W12163   3.191   2.438  28.118 -0.0133 -0.0085  0.1046
 9964W        W12164   6.047   4.062   3.336  0.0778 -0.1037 -0.1575
 9965W        W12165  10.387   3.645  12.084  0.0403 -0.1740 -0.0253
 9966W        W12166  23.325   0.095   1.830  0.0458  0.2469 -0.2156
 9967W        W12167  10.996   5.844  12.477 -0.2620  0.0262 -0.1215
 9968W        W12168  24.753   7.684  23.901 -0.0430  0.0011  0.1219
 9969W        W12169  23.425   5.752  22.680 -0.0486  0.2839 -0.0922
 9970W        W12170   3.445   7.199   0.214 -0.0197 -0.0175  0.0754
 9971W        W12171  23.575   4.593  30.193  0.1996 -0.0982  0.0119
 9972W        W12172   8.058   4.864   7.058 -0.0089  0.1035 -0.0670
 9973W        W12173  19.065   2.430   4.187  0.0532 -0.0375  0.1916
 9974W        W12174   7.764   3.062  13.652 -0.1543  0.1302  0.0673
 9975W        W12175  15.999   2.693  28.240 -0.1165 -0.1074  0.0139
 9976W        W12176  16.206   5.415   5.451 -0.0300 -0.2274  0.4751
 9977W        W12177   9.138   5.362   9.284  0.0109 -0.0688  0.0382
 9978W        W12178  17.251   2.019  29.654  0.0017  0.2488  0.1166
 9979W        W12179   9.952   3.195   7.985  0.1605  0.0056 -0.1993
 9980W        W12180   6.732   5.671  25.249  0.0655 -0.2459  0.0538
 9981W        W12181   6.431   6.602   2.419 -0.0031  0.1427  0.0943
 9982W        W12182   6.486   5.724   2.657  0.1481  0.0485 -0.3692
 9983W        W12183   1.612   5.260  24.540 -0.0114 -0.1426  0.2483
 9984W        W12184  22.309   3.671   9.832  0.0284 -0.0831  0.2482
 9985W        W12185   2.964   1.141  30.294  0.2005 -0.0876 -0.0555
 9986W        W12186   0.516   7.178  10.510  0.1153 -0.1756  0.1093
 9987W        W12187  20.748   5.004  17.534  0.0491  0.1530  0.2471
 9988W        W12188  12.991   6.841  21.696 -0.0015 -0.3614  0.1828
 9989W        W12189  13.434   4.503  12.435  0.3139 -0.1102 -0.0584
 9990W        W12190  13.733   0.732   1.504  0.1881  0.2701 -0.1943
 9991W        W12191   0.658   4.124  31.967  0.1488 -0.2150  0.0601
 9992W        W12192   3.490   6.620  12.142  0.3724 -0.2136  0.0100
 9993W        W12193  15.338   6.691   9.394  0.1810  0.0410 -0.1646
 9994W        W12194   1.364   7.396  10.517 -0.2714 -0.3255  0.1079
 9995W        W12195  10.039   4.483  31.754  0.3396  0.0488 -0.1520
 9996W        W12196  14.913   4.115   1.246 -0.0376  0.2744  0.4317
 9997W        W12197  18.040   0.455  26.778  0.2159  0.1818  0.1247
 9998W        W12198  15.610   4.260  25.136  0.0878  0.3647 -0.1132
 9999W        W12199  15.569   5.100  11.956  0.0065  0.0683  0.1913
10000W        W12200  19.656   3.771  28.821 -0.1313  0.1685 -0.2066
10001W        W12201  10.296   4.950   3.306  0.0011 -0.1966 -0.1598
10002W        W12202  16.166   6.070  19.910  0.1073 -0.0006 -0.0948
10003W        W12203  15.173   4.210  25.349  0.0545  0.2859  0.0254
10004W        W12204   7.385   7.152  10.742  0.2655  0.1603 -0.0903
10005W        W12205  11.451   5.385  25.435  0.1274  0.1300 -0.0430
10006W        W12206   4.421   7.612   8.280 -0.0282  0.2548  0.2351
10007W        W12207  20.860   1.822  14.978 -0.4038 -0.0410 -0.1925
10008W        W12208  13.904   2.265  29.103 -0.1264 -0.0202 -0.0062
10009W        W12209   8.951   6.430  14.139  0.0602 -0.0636 -0.1216
10010W        W12210  23.254   6.606   3.790 -0.0058  0.2855 -0.0674
10011W        W12211   9.340   4.401  23.922 -0.3158 -0.0960  0.1345
10012W        W12212   8.775   6.702   7.936 -0.1502  0.0350  0.0923
10013W        W12213   7.484   2.977  24.640 -0.1970 -0.1275 -0.0741
10014W        W12214   1.455   3.653  31.403 -0.3355 -0.4114  0.0971
10015W        W12215   3.848   1.091  10.760 -0.2072  0.1709 -0.0514
10016W        W12216  19.460   4.804   7.519 -0.0028 -0.1038 -0.1002
10017W        W12217   5.616   4.465  16.884  0.0052  0.2337 -0.0498
10018W        W12218   0.414   2.322  25.741  0.1596 -0.1271  0.0197
10019W        W12219  24.250   6.556   7.620  0.1415 -0.0818 -0.2087
10020W        W12220  24.536   1.972   3.258 -0.3009  0.0990  0.2368
10021W        W12221   0.817   7.562  10.531 -0.1218 -0.4081 -0.0209
10022W        W12222  24.617   3.942   5.558 -0.0663 -0.0432 -0.1215
10023W        W12223  20.892   3.930   7.992 -0.2379  0.0644  0.4329
10024W        W12224  22.857   0.052   2.159 -0.0782  0.0913 -0.3709
10025W        W12225  23.482   5.418   2.775 -0.0795  0.2463  0.2802
10026W        W12226   0.507   4.257   8.356 -0.0043  0.0358  0.0549
10027W        W12227  20.133   0.094  30.362 -0.2375 -0.0317  0.2299
10028W        W12228   2.473   5.231   9.158  0.0114 -0.3877  0.2520
10029W        W12229   7.983   7.557   4.985 -0.2677 -0.0899 -0.0332
10030W        W12230  22.068   3.903  20.627 -0.1680 -0.2793  0.1886
10031W        W12231  10.157   5.612  30.115 -0.0074  0.0303 -0.1201
10032W        W12232  14.081   7.444   8.957 -0.1162  0.0909  0.0450
10033W        W12233   1.710   6.132  22.855  0.0297 -0.0405 -0.0232
10034W        W12234   5.082   2.116  25.873 -0.3892 -0.0075 -0.0336
10035W        W12235   5.633   0.116  10.575 -0.0131  0.1679 -0.0339
10036W        W12236  14.952   1.307  28.681 -0.0188 -0.0134  0.2891
10037W        W12237   5.394   5.695  31.220 -0.2731 -0.0882  0.0054
10038W        W12238   8.742   4.846  16.014 -0.2514 -0.3849 -0.2315
10039W        W12239  19.591   1.076  23.582 -0.2369  0.1202  0.0843
10040W        W12240  18.096   7.696  24.842 -0.4888 -0.0952  0.2692
10041W        W12241   7.666   4.941  16.593 -0.2869 -0.1208  0.1680
10042W        W12242   5.019   5.399  11.639 -0.1239  0.0807  0.1168
10043W        W12243  14.285   2.883   9.429  0.5158  0.1277  0.1654
10044W        W12244   5.975   3.239   1.007 -0.3741  0.4636 -0.1527
10045W        W12245  24.561   6.266  31.621  0.1017 -0.2433  0.3416
10046W        W12246  23.765   7.096  10.011  0.1810  0.0478 -0.0528
10047W        W12247   6.575   1.796  24.375  0.2389 -0.1252 -0.0006
10048W        W12248  20.144   6.047  31.973 -0.0910  0.0665 -0.1387
10049W        W12249  11.692   3.067  26.122  0.2822  0.1317 -0.1402
10050W        W12250  15.977   6.393  23.685 -0.3357 -0.0496  0.0137
10051W        W12251  10.018   1.046  30.629 -0.0627  0.0984  0.1724
10052W        W12252  12.153   1.292  15.231 -0.2475 -0.1718 -0.1815
10053W        W12253  23.056   1.964  31.355 -0.1313  0.0347  0.1261
10054W        W12254   0.997   4.198  25.801  0.0858  0.2178 -0.1888
10055W        W12255   5.587   3.103   5.064 -0.3326  0.3791 -0.1714
10056W        W12256  20.091   6.966  19.110 -0.4433  0.0223  0.1322
10057W        W12257  20.406   6.892   9.186  0.0210 -0.0483 -0.1248
10058W        W12258   8.588   0.808  32.084 -0.1821  0.3311 -0.0296
10059W        W12259  14.445   3.247  24.927 -0.2270  0.0192  0.0617
10060W        W12260   2.552   5.191  23.029 -0.0006 -0.1331 -0.2351
10061W        W12261  10.671   3.821   6.902  0.1043  0.2392 -0.0658
10062W        W12262   8.913   6.616  32.271 -0.0224  0.2552 -0.1483
10063W        W12263  10.243   1.669  25.706  0.0312 -0.2530  0.0603
10064W        W12264   2.759   7.423  27.609  0.0959 -0.0746 -0.2249
10065W        W12265   0.175   6.760   3.711 -0.0015  0.1953  0.0059
10066W        W12266   2.728   3.081  26.617  0.1443  0.3230 -0.0190
10067W        W12267  20.138   2.876  15.849  0.1637 -0.0428 -0.0906
10068W        W12268   9.996   0.989  10.273  0.1452 -0.1872  0.0116
10069W        W12269  23.809   1.981  22.881 -0.0445  0.1679 -0.1019
10070W        W12270  23.090   0.990  27.466 -0.0289 -0.3929 -0.0395
10071W        W12271   9.026   5.779  10.020  0.0365  0.1419  0.1886
10072W        W12272  13.694   0.357  24.089 -0.1420  0.0840  0.1288
10073W        W12273  21.809   2.624  15.197 -0.0774  0.3045  0.1037
10074W        W12274  11.660   3.674  10.637 -0.1673 -0.1197 -0.3100
10075W        W12275  15.045   3.547  29.465 -0.0688  0.0339 -0.0573
10076W        W12276  18.988   7.202   7.174 -0.0564 -0.1539  0.1911
10077W        W12277  22.071   4.836   5.568 -0.0335  0.0600  0.1353
10078W        W12278   8.776   6.929  10.814 -0.0909 -0.1367  0.0234
10079W        W12279  13.435   0.660  24.723  0.1152  0.0599  0.1002
10080W        W12280   7.868   0.755   1.965  0.1779  0.0770 -0.1485
10081W        W12281  20.117   7.789   6.701  0.0752 -0.1871  0.0182
10082W        W12282   1.234   6.056   6.893  0.0108  0.0113  0.1351
10083W        W12283  18.172   5.113   7.688  0.1276 -0.2153 -0.2577
10084W        W12284   7.678   6.612  13.426  0.0027  0.0150 -0.0203
10085W        W12285   1.301   0.461  20.547 -0.0779 -0.2108 -0.2325
10086W        W12286   7.476   1.391   9.510  0.0573  0.0873 -0.3889
10087W        W12287  14.356   0.955  32.409 -0.2915 -0.1858 -0.1925
10088W        W12288   9.326   1.435  17.228  0.1548  0.0760 -0.1015
10089W        W12289  19.150   1.135  32.299 -0.0128 -0.0594 -0.1521
10090W        W12290  20.209   5.365   4.848 -0.3050 -0.1427 -0.3439
10091W        W12291   4.658   5.881  16.216 -0.3105  0.3202  0.0185
10092W        W12292   4.398   3.649  14.403 -0.0782 -0.0938  0.1996
10093W        W12293   4.471   7.157  11.887 -0.1750  0.3178  0.0816
10094W        W12294  19.270   2.974  26.649 -0.1751  0.2659  0.3165
10095W        W12295   0.325   4.674  11.377 -0.1651  0.0148 -0.2501
10096W        W12296  17.255   5.019  24.532  0.0293  0.1470  0.1650
10097W        W12297  23.327   0.192  31.293 -0.1720  0.0349  0.1822
10098W        W12298   7.964   7.662   4.482  0.2000 -0.2262 -0.1411
10099W        W12299  10.176   0.116  10.265 -0.0294  0.2469 -0.0002
10100W        W12300  16.206   3.084   0.392  0.0598  0.2706 -0.0770
10101W        W12301   7.992   2.550   8.620 -0.1846  0.3121 -0.3412
10102W        W12302  11.355   5.257  11.856 -0.0245 -0.0004 -0.0476
10103W        W12303   3.150   7.046  24.322  0.0235  0.1970  0.1484
10104W        W12304   4.981   3.174  27.106 -0.1890 -0.1155 -0.1331
10105W        W12305   7.646   1.812   6.503  0.0932 -0.2340 -0.0223
10106W        W12306   5.339   4.274   9.004  0.2019  0.1166 -0.0497
10107W        W12307   6.154   6.699  25.965  0.3215 -0.2383 -0.1631
10108W        W12308   9.095   3.881  29.806 -0.0007  0.2225 -0.0207
10109W        W12309  12.581   3.417  12.726  0.0173  0.3094  0.1488
10110W        W12310  20.546   7.128  24.586 -0.1003 -0.4246  0.2200
10111W        W12311  20.905   3.427  21.537  0.1165 -0.1398  0.2798
10112W        W12312  21.945   3.858  16.973  0.2526  0.2017  0.1898
10113W        W12313  18.411   3.614   9.718  0.0321 -0.2264 -0.1968
10114W        W12314   6.678   1.716  25.390 -0.1701 -0.1557  0.0892
10115W        W12315   9.332   0.336  13.595  0.2415  0.0978 -0.3534
10116W        W12316   0.057   6.837   4.876 -0.1581 -0.0883 -0.0892
10117W        W12317  21.109   7.224  23.999  0.0032  0.0416 -0.0176
10118W        W12318  24.494   4.184  24.700  0.1384 -0.1348 -0.2301
10119W        W12319  21.742   4.955  14.257  0.1479 -0.2400 -0.0381
10120W        W12320   9.568   1.948   5.298 -0.0060  0.0298  0.0027
10121W        W12321  19.751   7.643   8.564 -0.1486  0.0103  0.0136
10122W        W12322   8.776   0.320  13.279 -0.3199  0.0957  0.1493
10123W        W12323   9.692   2.726  10.311 -0.2405 -0.2741 -0.0711
10124W        W12324   2.639   7.698  30.204  0.1573  0.0844 -0.0361
10125W        W12325  13.227   1.621   2.625  0.1314  0.0765  0.0914
10126W        W12326  19.519   6.758  26.148 -0.1597 -0.0461  0.0320
10127W        W12327   9.185   6.742   2.265  0.2526  0.0275 -0.1222
10128W        W12328  19.319   7.099  29.494  0.1335 -0.1785  0.0099
10129W        W12329  11.222   6.944  31.467 -0.0437 -0.0305 -0.2275
10130W        W12330   4.880   0.001   5.136  0.0147 -0.0586 -0.1364
10131W        W12331  14.136   3.933  22.118  0.0407  0.1332 -0.2517
10132W        W12332   5.634   5.345   8.879  0.2127  0.0572  0.1314
10133W        W12333  12.127   5.520  23.003  0.0279  0.1239 -0.0457
10134W        W12334  18.729   7.282  21.296 -0.1124  0.0428 -0.1586
10135W        W12335   8.093   2.497  30.054 -0.2055 -0.0099  0.0275
10136W        W12336  14.175   1.688  25.709 -0.1382  0.3170  0.1656
10137W        W12337  24.952   7.018  10.440 -0.2977 -0.0249  0.1920
10138W        W12338  13.176   6.291  11.289  0.0232  0.0747  0.0785
10139W        W12339   2.290   7.129   0.250  0.1340 -0.1260 -0.2184
10140W        W12340   1.958   3.524  27.808 -0.0063 -0.0602 -0.3653
10141W        W12341  23.442   5.444   4.045  0.0507 -0.0762 -0.2069
10142W        W12342   4.377   3.741  28.292 -0.0694  0.3096  0.1036
10143W        W12343   6.991   4.716  25.752 -0.1050  0.0613  0.4186
10144W        W12344   9.485   3.796  25.847 -0.0111  0.2579 -0.0306
10145W        W12345   7.536   4.608  30.362  0.1386  0.2319 -0.0049
10146W        W12346  10.256   2.469  22.419  0.0945  0.0635 -0.0043
10147W        W12347   4.652   5.074  16.259  0.0676  0.0902 -0.1029
10148W        W12348  18.097   5.951  26.484  0.0953  0.1739  0.0691
10149W        W12349   8.001   2.117  32.621 -0.0163 -0.1723 -0.1413
10150W        W12350   9.860   5.814  25.904  0.0457 -0.2319 -0.0658
10151W        W12351  13.858   3.064   6.817 -0.1066 -0.2247 -0.2441
10152W        W12352   9.180   2.291   0.918  0.1117  0.0637  0.2735
10153W        W12353  16.962   6.100   7.437  0.0728  0.1571 -0.0059
10154W        W12354  16.444   3.790   9.230  0.3485 -0.1424  0.1206
10155W        W12355   5.833   6.856  24.242  0.0098 -0.0887  0.0731
10156W        W12356  24.308   5.066   2.262  0.0059 -0.1356 -0.0899
10157W        W12357   1.809   3.626  23.544 -0.0264 -0.1933 -0.1224
10158W        W12358   0.149   4.509   0.890 -0.0225  0.2065  0.3100
10159W        W12359   8.590   4.310   9.582 -0.0700 -0.2048 -0.0162
10160W        W12360  22.260   6.876  19.993  0.0060 -0.1333 -0.1723
10161W        W12361   6.291   7.046  14.379 -0.0961  0.0989 -0.0997
10162W        W12362  24.257   5.589  16.151 -0.1849 -0.0803  0.1458
10163W        W12363  18.974   2.927  22.441  0.1310 -0.0450  0.0455
10164W        W12364  18.909   7.734   4.393  0.1204  0.0472  0.0224
10165W        W12365   4.561   2.840  30.650 -0.0901 -0.1418  0.1093
10166W        W12366   3.530   5.856   6.216  0.0211  0.0573 -0.1606
10167W        W12367   1.888   4.616  17.859 -0.0094  0.2522  0.2351
10168W        W12368  17.089   3.197  24.791 -0.0079 -0.2480  0.0909
10169W        W12369  16.369   3.397   9.543 -0.0121 -0.0385  0.2565
10170W        W12370  16.707   0.026   0.171  0.1088  0.1436 -0.2900
10171W        W12371   3.425   5.693   3.008 -0.2221 -0.4100  0.2398
10172W        W12372  14.657   0.624  27.853  0.2504 -0.2154 -0.0063
10173W        W12373  18.264   4.913   3.326  0.1792  0.3128  0.0328
10174W        W12374   4.927   2.599  22.238  0.0136  0.2118  0.0897
10175W        W12375  11.578   4.213  13.254 -0.1296 -0.1812  0.0628
10176W        W12376  18.296   3.778  19.305  0.0840  0.1420  0.2540
10177W        W12377   1.250   4.680   5.438 -0.0607 -0.4004 -0.1020
10178W        W12378   4.549   2.643   0.263 -0.0450  0.2572 -0.0037
10179W        W12379  17.721   1.444   0.244  0.2911  0.0030  0.0245
10180W        W12380   2.567   6.166  30.395  0.3068  0.0374 -0.0835
10181W        W12381  10.571   4.667   5.903  0.0433 -0.0687 -0.0246
10182W        W12382   2.042   6.776  12.079 -0.1119  0.0339 -0.0205
10183W        W12383  24.213   1.353  19.597 -0.4494  0.0358 -0.0191
10184W        W12384   0.336   7.312   8.713  0.3618  0.0611  0.4294
10185W        W12385  23.077   0.590   2.865  0.1743 -0.3978  0.0432
10186W        W12386   3.681   7.453   4.122 -0.0850  0.1471  0.0285
10187W        W12387  11.179   2.794   1.550 -0.1447  0.1485 -0.2192
10188W        W12388  12.750   7.780   0.717  0.2989  0.0027  0.3804
10189W        W12389   7.789   7.622   2.554  0.0485  0.0199  0.0938
10190W        W12390  20.178   3.673  23.306 -0.3075 -0.2342 -0.1227
10191W        W12391  24.548   1.155   3.657  0.0666 -0.2721 -0.0020
10192W        W12392   0.067   5.152   1.904  0.0242 -0.0878  0.1713
10193W        W12393  16.072   7.123   5.633  0.0821  0.0342  0.1746
10194W        W12394   9.182   6.400  17.041 -0.2946 -0.0155 -0.0330
10195W        W12395  14.499   2.974  12.220 -0.1992 -0.1580 -0.0960
10196W        W12396  17.371   3.477   4.842 -0.0459  0.0264  0.0862
10197W        W12397  24.641   4.329  22.395 -0.0752 -0.1428 -0.1267
10198W        W12398   6.899   7.185   7.371  0.0753 -0.0666 -0.0581
10199W        W12399   5.418   2.433  21.365 -0.3351  0.0042  0.1068
10200W        W12400   8.929   6.886  17.840 -0.1538  0.1895 -0.4209
10201W        W12401  17.318   7.600  27.465  0.4258 -0.1825  0.0321
10202W        W12402  17.300   2.666  16.947 -0.2038 -0.3016  0.1132
10203W        W12403  17.847   3.482  31.362 -0.1337 -0.2062  0.0428
10204W        W12404   9.411   3.955  15.886  0.1229 -0.2403 -0.1487
10205W        W12405   8.537   4.825   6.212  0.1360  0.1615  0.1676
10206W        W12406   6.661   4.028  27.877  0.1300 -0.0143 -0.2460
10207W        W12407  23.025   7.470  16.001  0.1278 -0.1045  0.3986
10208W        W12408  23.351   4.224  25.548  0.0571  0.0361  0.2866
10209W        W12409   6.784   7.698  28.750 -0.1918  0.1296 -0.1593
10210W        W12410  20.161   5.549  17.190  0.1144 -0.2740  0.0413
10211W        W12411  21.492   7.299  19.726 -0.0380  0.2191 -0.0406
10212W        W12412  12.616   4.646   3.417 -0.0763 -0.1899  0.1402
10213W        W12413   1.232   3.365  25.768  0.1194 -0.2133  0.0623
10214W        W12414   6.384   2.611  10.228  0.1183 -0.3202 -0.3197
10215W        W12415  21.901   0.781  28.920  0.0291  0.2656  0.0188
10216W        W12416  14.869   2.860  24.806  0.0730 -0.1009  0.1898
10217W        W12417  18.171   4.574   8.421 -0.0606  0.2725  0.2181
10218W        W12418  23.904   0.662  24.998  0.3482 -0.0001 -0.0008
10219W        W12419  18.480   5.788   1.493  0.0380 -0.1923  0.2247
10220W        W12420   0.615   6.781   1.678  0.1785 -0.1196 -0.4212
10221W        W12421  16.710   5.936  11.674  0.0387  0.1823  0.2245
10222W        W12422   0.046   6.338  29.347  0.0731 -0.1896  0.0477
10223W        W12423   3.778   3.722  22.048 -0.2396  0.0691  0.0360
10224W        W12424   7.358   2.915  13.845  0.1996 -0.0573 -0.0405
10225W        W12425  15.722   6.697   3.370 -0.3166 -0.0886  0.1958
10226W        W12426   4.855   4.116  25.395  0.2158 -0.1108  0.0934
10227W        W12427  15.587   3.517  22.237 -0.0149 -0.2110  0.0882
10228W        W12428   7.029   3.176  16.558  0.1722  0.0842 -0.0600
10229W        W12429   7.418   6.684  30.599 -0.2057 -0.3096  0.0377
10230W        W12430   4.323   5.821   6.809  0.0483  0.2188  0.0095
10231W        W12431  12.076   0.479   9.958  0.0364  0.0388 -0.2788
10232W        W12432  21.857   7.521   8.291 -0.2224  0.1431  0.1451
10233W        W12433  23.714   1.324  31.934 -0.1530  0.1540  0.0663
10234W        W12434  19.209   4.587   9.701 -0.3345  0.0664 -0.3097
10235W        W12435  19.241   2.665   0.741  0.5814 -0.1409  0.2208
10236W        W12436  22.419   4.931  21.027  0.0042  0.0955  0.0186
10237W        W12437   5.320   2.208  23.907  0.1803 -0.1480 -0.2094
10238W        W12438  14.963   2.681  29.726  0.0824 -0.3190  0.2673
10239W        W12439   1.435   7.569  26.332 -0.0529 -0.3273  0.1851
10240W        W12440  21.202   3.256  21.881  0.1503 -0.2919  0.0644
10241W        W12441  15.058   7.593  27.764  0.1346  0.2608 -0.2423
10242W        W12442   9.714   7.000  24.491 -0.2779  0.1209  0.1231
10243W        W12443  18.068   2.290  24.948  0.0808 -0.2197 -0.0253
10244W        W12444  19.867   2.488  29.051  0.0945 -0.1578 -0.2412
10245W        W12445   4.746   4.984  31.469 -0.3863 -0.0767 -0.2209
10246W        W12446  11.337   5.672   2.353  0.0325  0.1424 -0.1779
10247W        W12447   6.230   5.402  30.217 -0.1259  0.1329 -0.1270
10248W        W12448  17.789   3.807   0.921  0.0173  0.2208  0.0813
10249W        W12449  22.662   2.356  17.191  0.0143  0.1666  0.0625
10250W        W12450  19.514   6.293  29.998 -0.1803 -0.1703  0.1933
10251W        W12451   0.719   4.029  26.283  0.1518 -0.0619  0.0287
10252W        W12452  20.481   5.566  14.430 -0.0549 -0.3145  0.1145
10253W        W12453  23.441   7.337   7.161  0.0014 -0.4392  0.1045
10254W        W12454  19.932   2.504   1.522  0.0695 -0.0227 -0.1344
10255W        W12455  24.427   2.600  23.991  0.0228 -0.2925 -0.0919
10256W        W12456  15.396   5.262  26.610 -0.2302 -0.0563  0.0457
10257W        W12457  16.355   0.853   1.489 -0.3742  0.0470  0.0976
10258W        W12458   7.204   3.253   9.332  0.0109  0.0105  0.0211
10259W        W12459   7.093   1.636  26.805  0.1179  0.1542  0.0506
10260W        W12460  19.780   0.589   8.678 -0.0494 -0.0005 -0.0749
10261W        W12461   7.233   6.061  27.548  0.0934  0.0658 -0.1592
10262W        W12462   1.897   1.750   1.046  0.0019 -0.1151 -0.4232
10263W        W12463  21.336   7.516  25.420  0.1794  0.0921 -0.0643
10264W        W12464   3.406   6.140   2.270  0.1913 -0.4244  0.1542
10265W        W12465  24.170   5.370  10.759  0.0009 -0.0195  0.0377
10266W        W12466  18.512   1.071  31.460  0.2084 -0.0396  0.1254
10267W        W12467  19.205   2.104   0.811 -0.0896  0.0467  0.0460
10268W        W12468  15.719   5.148  11.492 -0.0678 -0.0132  0.1182
10269W        W12469  17.697   6.150  31.313 -0.1915  0.2749 -0.2867
10270W        W12470   7.443   4.097  31.876  0.0737  0.3916  0.3629
10271W        W12471  19.999   7.495  31.634  0.0717  0.0278  0.1649
10272W        W12472  14.341   1.693  22.350  0.0887 -0.1537  0.0310
10273W        W12473   9.806   6.370  11.174  0.0992  0.0511  0.1175
10274W        W12474  15.254   0.667  11.074 -0.2710 -0.2482 -0.3311
10275W        W12475  19.106   5.640  26.321 -0.0924 -0.0705  0.0706
10276W        W12476  18.732   1.987  31.669 -0.0346 -0.1332  0.0350
10277W        W12477   2.558   6.657   5.886  0.1167 -0.2286  0.2043
10278W        W12478  24.447   0.547  28.574  0.1020  0.2275 -0.0168
10279W        W12479   2.392   7.621   9.285  0.1379  0.2063 -0.2274
10280W        W12480  16.739   6.215   4.068 -0.0526 -0.1686 -0.1420
10281W        W12481  11.257   5.509   7.064  0.0835 -0.0256 -0.1049
10282W        W12482   5.406   1.455   9.946 -0.2086  0.1390  0.0825
10283W        W12483   6.764   0.044  31.400  0.3490  0.0838  0.0927
10284W        W12484   7.026   3.281   2.965 -0.1141  0.2176 -0.2262
10285W        W12485   3.859   1.041   0.952  0.1274  0.0456  0.1518
10286W        W12486  21.222   6.987  27.971 -0.3894  0.0088  0.0993
10287W        W12487  15.467   3.384  12.123 -0.0353 -0.0962 -0.0535
10288W        W12488   2.530   1.337   8.548 -0.2200  0.1590 -0.2444
10289W        W12489   4.406   5.005  21.554 -0.1623  0.1256 -0.0813
10290W        W12490   2.471   0.003  22.309 -0.1314  0.1354 -0.1158
10291W        W12491   4.749   5.551   6.374  0.2933 -0.2766  0.1302
10292W        W12492   1.418   2.304  32.279 -0.0375 -0.1043  0.1996
10293W        W12493   4.451   1.323  28.310  0.1180 -0.4093 -0.0350
10294W        W12494  23.089   0.547  31.012 -0.0366  0.1602 -0.1850
10295W        W12495  14.957   4.457  23.975 -0.1879 -0.1356  0.1041
10296W        W12496  14.664   4.398   8.548  0.1025 -0.1082  0.3734
10297W        W12497   8.339   4.421  14.399  0.0249 -0.1540  0.0609
10298W        W12498  23.434   0.529  26.800  0.2190  0.0025 -0.0832
10299W        W12499   1.829   3.245   3.939  0.4423 -0.1627 -0.0846
10300W        W12500   8.732   7.711  16.210  0.0573 -0.2219  0.1355
10301W        W12501   4.929   6.911   0.197  0.0127  0.1147  0.3040
10302W        W12502  14.396   4.512   5.840  0.2769 -0.0765  0.0205
10303W        W12503  22.860   3.747  20.094  0.0833 -0.0997  0.1488
10304W        W12504   6.786   2.603  29.651 -0.0302  0.2056  0.0301
10305W        W12505  24.457   5.016  21.705 -0.0859 -0.1366 -0.2984
10306W        W12506   8.249   4.566  27.218  0.2091 -0.1193  0.1164
10307W        W12507  15.159   4.768  11.952 -0.0192  0.0901  0.2533
10308W        W12508  21.711   1.591  25.154 -0.1659  0.2527  0.2097
10309W        W12509  11.705   1.754  15.903  0.0661  0.4863  0.0360
10310W        W12510  18.378   1.163   3.424 -0.1631 -0.2636  0.1815
10311W        W12511   4.177   3.695  11.369  0.0140 -0.1538 -0.0686
10312W        W12512  20.766   3.434  21.043  0.3879 -0.0348  0.1229
10313W        W12513   8.572   0.677  28.849  0.1163 -0.3856  0.1115
10314W        W12514  20.410   2.191  17.048 -0.2152  0.4283 -0.1937
10315W        W12515  11.879   5.257   9.481 -0.0462  0.0899 -0.0248
10316W        W12516  21.247   6.358  22.392  0.0537 -0.0090 -0.1115
10317W        W12517  24.457   4.130  21.583  0.0370  0.0177  0.1533
10318W        W12518   4.866   0.099   4.598  0.2150  0.2315  0.0813
10319W        W12519  17.964   4.563  27.236 -0.1299 -0.2049 -0.0930
10320W        W12520  17.419   3.762  24.758  0.0286  0.1201 -0.1620
10321W        W12521  10.902   7.048  26.068 -0.0158 -0.0645 -0.1580
10322W        W12522  24.352   4.340  25.143 -0.0096 -0.1838 -0.1382
10323W        W12523   1.093   3.190  30.982 -0.1636 -0.1041 -0.1887
10324W        W12524   0.462   1.992  17.884  0.2814  0.2860  0.0040
10325W        W12525  17.197   6.609   9.100 -0.1640 -0.2964 -0.0518
10326W        W12526  13.239   1.824  24.712 -0.0168 -0.0591  0.0777
10327W        W12527  24.292   0.440  23.193 -0.1104 -0.0748  0.3625
10328W        W12528   8.636   6.054  16.279 -0.0225  0.2138 -0.2847
10329W        W12529  24.057   2.924  27.541 -0.1695 -0.1708  0.5296
10330W        W12530   5.203   1.998   2.966 -0.0859 -0.0169 -0.2588
10331W        W12531  23.851   2.216  21.190  0.3073  0.2885  0.1811
10332W        W12532  15.330   6.638  12.011  0.0923 -0.2661  0.1333
10333W        W12533   9.936   7.400   5.046  0.0578 -0.1690  0.3554
10334W        W12534   0.067   4.237   8.577  0.2236  0.0909  0.2627
10335W        W12535  22.033   0.300  23.821 -0.0655 -0.0118 -0.1524
10336W        W12536  21.861   7.360  18.855 -0.1675 -0.1047 -0.2782
10337W        W12537  13.802   1.253   4.163 -0.2034  0.4363  0.0019
10338W        W12538  13.645   3.472   2.041 -0.0531 -0.2274 -0.0676
10339W        W12539   2.897   1.314   7.591 -0.3227  0.0107 -0.2714
10340W        W12540  17.672   6.296  26.545 -0.0462 -0.1649  0.1818
10341W        W12541   4.161   1.173  26.129  0.0692 -0.0091  0.3376
10342W        W12542   6.656   6.962   2.143 -0.0058  0.3764  0.1019
10343W        W12543   1.915   4.777   2.689  0.2675  0.2276  0.2138
10344W        W12544  11.652   7.657  29.001 -0.0667 -0.0980  0.2026
10345W        W12545   5.861   1.543   0.905  0.2375 -0.4439  0.1520
10346W        W12546  15.251   4.997  27.289  0.1981 -0.2011  0.2521
10347W        W12547  20.931   2.436  29.513 -0.1321 -0.1231 -0.0219
10348W        W12548  15.746   5.984  27.006 -0.3099 -0.2618  0.1274
10349W        W12549  12.332   5.658   3.471 -0.0811 -0.0366  0.1303
10350W        W12550   9.030   5.940  16.897 -0.1423  0.0027 -0.3497
10351W        W12551   4.177   4.459  31.208 -0.1924  0.1563 -0.0423
10352W        W12552   0.053   5.630   6.975 -0.1995 -0.3645 -0.0786
10353W        W12553  11.891   0.867  22.494  0.0328  0.2110  0.1520
10354W        W12554   9.348   5.867  29.612 -0.0991 -0.3898  0.0166
10355W        W12555  12.929   2.953  11.761  0.2386 -0.0231  0.1474
10356W        W12556  18.865   6.921   4.243 -0.3406  0.0292  0.1389
10357W        W12557  20.842   2.190   2.545  0.2129  0.1664  0.2487
10358W        W12558   2.725   0.653  26.802  0.0184  0.3427  0.1709
10359W        W12559  16.193   3.681  20.751 -0.0829 -0.3329  0.0447
10360W        W12560  24.999   2.667   5.501  0.0027 -0.1845 -0.1652
10361W        W12561   5.398   7.083   6.513  0.0291 -0.0395  0.2295
10362W        W12562   7.158   1.101  24.411 -0.1784  0.0712 -0.1120
10363W        W12563  22.741   1.932  17.495 -0.0108  0.0743  0.2986
10364W        W12564  15.593   1.153  25.959 -0.1209  0.0029  0.0555
10365W        W12565   7.329   0.911   9.805  0.4283  0.1935  0.0941
10366W        W12566  20.553   1.118  15.508 -0.0570 -0.2147  0.2804
10367W        W12567  13.713   1.331  11.997 -0.0813  0.2276 -0.1889
10368W        W12568  20.085   6.085  17.089 -0.2347 -0.2477 -0.2240
10369W        W12569  20.173   4.591   1.487  0.3811  0.2240  0.0383
10370W        W12570   7.794   3.688  21.706 -0.0901 -0.2010  0.3236
10371W        W12571  23.589   4.614   8.796 -0.1404 -0.2125  0.0881
10372W        W12572   2.766   7.801  23.592  0.0282  0.1537 -0.0373
10373W        W12573  17.106   4.170   8.842  0.1727  0.2032  0.0601
10374W        W12574   9.244   3.858  19.059  0.0232 -0.0003 -0.1299
10375W        W12575  21.039   0.275  30.340 -0.0132  0.0588 -0.2225
10376W        W12576  10.929   3.262  22.074  0.0639 -0.1295 -0.2737
10377W        W12577  17.644   5.576  20.284  0.1769 -0.2121  0.1304
10378W        W12578  24.724   0.198  29.888  0.1277  0.1241  0.1312
10379W        W12579   7.817   0.234  17.991  0.0360 -0.1983 -0.0495
10380W        W12580   1.518   7.677  30.405 -0.0629  0.3140  0.3798
10381W        W12581  19.889   2.599   6.044  0.2286 -0.1301 -0.1303
10382W        W12582  15.273   7.120   1.054  0.1265 -0.0089  0.0530
10383W        W12583  19.821   7.017   4.519  0.1890  0.1452 -0.1268
10384W        W12584  18.766   3.110  21.535  0.0345 -0.2531  0.0342
10385W        W12585  18.028   4.581  17.205 -0.0602  0.2387 -0.1753
10386W        W12586   1.011   3.997   6.278  0.0745  0.1410  0.0096
10387W        W12587  15.500   4.050  22.924  0.2592 -0.0580 -0.5777
10388W        W12588   5.534   4.170  23.721 -0.1027 -0.0348 -0.0769
10389W        W12589   6.583   6.274  16.594  0.0200  0.0237  0.0449
10390W        W12590  20.466   0.995   1.350  0.2726 -0.2523 -0.2575
10391W        W12591  14.471   5.541   2.812  0.3610 -0.1430 -0.2164
10392W        W12592  12.502   5.063   4.290  0.1639 -0.2304  0.1370
10393W        W12593  15.348   4.526  24.331  0.1225  0.1377  0.0426
10394W        W12594  10.142   2.536   5.761 -0.1922 -0.1138 -0.0113
10395W        W12595  22.526   4.631  22.658 -0.1734  0.1361 -0.1681
10396W        W12596  20.265   3.328   1.560  0.2003 -0.0610 -0.0409
10397W        W12597   4.107   4.129   9.320 -0.1756  0.1974 -0.2399
10398W        W12598  20.247   7.684  15.930  0.1115 -0.0085 -0.3109
10399W        W12599  20.725   5.575  22.556  0.1680  0.1288  0.1887
10400W        W12600  10.580   1.442  15.045 -0.0785 -0.1469 -0.0738
10401W        W12601  17.041   6.931   8.198 -0.2222  0.0181 -0.2560
10402W        W12602   0.660   3.651  22.811 -0.1049 -0.0399  0.0756
10403W        W12603  17.653   3.155  22.475 -0.0261 -0.1563  0.0862
10404W        W12604  11.288   4.380  16.804  0.0017  0.2362  0.1068
10405W        W12605   5.759   4.579   2.735 -0.1633  0.2467  0.0861
10406W        W12606  22.783   0.489   9.576  0.0890 -0.0978  0.0967
10407W        W12607  10.691   6.531  26.301 -0.2591 -0.1207 -0.0690
10408W        W12608  11.343   5.393   2.993 -0.0132 -0.0696  0.1903
10409W        W12609   5.112   4.940   6.133 -0.1075 -0.2333  0.1709
10410W        W12610  23.080   1.867   9.929 -0.1783  0.1096  0.1167
10411W        W12611  10.675   2.589   2.792  0.0605  0.0608  0.0829
10412W        W12612   8.190   0.481  15.699 -0.0128 -0.1837  0.0728
10413W        W12613   1.507   6.597  24.885 -0.2172  0.0416 -0.0892
10414W        W12614  21.587   7.153   8.076 -0.1533  0.2740 -0.0395
10415W        W12615   6.084   4.617  23.077  0.1584 -0.2002  0.1475
10416W        W12616   2.803   5.857  28.478 -0.0215 -0.1506 -0.0100
10417W        W12617   2.352   7.212   1.133  0.1903  0.3405 -0.2549
10418W        W12618   0.646   7.111   7.459 -0.0626  0.0447 -0.2889
10419W        W12619  23.068   0.784  10.643  0.2393 -0.0694 -0.1501
10420W        W12620   5.008   1.095  11.481  0.0139  0.0347  0.1376
10421W        W12621  20.082   0.092   7.191 -0.0842  0.2972 -0.0050
10422W        W12622   2.537   5.393   1.440 -0.0215  0.0332  0.0212
10423W        W12623  13.631   5.551  22.933 -0.0740  0.0199 -0.1673
10424W        W12624  12.469   5.455  12.981  0.0834 -0.0766  0.0593
10425W        W12625   7.102   1.399  15.248  0.1952  0.0934 -0.1241
10426W        W12626  18.077   7.561   4.893 -0.1223  0.1615 -0.3086
10427W        W12627   0.859   0.540  31.850  0.2925  0.0093 -0.2411
10428W        W12628  15.592   0.528   2.252 -0.0275  0.0254  0.2247
10429W        W12629  20.543   7.208   6.936  0.2574 -0.2110 -0.0784
10430W        W12630  13.152   3.334   1.823  0.0365  0.0578 -0.1940
10431W        W12631  24.087   6.534   3.250 -0.0670  0.4110 -0.2439
10432W        W12632   9.582   3.931  16.702 -0.0798 -0.2406 -0.0800
10433W        W12633  17.662   1.207   4.220 -0.5241  0.0241 -0.0489
10434W        W12634  15.980   4.181  23.126  0.1861 -0.0852  0.2281
10435W        W12635   3.094   6.426  13.444  0.0599 -0.2265  0.1780
10436W        W12636   9.545   0.127  15.594 -0.1922  0.2330  0.0427
10437W        W12637  14.088   3.893   7.836 -0.1695 -0.2478 -0.0786
10438W        W12638  19.570   4.443   1.282 -0.0360 -0.0075 -0.1795
10439W        W12639  11.347   1.959   4.088 -0.2925 -0.4529  0.0475
10440W        W12640   4.048   5.724  29.216 -0.0269  0.0116 -0.1917
10441W        W12641   2.145   2.162   3.677 -0.0544 -0.1767 -0.2419
10442W        W12642   8.643   5.574   5.142  0.2625 -0.1229 -0.0788
10443W        W12643  17.499   2.972  29.765 -0.0236  0.0023 -0.1245
10444W        W12644  20.191   0.481   0.514 -0.1763  0.0389  0.1003
10445W        W12645  20.266   6.278   9.808  0.1525 -0.0214  0.2297
10446W        W12646   9.912   1.706  16.211  0.1300 -0.1843 -0.3018
10447W        W12647  19.714   1.691  26.964  0.2119 -0.2912 -0.1456
10448W        W12648  25.015   5.939  25.161 -0.1194 -0.0950  0.0565
10449W        W12649  15.234   7.430  24.354  0.3200  0.0765  0.0911
10450W        W12650   2.165   5.987  32.192 -0.0423 -0.0771  0.1637
10451W        W12651   0.633   7.313  32.013 -0.1424 -0.0108 -0.1132
10452W        W12652   2.520   7.329  24.381 -0.1177 -0.1767 -0.0516
10453W        W12653  22.406   3.631   6.058  0.2683  0.0386 -0.3572
10454W        W12654   2.977   7.319   9.415  0.0552 -0.2089 -0.0001
10455W        W12655  18.650   7.050  10.502 -0.1419 -0.0401 -0.0874
10456W        W12656  22.155   3.925   2.412  0.0539  0.0344  0.0596
10457W        W12657  10.598   5.504  24.579  0.0476  0.1346  0.1404
10458W        W12658   7.399   1.367   3.666  0.1481  0.1238  0.1710
10459W        W12659   3.046   7.381  11.414 -0.2837  0.1099  0.1538
10460W        W12660   7.003   1.867   7.291 -0.4500  0.1521  0.0324
10461W        W12661   4.963   3.774   3.520  0.3989  0.2933  0.1308
10462W        W12662  12.744   4.352  23.326 -0.0102  0.1692 -0.0457
10463W        W12663  20.243   1.697   3.742  0.1644 -0.3682  0.1310
10464W        W12664   7.149   4.816  11.719 -0.0729  0.1190 -0.0915
10465W        W12665   9.653   7.777  15.138 -0.0411 -0.0112  0.1807
10466W        W12666  17.755   3.509  31.896 -0.0268 -0.0662 -0.2705
10467W        W12667  14.719   3.897  29.451  0.3554 -0.2689  0.1819
10468W        W12668   8.699   1.436   2.685  0.0782 -0.0127  0.0501
10469W        W12669  19.305   6.505   4.915 -0.0127 -0.0641  0.0301
10470W        W12670  16.165   4.032   5.918  0.2429  0.0223 -0.0913
10471W        W12671   6.809   6.935   8.730  0.0485  0.0810  0.1716
10472W        W12672   4.386   3.162  22.626  0.0056 -0.2802 -0.0264
10473W        W12673   0.377   6.068  20.149 -0.1628  0.1345 -0.1147
10474W        W12674   6.213   0.112  27.306  0.0022  0.1151 -0.1691
10475W        W12675   4.761   5.604  29.883  0.1903  0.0989  0.1190
10476W        W12676  24.989   4.473  30.905  0.1172  0.2334 -0.0688
10477W        W12677  23.998   1.668  20.649 -0.3370  0.3371  0.1052
10478W        W12678  13.890   0.047   0.589 -0.3336  0.0533  0.2839
10479W        W12679   6.786   5.478  17.237  0.1498 -0.0840  0.1959
10480W        W12680   5.338   0.033  12.702  0.2277 -0.0631  0.2957
10481W        W12681   9.573   4.247  32.038 -0.0315  0.0829  0.1851
10482W        W12682  16.514   0.211   5.354  0.1238  0.0017 -0.1685
10483W        W12683  14.800   6.761  19.640  0.0413  0.2100 -0.0539
10484W        W12684   5.974   2.207  23.424 -0.2919 -0.2259 -0.3956
10485W        W12685   2.748   5.259   0.531 -0.1081  0.2719 -0.0258
10486W        W12686  20.098   2.753   0.708  0.0666  0.2017 -0.0835
10487W        W12687   7.871   1.442  24.024 -0.2006  0.0774  0.2116
10488W        W12688  20.858   2.518  19.292 -0.0115  0.1118  0.0031
10489W        W12689  13.923   4.199  20.770  0.1115 -0.1954 -0.1071
10490W        W12690  22.953   4.684   9.667  0.0414 -0.1031 -0.1362
10491W        W12691  15.913   2.301   7.002 -0.3240  0.1050 -0.3083
10492W        W12692   7.682   5.767  16.160 -0.4920 -0.0466 -0.0496
10493W        W12693  17.938   5.030  19.746 -0.1863 -0.0362  0.4055
10494W        W12694   7.265   4.577   4.733  0.0243 -0.0499 -0.1861
10495W        W12695   7.536   2.320  28.622 -0.1828 -0.1813  0.0465
10496W        W12696   7.978   7.033   8.149  0.1370 -0.2341 -0.0139
10497W        W12697  16.343   7.379  29.153 -0.2741 -0.0103  0.0894
10498W        W12698  19.640   3.179  25.145 -0.1230  0.0416 -0.0405
10499W        W12699  18.599   2.747   5.752 -0.0499 -0.0987 -0.1945
10500W        W12700  17.234   6.715  31.822 -0.0304 -0.0496  0.0152
10501W        W12701  15.410   4.398   6.125  0.1116 -0.1813  0.0642
10502W        W12702  20.494   5.250  22.783  0.1994 -0.0846  0.0055
10503W        W12703  10.990   1.333  24.467  0.0458  0.2283 -0.0117
10504W        W12704  17.841   3.819   8.473 -0.1060  0.0079  0.1709
10505W        W12705   5.430   2.050  14.773  0.1666  0.0465 -0.2638
10506W        W12706   2.398   2.989   7.780 -0.0721 -0.1071 -0.0415
10507W        W12707  24.761   5.161   1.232  0.0941 -0.1355 -0.2052
10508W        W12708  12.764   0.103  25.241  0.1299 -0.2799  0.0623
10509W        W12709   0.154   1.164  22.724  0.1878  0.2238 -0.0699
10510W        W12710  19.041   3.214  26.180  0.0879  0.1386  0.2602
10511W        W12711  24.884   4.552  32.542  0.0536 -0.1243  0.0095
10512W        W12712  19.719   7.033   3.184 -0.1144 -0.0503 -0.1983
10513W        W12713  18.490   1.575  32.119  0.2459  0.1086 -0.1619
10514W        W12714   2.254   1.962  12.267 -0.0641  0.0449  0.1064
10515W        W12715  23.665   7.005  16.169  0.3234  0.2466  0.1707
10516W        W12716  24.438   1.403  24.546  0.1026  0.0399  0.1522
10517W        W12717  22.520   0.096  18.820 -0.3430 -0.0510 -0.2618
10518W        W12718   1.171   0.684   5.627 -0.1395  0.3871 -0.0904
10519W        W12719   7.624   5.782  25.309 -0.4901  0.0720  0.2053
10520W        W12720  24.242   1.298   8.188 -0.0002  0.0371  0.0635
10521W        W12721  21.624   0.336  30.272 -0.3177 -0.1166 -0.0654
10522W        W12722   8.168   6.092   8.107 -0.0313 -0.2086 -0.2404
10523W        W12723  16.919   5.070  17.483  0.0325 -0.0251 -0.0031
10524W        W12724  17.279   5.095  26.763  0.0216 -0.0200 -0.1010
10525W        W12725  22.544   6.772   8.076 -0.2322 -0.2142  0.0057
10526W        W12726  20.755   0.170  22.360 -0.1987  0.0584 -0.2290
10527W        W12727   1.059   5.010  32.207 -0.0035 -0.0635 -0.0512
10528W        W12728  15.916   0.788   2.617  0.3798  0.1219  0.2913
10529W        W12729  13.906   3.453   0.200  0.0103  0.0083 -0.0304
10530W        W12730   5.665   5.169  30.385  0.1551  0.0326 -0.0927
10531W        W12731  17.875   2.880  21.998 -0.0112  0.1755  0.1118
10532W        W12732  14.824   1.476  22.367  0.1288 -0.1331  0.3234
10533W        W12733   9.837   6.702   1.101 -0.0419  0.2263 -0.3784
10534W        W12734  12.059   0.226  30.312 -0.2179  0.1325  0.3298
10535W        W12735   3.584   4.120  13.218 -0.4012 -0.1132 -0.1887
10536W        W12736   3.691   1.822  31.491 -0.1474 -0.2212  0.0649
10537W        W12737   5.961   3.729   2.808 -0.1375  0.0759  0.2457
10538W        W12738  24.170   3.599  15.548 -0.1576 -0.1421 -0.4096
10539W        W12739   4.628   6.545   1.843 -0.1428 -0.1657 -0.2054
10540W        W12740   0.672   1.101  29.938 -0.0322 -0.0028  0.0670
10541W        W12741  24.889   5.284   8.674 -0.1563 -0.1453  0.1697
10542W        W12742  20.520   3.423   4.950  0.1261 -0.0053 -0.0404
10543W        W12743  18.073   4.003  23.746 -0.0568  0.2437  0.1219
10544W        W12744  24.394   1.797   7.341 -0.0637 -0.0920 -0.0309
10545W        W12745  24.368   1.435  29.695  0.1328  0.0715  0.0586
10546W        W12746   5.688   4.912   4.450  0.1814 -0.1039 -0.1018
10547W        W12747  15.145   7.297   4.690 -0.2182 -0.0001 -0.0981
10548W        W12748  12.783   3.670  22.803  0.1202 -0.1576  0.0951
10549W        W12749  24.964   0.589  28.622  0.0521 -0.2756 -0.0594
10550W        W12750  10.010   0.590  18.417  0.1859  0.1553 -0.0470
10551W        W12751   0.149   0.803  26.535 -0.1179  0.5106 -0.1517
10552W        W12752  23.987   4.118  24.710  0.1681 -0.1216 -0.0468
10553W        W12753  10.155   0.642  12.133  0.0177 -0.2469  0.0785
10554W        W12754   1.818   0.605  28.751 -0.1747 -0.2889  0.0156
10555W        W12755  13.121   2.267  21.123 -0.2708 -0.1160  0.1091
10556W        W12756   1.656   2.111  11.203  0.0358  0.1359  0.2649
10557W        W12757  16.057   2.355   6.464  0.1368  0.0052  0.0587
10558W        W12758   6.933   5.197   1.501  0.1229 -0.0132  0.0027
10559W        W12759   2.247   3.929   0.583  0.0869 -0.1146  0.1583
10560W        W12760  22.786   0.391  21.500 -0.1246 -0.2136  0.3820
10561W        W12761   0.695   5.078   0.126 -0.0180 -0.0614 -0.1167
10562W        W12762   6.793   2.313  30.827  0.0058 -0.0895 -0.2025
10563W        W12763  19.309   6.620  31.922 -0.1059 -0.0495 -0.1541
10564W        W12764  23.142   0.608   8.691 -0.2202  0.2488 -0.1686
10565W        W12765   2.161   0.133  25.642  0.0339  0.0760 -0.1194
10566W        W12766   2.728   2.617  19.291  0.2716 -0.1684 -0.0157
10567W        W12767  18.482   4.357  17.336  0.1149 -0.0343  0.0593
10568W        W12768  13.022   2.532  28.536 -0.1721 -0.0660 -0.1870
10569W        W12769   1.578   4.012   8.454  0.2878  0.2406 -0.1923
10570W        W12770   7.542   1.367  22.429  0.3299 -0.4015  0.1505
10571W        W12771   5.356   5.010   5.028  0.0029  0.0086  0.1750
10572W        W12772   9.125   3.072  13.293 -0.0497 -0.0192 -0.1203
10573W        W12773  13.469   7.049   7.495 -0.1026  0.0069 -0.1609
10574W        W12774   8.446   1.690  27.635  0.0791 -0.1528 -0.2362
10575W        W12775  14.299   6.786  29.102  0.3519  0.2516 -0.0838
10576W        W12776  15.330   5.180  20.096 -0.1925  0.1600 -0.3354
10577W        W12777  22.233   3.459  18.595 -0.1067 -0.0640 -0.1223
10578W        W12778  17.457   0.390  31.320 -0.0566 -0.1608  0.1551
10579W        W12779  14.119   1.568  29.809 -0.0101 -0.0639 -0.0054
10580W        W12780  21.934   1.264  32.193  0.0746 -0.0009 -0.1871
10581W        W12781  25.023   7.009  29.927 -0.2516  0.0165 -0.2715
10582W        W12782  19.982   6.038  24.536 -0.1230 -0.3567  0.0204
10583W        W12783   0.247   3.501  16.568 -0.3755 -0.1685  0.0847
10584W        W12784   0.811   2.272  32.132 -0.2474  0.1023 -0.1441
10585W        W12785  15.620   1.342   7.623  0.0325 -0.3894 -0.0474
10586W        W12786  15.974   0.743  28.623 -0.2499 -0.0452  0.1571
10587W        W12787   6.314   5.983  30.214  0.3054  0.1275 -0.0999
10588W        W12788  12.654   2.109   0.626  0.2461  0.0651  0.3563
10589W        W12789  23.854   1.736  30.243 -0.0282  0.0588 -0.1253
10590W        W12790  16.880   3.749   2.661  0.1047  0.0080 -0.1763
10591W        W12791   1.847   5.010  23.782 -0.1675 -0.0699 -0.0919
10592W        W12792   1.965   5.802   4.148  0.0868 -0.0856 -0.0807
10593W        W12793   8.088   6.397  29.248  0.0226 -0.2129 -0.1776
10594W        W12794   9.111   3.372  14.931  0.3630 -0.1356  0.1452
10595W        W12795  15.934   3.543  27.919 -0.4173 -0.0641  0.1810
10596W        W12796   1.090   4.254   8.451  0.0229 -0.2774 -0.2995
10597W        W12797  15.618   4.143   2.821  0.1550  0.1991  0.2588
10598W        W12798  13.354   6.898  26.419  0.0748 -0.0180 -0.1616
10599W        W12799   8.264   6.155  29.660 -0.0546 -0.0585  0.1205
10600W        W12800  12.933   6.298   6.037 -0.1037  0.1167 -0.1666
10601W        W12801  21.558   0.948   5.042 -0.0565  0.0850  0.0428
10602W        W12802   5.681   3.722   2.358 -0.0089  0.0896 -0.1656
10603W        W12803   0.773   0.272   7.788  0.1206  0.1944 -0.3285
10604W        W12804  19.199   6.529   8.078  0.2967 -0.0698 -0.0978
10605W        W12805   2.862   1.835  24.079 -0.0094  0.1435 -0.0191
10606W        W12806  15.956   2.652   2.762 -0.0953 -0.2106  0.1102
10607W        W12807   2.194   0.443  10.659 -0.0059  0.1519  0.2066
10608W        W12808  18.042   1.348  10.155  0.1869 -0.3299  0.1616
10609W        W12809  10.592   6.274  31.068  0.2625 -0.0853 -0.0390
10610W        W12810   0.067   0.553   5.543 -0.1194 -0.0049 -0.0693
10611W        W12811  18.477   0.874   9.185  0.0875 -0.2181 -0.0245
10612W        W12812   8.228   5.830   5.014  0.0163 -0.2531  0.1952
10613W        W12813   5.333   4.842  13.695  0.3014  0.1839 -0.1125
10614W        W12814  10.450   2.916   0.529  0.4897 -0.0182 -0.1150
10615W        W12815   5.067   1.324   6.450  0.0280 -0.2139  0.1668
10616W        W12816   6.226   6.120   3.564  0.1153  0.2401  0.0012
10617W        W12817   4.253   3.009  32.413 -0.0573  0.0886  0.0365
10618W        W12818   4.929   3.097  21.430 -0.0126 -0.1377  0.2391
10619W        W12819  23.113   5.185  31.440 -0.0186 -0.1115  0.3525
10620W        W12820  11.307   4.596   5.514 -0.3664  0.1233  0.0186
10621W        W12821  11.175   1.869  27.391 -0.1701  0.1306  0.1682
10622W        W12822   6.464   1.721  17.612  0.0805  0.4119 -0.0533
10623W        W12823   2.714   3.297  28.618  0.3363 -0.1315  0.3297
10624W        W12824  21.987   5.349   8.176  0.1472 -0.0551 -0.2296
10625W        W12825   5.709   3.825  10.948 -0.2057  0.0171 -0.2384
10626W        W12826  13.544   0.822  23.499  0.1400 -0.0645  0.0099
10627W        W12827  10.978   0.728  25.170 -0.0909  0.1753  0.0003
10628W        W12828   7.737   7.042  30.368 -0.0960  0.1856  0.1080
10629W        W12829  11.933   6.837  15.725  0.1483  0.1947  0.1141
10630W        W12830   3.949   7.446  31.190 -0.1134  0.0304  0.0328
10631W        W12831   8.279   3.383  14.432 -0.3187  0.0938  0.0473
10632W        W12832  12.122   4.676  11.480 -0.2786  0.1419  0.1445
10633W        W12833  21.665   2.911  17.083 -0.2049 -0.1123 -0.0418
10634W        W12834   1.331   6.733  32.500  0.2407 -0.0195 -0.0453
10635W        W12835   9.322   5.720  12.476  0.6161  0.1910  0.0494
10636W        W12836  21.806   3.496   0.193 -0.1267 -0.2005 -0.2414
10637W        W12837   0.097   6.432  23.187 -0.3356 -0.1949 -0.0870
10638W        W12838  22.581   7.675  16.311  0.1227 -0.1712  0.0474
10639W        W12839  22.350   3.853  26.463 -0.2933  0.0753 -0.2499
10640W        W12840  24.752   0.931   7.678 -0.0171  0.1028 -0.4843
10641W        W12841   1.910   3.178  25.274 -0.1718 -0.0384 -0.0849
10642W        W12842   6.567   4.470  13.116 -0.1223 -0.2915 -0.0006
10643W        W12843  14.540   5.382  31.630  0.0152  0.0755  0.2318
10644W        W12844  11.420   4.752  23.239  0.0779 -0.0186  0.2967
10645W        W12845  13.283   4.399  23.328  0.1362 -0.0795  0.3609
10646W        W12846  22.781   4.996  16.931 -0.1335 -0.0339 -0.4478
10647W        W12847  12.272   6.326   1.059  0.3056  0.0868  0.1221
10648W        W12848  21.842   0.714  29.402  0.1863  0.0340  0.1379
10649W        W12849  16.285   3.414  11.775 -0.0963 -0.1127  0.2839
10650W        W12850  24.313   6.423   6.777 -0.1099  0.1953 -0.0261
10651W        W12851  22.129   7.418   1.918  0.0150 -0.0791 -0.2482
10652W        W12852  23.827   3.678   2.464  0.0391  0.3187  0.0982
10653W        W12853   1.256   5.690  21.787  0.0193  0.1462  0.1641
10654W        W12854  14.420   6.851  10.975  0.0041 -0.3023 -0.3528
10655W        W12855   7.988   1.328  11.587  0.1273 -0.0164 -0.2306
10656W        W12856  15.838   6.779  31.950 -0.0369  0.0631 -0.0648
10657W        W12857   0.059   6.727   3.200  0.0419  0.1591 -0.1068
10658W        W12858  15.809   0.652  30.609  0.3055  0.1622  0.2112
10659W        W12859   8.976   0.489  29.544 -0.1028 -0.3421 -0.1682
10660W        W12860  19.252   2.533  24.864  0.0608 -0.3645  0.2810
10661W        W12861   5.123   4.870  10.339 -0.0561  0.0180  0.2156
10662W        W12862  23.243   0.610  26.265 -0.3127  0.2814 -0.1232
10663W        W12863  11.749   3.605  11.076  0.0778  0.0674  0.0017
10664W        W12864   0.296   1.316  20.560 -0.0005 -0.0782 -0.2314
10665W        W12865  11.870   5.172  16.037 -0.1581  0.2262  0.1961
10666W        W12866   8.484   5.836  27.045 -0.0449  0.2302 -0.1243
10667W        W12867  21.787   3.146  16.353 -0.0400 -0.1656 -0.2005
10668W        W12868   5.354   2.650  24.294 -0.3583 -0.0682  0.1187
10669W        W12869  24.325   4.485   5.347  0.0175 -0.0677 -0.3853
10670W        W12870  18.985   1.357  17.955 -0.1759  0.2205  0.2302
10671W        W12871  10.928   7.287   6.755 -0.1690 -0.0526  0.4221
10672W        W12872  20.431   1.755  21.986  0.5938  0.0574  0.1176
10673W        W12873  10.502   0.083   6.672  0.1051 -0.3749 -0.0383
10674W        W12874   1.656   2.989  11.777  0.3625  0.0349 -0.2496
10675W        W12875  13.681   6.116  24.975  0.2686 -0.0724  0.0615
10676W        W12876  18.140   6.887  20.220 -0.1839 -0.0783 -0.2191
10677W        W12877  13.165   2.115  31.862 -0.1027 -0.1030 -0.0877
10678W        W12878  10.505   7.267  32.547  0.0735  0.4457  0.0638
10679W        W12879   1.178   0.540  25.823  0.2346 -0.1604  0.0913
10680W        W12880  12.183   5.871  12.135  0.1876  0.0666  0.1065
10681W        W12881  12.155   2.636  23.063  0.0164 -0.2469  0.2049
10682W        W12882   1.894   1.478   6.817 -0.0456 -0.2533 -0.4018
10683W        W12883   7.973   0.330  17.486  0.1267  0.3165 -0.2276
10684W        W12884  11.889   2.649   4.487  0.2779 -0.1662  0.1989
10685W        W12885   3.936   5.515  11.755  0.1459  0.0692  0.0864
10686W        W12886  22.471   4.044  27.812 -0.0975  0.1020  0.0200
10687W        W12887   1.498   5.628   7.585  0.1432  0.0841  0.1191
10688W        W12888   1.142   3.123   5.319  0.0346 -0.0827 -0.0832
10689W        W12889  10.280   6.204  11.506 -0.0755 -0.1474  0.0334
10690W        W12890  15.357   3.236  21.073 -0.0528  0.0400  0.1231
10691W        W12891   7.334   0.902  23.383  0.0575 -0.1356 -0.0297
10692W        W12892   3.150   6.606   8.412 -0.1562 -0.0504 -0.0363
10693W        W12893   3.815   2.921  28.532  0.1395 -0.0617 -0.1017
10694W        W12894   2.766   1.868  31.356  0.0216  0.1119  0.1485
10695W        W12895   3.451   7.438  32.134 -0.1247  0.2238  0.0029
10696W        W12896  24.727   7.324  30.847 -0.0508 -0.1106 -0.0035
10697W        W12897   2.127   1.277  24.187  0.1042 -0.0269 -0.0924
10698W        W12898   2.855   0.005   9.942 -0.1240 -0.0599 -0.0146
10699W        W12899  14.425   2.068   1.760  0.0434 -0.0830 -0.1606
10700W        W12900  16.875   6.325  23.023  0.2032 -0.1610 -0.0843
10701W        W12901   0.247   0.245  23.352 -0.3084  0.0093 -0.1330
10702W        W12902  23.339   2.050  16.030 -0.0569 -0.2615 -0.0283
10703W        W12903   0.570   6.655  11.177 -0.0246 -0.1758 -0.1205
10704W        W12904  16.917   5.294  20.946  0.0169  0.1913 -0.1566
10705W        W12905   0.049   5.703   5.835  0.4717  0.1551 -0.0658
10706W        W12906  24.230   6.764   7.104  0.0378 -0.1314 -0.1168
10707W        W12907  11.232   4.970   6.530  0.1079  0.0442  0.0839
10708W        W12908  19.953   5.915  26.464 -0.1523  0.2658 -0.1328
10709W        W12909  22.104   6.441  30.068  0.0714 -0.0396  0.1351
10710W        W12910   3.298   3.856  14.229  0.0418  0.0126  0.1961
10711W        W12911  19.500   0.801  23.185  0.4307  0.1144  0.0290
10712W        W12912  14.757   2.019  25.835  0.1591 -0.2518 -0.0158
10713W        W12913   8.432   5.795   4.275  0.0403  0.0350 -0.2315
10714W        W12914  20.870   0.690  27.348 -0.2554  0.0060  0.3619
10715W        W12915   8.996   0.506  30.056 -0.0852 -0.1064 -0.1768
10716W        W12916  19.607   3.617  24.805 -0.1272 -0.2306  0.0903
10717W        W12917  13.448   5.306  31.221  0.2014 -0.0214 -0.0054
10718W        W12918  21.137   3.687  28.530  0.2500 -0.1713 -0.1717
10719W        W12919  21.299   3.520   8.168 -0.1020  0.1261  0.1190
10720W        W12920  10.968   4.846  31.607  0.1418  0.1801  0.2386
10721W        W12921  24.272   2.052  31.957 -0.1919  0.3517  0.1378
10722W        W12922  24.309   0.529  18.046 -0.1393 -0.0170 -0.1729
10723W        W12923   3.217   0.394  20.380 -0.0692  0.3477 -0.1300
10724W        W12924  14.442   1.349   5.706 -0.1006 -0.1213 -0.0814
10725W        W12925   2.410   3.212   0.778  0.2602 -0.2502  0.0518
10726W        W12926  24.339   0.959  23.156  0.0081 -0.0653 -0.2964
10727W        W12927  17.734   2.901  20.456 -0.1205 -0.3596  0.0397
10728W        W12928  13.371   5.636   8.732  0.2655  0.1486 -0.0282
10729W        W12929  20.653   6.206  26.109  0.2221  0.1236  0.4572
10730W        W12930  10.454   4.732  14.903  0.0081  0.1434 -0.3108
10731W        W12931  16.674   2.009   9.604  0.1297  0.0032  0.1355
10732W        W12932  12.292   7.077  14.044 -0.0172  0.1169  0.1862
10733W        W12933   3.696   7.551   6.939 -0.2782 -0.1357 -0.0827
10734W        W12934  19.588   0.799  29.034 -0.0439 -0.2419 -0.0160
10735W        W12935  24.646   5.003  30.347  0.0278 -0.0587 -0.1563
10736W        W12936   6.885   0.355  22.761 -0.0646  0.0443 -0.1711
10737W        W12937  13.387   2.423   4.594 -0.0895 -0.3045 -0.1855
10738W        W12938  12.489   4.149   3.405  0.0867  0.0556 -0.2224
10739W        W12939  21.734   7.222  28.804  0.0981  0.0144 -0.1066
10740W        W12940  24.310   5.564   4.094 -0.1459  0.0667  0.0610
10741W        W12941   7.233   3.839  10.047 -0.0582  0.3876  0.2952
10742W        W12942  24.301   2.888   4.652 -0.1052  0.0397  0.0562
10743W        W12943   2.464   7.510  20.128 -0.1251  0.0697 -0.1637
10744W        W12944   0.426   6.067  10.322 -0.0482  0.1507 -0.4969
10745W        W12945   9.902   6.858  30.771  0.0680  0.0644 -0.1110
10746W        W12946  22.790   1.897  16.916  0.1338  0.4574 -0.0769
10747W        W12947   9.259   1.016   7.482  0.2731  0.0131  0.3402
10748W        W12948  13.189   1.045   9.925  0.1588 -0.1608  0.1698
10749W        W12949  21.573   2.016  16.491  0.0696  0.1120 -0.0481
10750W        W12950   5.008   3.317  10.536 -0.1793 -0.3950 -0.0064
10751W        W12951  19.185   3.368  31.348  0.2767  0.1293  0.2607
10752W        W12952  14.657   4.923   8.074 -0.0556  0.0145 -0.0464
10753W        W12953  24.916   0.590  22.399 -0.0514  0.0945 -0.1728
10754W        W12954   7.348   0.064   6.329 -0.2050  0.3954  0.1715
10755W        W12955  20.905   5.615   5.837  0.0349 -0.1294 -0.0832
10756W        W12956   6.750   6.040  14.142  0.1827 -0.1574  0.1528
10757W        W12957  11.379   3.227  11.568  0.2512  0.0167  0.1663
10758W        W12958  17.172   3.301  31.798 -0.1282 -0.0211 -0.3042
10759W        W12959   0.271   5.764  25.591  0.0653 -0.0683  0.1541
10760W        W12960   5.324   6.274  25.092  0.0761 -0.0192  0.1186
10761W        W12961   1.900   2.181  32.457 -0.0464  0.0130 -0.1636
10762W        W12962   1.199   2.311  11.213 -0.2791  0.0522 -0.0750
10763W        W12963  12.598   0.891   3.358  0.2444 -0.0073 -0.1499
10764W        W12964   6.944   7.346   2.385  0.0840  0.0638  0.1935
10765W        W12965   7.663   5.092  17.529  0.0904 -0.3082 -0.1210
10766W        W12966  23.187   2.224  10.421  0.0050  0.0162 -0.0138
10767W        W12967  24.270   2.212  24.285 -0.2011 -0.1803  0.2819
10768W        W12968  23.403   5.731  30.262  0.0169 -0.0746  0.0720
10769W        W12969  15.470   4.779   1.055  0.0520  0.1198  0.3219
10770W        W12970   6.114   4.001  16.454  0.3441  0.0089 -0.0618
10771W        W12971  18.606   4.730   7.162 -0.1111  0.1023  0.0148
10772W        W12972   4.660   2.680  22.644  0.2608  0.1469  0.1012
10773W        W12973   2.008   3.516   3.520  0.0964  0.0645  0.0293
10774W        W12974   6.161   3.606  24.537  0.0673 -0.5005  0.2164
10775W        W12975  17.307   7.084  18.802  0.2545 -0.3172  0.0047
10776W        W12976   6.984   2.569  28.808  0.0993  0.0877 -0.1536
10777W        W12977  13.147   4.312   0.991 -0.0094  0.0454  0.2824
10778W        W12978   9.469   2.829  11.565  0.0938 -0.1810  0.0874
10779W        W12979   4.032   5.747  32.466  0.4008 -0.3375 -0.1814
10780W        W12980   7.075   4.570  26.658  0.0023  0.1123  0.0108
10781W        W12981  17.215   0.306  30.856 -0.2348  0.0890 -0.1894
10782W        W12982  15.869   2.144   9.634 -0.2702 -0.0780  0.2995
10783W        W12983   5.107   4.184  14.474 -0.0787 -0.0508  0.0394
10784W        W12984   4.275   0.626   8.443 -0.0416  0.3106 -0.2565
10785W        W12985  19.593   1.307  15.447 -0.1285  0.1355  0.2446
10786W        W12986   1.695   0.676   9.901  0.3407 -0.0572  0.2153
10787W        W12987   5.233   0.818   5.570  0.0616  0.0889  0.2102
10788W        W12988  16.779   4.387   1.215 -0.2571  0.2401  0.1012
10789W        W12989  15.922   3.162   8.872 -0.3467 -0.0744 -0.2082
10790W        W12990   3.384   3.892  22.292  0.2379 -0.2634 -0.0729
10791W        W12991  10.654   4.900  32.082  0.0595 -0.5196  0.0679
10792W        W12992  19.201   4.095  14.786  0.0915 -0.4953 -0.3462
10793W        W12993   0.687   1.923  24.116  0.1950  0.0707  0.0822
10794W        W12994  10.770   0.014   4.598 -0.1370  0.0331  0.0606
10795W        W12995  13.133   0.500  13.464 -0.1733  0.2946 -0.2268
10796W        W12996   5.854   2.505   1.779 -0.1999 -0.2445 -0.1699
10797W        W12997   4.294   6.011  22.549 -0.4016  0.0571 -0.0203
10798W        W12998  18.263   7.196  24.578  0.0901  0.0037 -0.1720
10799W        W12999   1.210   2.345  24.355  0.2193  0.0698  0.1391
10800W        W13000   8.212   6.864  10.998 -0.0841  0.1507  0.3205
10801W        W13001  23.931   4.981  20.159 -0.1515  0.1918  0.1403
10802W        W13002  10.748   7.365   8.808 -0.4909 -0.0109  0.1098
10803W        W13003   2.813   4.247   8.037  0.0245 -0.0448  0.1485
10804W        W13004   8.887   0.209  15.864  0.1657 -0.0121 -0.0750
10805W        W13005  14.775   3.913  10.339 -0.1169  0.0654  0.0829
10806W        W13006  24.898   7.257  24.326 -0.1437 -0.0524 -0.0474
10807W        W13007   5.724   5.622  27.905  0.0500  0.0338 -0.0409
10808W        W13008   8.902   6.375  16.625 -0.2440  0.1524 -0.1032
10809W        W13009  17.094   4.088  23.128 -0.1749  0.0659 -0.2574
10810W        W13010   8.496   3.505   6.790 -0.2344  0.1723 -0.3234
10811W        W13011  20.052   6.613   2.298 -0.0911 -0.1488  0.4742
10812W        W13012  13.541   3.359  25.816  0.0397 -0.3777  0.1232
10813W        W13013  23.311   7.135  23.434 -0.0695 -0.3082  0.0629
10814W        W13014  24.460   0.195  16.405  0.0551  0.1366 -0.0601
10815W        W13015  11.574   1.153  28.202  0.4000 -0.0960 -0.0735
10816W        W13016  21.286   4.683  19.729  0.0954  0.2196 -0.0737
10817W        W13017  17.815   1.814   5.387  0.1374  0.0360 -0.2618
10818W        W13018   1.215   2.616  27.525  0.0060 -0.1191  0.0159
10819W        W13019   3.124   3.236   9.511  0.0669  0.0851 -0.0089
10820W        W13020   3.586   5.499  32.322  0.1442 -0.0606 -0.2319
10821W        W13021  12.691   7.383   8.200 -0.0485 -0.0535 -0.1312
10822W        W13022  10.893   4.867  23.272 -0.0824  0.1350  0.2531
10823W        W13023   8.111   4.617   0.939  0.0931  0.1905 -0.2751
10824W        W13024   8.768   0.389  12.223  0.3578  0.0994 -0.0089
10825W        W13025   0.469   7.575  25.139 -0.0302  0.0354  0.1795
10826W        W13026   4.062   7.087  26.428 -0.1197 -0.2109  0.1329
10827W        W13027  22.454   4.669   2.779  0.0814  0.1168  0.0465
10828W        W13028  23.699   2.629  23.652  0.0038 -0.1422 -0.0687
10829W        W13029  23.193   5.610  23.683 -0.1373 -0.0342  0.2801
10830W        W13030   9.765   4.031  14.803  0.0749 -0.3400 -0.0711
10831W        W13031   5.949   0.777   7.438 -0.2183  0.1627 -0.0868
10832W        W13032  24.877   0.880  31.763  0.3340  0.0619 -0.1660
10833W        W13033  21.083   4.661  15.631  0.1624 -0.2374 -0.0083
10834W        W13034   5.514   6.788  18.092 -0.4210 -0.2095 -0.2852
10835W        W13035   0.739   2.986  30.286 -0.0423  0.2316  0.1959
10836W        W13036   0.224   4.583   9.222  0.1488  0.0953  0.0100
10837W        W13037  13.659   2.708  27.459 -0.3418  0.0295 -0.0550
10838W        W13038  11.445   4.658  26.639  0.0494 -0.0057 -0.0410
10839W        W13039  19.480   5.207   6.237 -0.1051 -0.5025  0.0579
10840W        W13040   3.749   4.831  24.412 -0.0086 -0.0985  0.1337
10841W        W13041  18.318   4.092   3.765 -0.0274 -0.0236  0.3440
10842W        W13042   0.403   2.403  21.257  0.0923 -0.1370  0.0147
10843W        W13043  21.432   4.249  26.718  0.0093  0.0516  0.0943
10844W        W13044  22.062   3.362  25.202 -0.3052  0.2438 -0.2089
10845W        W13045  20.567   6.274  22.557  0.0672 -0.1446 -0.0895
10846W        W13046  20.287   3.112  20.068  0.1473  0.0747  0.2402
10847W        W13047  20.529   0.652  32.052 -0.0954 -0.0246  0.0007
10848W        W13048  13.294   5.445   5.710 -0.0690 -0.1197  0.1450
10849W        W13049   7.319   4.091  28.816  0.2553 -0.0076  0.1197
10850W        W13050   0.641   6.849   9.782  0.1403 -0.1692 -0.0019
10851W        W13051   1.476   7.328   5.172 -0.1223  0.0529 -0.0076
10852W        W13052  10.328   4.453  16.953  0.0209 -0.3063  0.3520
10853W        W13053  19.929   3.603  21.235  0.0013  0.2206  0.2268
10854W        W13054  10.689   2.941  24.059 -0.0176  0.0621 -0.2002
10855W        W13055  18.146   5.290   6.818  0.2413 -0.0038 -0.0323
10856W        W13056  19.701   7.529  26.926  0.1363 -0.1211 -0.2541
10857W        W13057   9.671   4.025  23.243  0.0422 -0.1015  0.2700
10858W        W13058  19.550   7.631   3.832 -0.1060 -0.0999 -0.1469
10859W        W13059   0.264   0.047   8.667  0.0297  0.2286 -0.1387
10860W        W13060   7.504   7.181   9.589 -0.2242 -0.0375  0.1999
10861W        W13061  10.480   3.329   4.668 -0.1267  0.3020 -0.2853
10862W        W13062  11.511   6.611  10.761  0.1750  0.0022 -0.1044
10863W        W13063  19.393   5.845  25.388 -0.2950 -0.0740  0.1108
10864W        W13064  11.009   2.833  15.068 -0.2113 -0.3209  0.2660
10865W        W13065  13.567   3.390  29.465  0.0490  0.2238 -0.0362
10866W        W13066  23.889   4.079   6.703  0.0323  0.2435  0.1350
10867W        W13067   4.793   1.229  23.105 -0.1653  0.3495  0.1790
10868W        W13068  23.585   4.208  27.983  0.1258 -0.0871  0.3023
10869W        W13069  10.925   4.675   4.686 -0.0013 -0.1791 -0.1735
10870W        W13070   6.098   3.222  14.278  0.0460 -0.1492  0.0795
10871W        W13071  22.468   3.149   8.930  0.1961  0.0298 -0.1400
10872W        W13072  12.541   3.413   5.427  0.0093  0.1898 -0.1074
10873W        W13073  18.710   1.123  18.442 -0.0255 -0.1013 -0.1298
10874W        W13074  23.959   7.072  17.986 -0.2722 -0.2432  0.0552
10875W        W13075   8.732   6.625  23.259  0.2593 -0.0489  0.1494
10876W        W13076  17.758   0.609   9.126 -0.1900 -0.0088  0.0894
10877W        W13077  22.513   7.146   1.708  0.0128 -0.4127  0.1814
10878W        W13078   0.770   1.630   8.315 -0.1274 -0.1209 -0.0702
10879W        W13079   3.677   4.956  30.174  0.1185  0.0704 -0.2064
10880W        W13080   8.956   2.585  30.391  0.2195 -0.2132 -0.0089
10881W        W13081  12.222   3.710  29.859 -0.1492  0.4058  0.0824
10882W        W13082  20.330   5.092  23.208  0.0596 -0.0576 -0.2150
10883W        W13083  15.812   1.178  31.215 -0.2125  0.0728 -0.1874
10884W        W13084   8.009   4.696  26.271  0.0900  0.1640  0.3516
10885W        W13085  24.288   6.886   2.694  0.3622  0.1842  0.1053
10886W        W13086  20.534   4.603  28.514  0.1829  0.0669 -0.0850
10887W        W13087  20.957   3.892  19.772 -0.2796  0.2622 -0.1535
10888W        W13088  12.503   6.176   8.710  0.0377 -0.2431 -0.1208
10889W        W13089  18.016   2.502  24.138  0.0320 -0.0699 -0.1787
10890W        W13090  13.277   0.205   4.640  0.0746  0.0532 -0.1784
10891W        W13091   0.504   6.497   6.275 -0.0127  0.3693  0.0905
10892W        W13092  14.765   5.590   6.434 -0.1306 -0.0438  0.0639
10893W        W13093  17.908   4.694   5.419  0.1515 -0.0270 -0.2509
10894W        W13094   4.970   5.904  25.486 -0.5021  0.2325 -0.2808
10895W        W13095   6.711   3.445  11.430  0.1206  0.3133  0.1962
10896W        W13096   5.444   0.401  29.819 -0.0338  0.0724 -0.1811
10897W        W13097  12.136   0.408   1.208 -0.3207 -0.2497  0.2517
10898W        W13098   2.388   0.407  31.928  0.2193  0.0415 -0.0181
10899W        W13099   2.652   6.579  27.156 -0.1033  0.1869  0.2398
10900W        W13100   7.379   2.271  14.935  0.1312 -0.0596  0.1597
10901W        W13101  20.134   1.711   7.533  0.0169  0.3127  0.0249
10902W        W13102  13.009   3.622  30.573  0.0491 -0.0790  0.2364
10903W        W13103  13.650   0.464   4.526 -0.0696  0.2276  0.0705
10904W        W13104   2.123   7.393   3.636  0.0662 -0.2634  0.1013
10905W        W13105  10.529   4.010  16.971  0.0139 -0.0220  0.0792
10906W        W13106  22.227   5.775   1.319  0.1570 -0.1396  0.1699
10907W        W13107  24.741   3.834  22.764  0.3283  0.1409 -0.0080
10908W        W13108   0.225   4.328  30.043  0.0178  0.2693  0.0281
10909W        W13109  23.356   1.590   5.642  0.2022  0.0995  0.1921
10910W        W13110   6.797   4.020   9.894 -0.1875  0.0859 -0.3113
10911W        W13111   3.006   6.546  24.338 -0.1492 -0.0973  0.0027
10912W        W13112   5.247   4.797  15.611  0.1661  0.0281  0.0546
10913W        W13113   8.399   3.521  12.925  0.0772  0.2236  0.2125
10914W        W13114  10.420   4.421   5.133  0.0065 -0.3295 -0.2827
10915W        W13115  20.190   5.844  15.592 -0.0405 -0.0536  0.1786
10916W        W13116   1.398   6.310  26.859 -0.0261 -0.0091  0.3090
10917W        W13117  17.629   3.361   1.225  0.0069  0.2169  0.2816
10918W        W13118   8.575   4.525   3.565 -0.0984 -0.1618 -0.2313
10919W        W13119   9.269   4.347  22.381  0.2000  0.1907 -0.0013
10920W        W13120  18.905   0.887  19.911 -0.1237 -0.0616 -0.0881
10921W        W13121  10.936   0.508  17.511  0.1034  0.1638 -0.1849
10922W        W13122  17.367   0.746   2.466 -0.3010 -0.1662 -0.2388
10923W        W13123   1.705   0.959   4.038 -0.0997 -0.3289  0.0043
10924W        W13124   9.969   2.380  14.321  0.0428  0.0059  0.1252
10925W        W13125  20.250   2.202   8.408  0.1686  0.1598 -0.0360
10926W        W13126  19.549   1.177   2.098  0.2157 -0.1465 -0.0470
10927W        W13127   2.422   5.940   8.633 -0.1956 -0.1564  0.0946
10928W        W13128   9.894   1.977  11.069 -0.3245 -0.2027 -0.2179
10929W        W13129   1.438   1.805  27.887  0.1171  0.1992  0.1411
10930W        W13130  23.701   1.137  10.154  0.2784 -0.2957  0.2016
10931W        W13131   2.289   5.316  20.248 -0.2401 -0.1797  0.1068
10932W        W13132  15.081   4.832   6.042  0.0375  0.0152 -0.1094
10933W        W13133  16.208   5.818  20.975  0.2190  0.0948  0.0079
10934W        W13134   0.135   1.947   5.386  0.0251  0.0236 -0.0383
10935W        W13135   0.274   7.375  15.843 -0.2410  0.0184  0.4444
10936W        W13136  21.123   2.639   0.958 -0.1676  0.0148 -0.0269
10937W        W13137  16.536   3.359  23.352  0.2863 -0.0191 -0.0505
10938W        W13138   4.657   3.919  22.384 -0.0578 -0.3009  0.2122
10939W        W13139  21.782   7.719   0.594 -0.2301 -0.2812 -0.0367
10940W        W13140   6.539   2.456  29.227 -0.0403  0.1485  0.0169
10941W        W13141   0.878   5.925   4.696 -0.0878  0.1937  0.1046
10942W        W13142   7.633   1.493   5.479 -0.1008 -0.0113  0.4340
10943W        W13143  11.172   2.751   2.791  0.2772 -0.1168 -0.0694
10944W        W13144  24.195   2.925   4.127 -0.4238 -0.4289  0.1569
10945W        W13145  23.528   4.058  29.962  0.0243 -0.0704  0.2467
10946W        W13146  21.347   5.664  21.826  0.2225  0.0194 -0.0405
10947W        W13147  10.800   5.535  25.042  0.0329  0.2097  0.1296
10948W        W13148   1.694   7.766  31.458  0.3172 -0.0695 -0.1729
10949W        W13149   3.519   6.242   1.414 -0.1014 -0.0291 -0.0238
10950W        W13150   9.807   2.937  12.347  0.1501  0.0545  0.2230
10951W        W13151  16.500   3.772  26.717  0.1344 -0.0904  0.3130
10952W        W13152   7.502   3.842  26.263 -0.1586 -0.2451 -0.2026
10953W        W13153  17.363   7.027  24.111 -0.3260  0.2458 -0.1626
10954W        W13154  17.627   5.998   6.645  0.0535 -0.0938  0.1174
10955W        W13155   6.716   6.283  17.715 -0.1045  0.1276 -0.2038
10956W        W13156  16.443   6.829   1.461 -0.0591  0.0151  0.0891
10957W        W13157  14.733   2.146  30.760 -0.1639 -0.1642  0.6542
10958W        W13158  12.077   1.574  31.736 -0.0026 -0.0596 -0.1356
10959W        W13159   1.840   5.521  25.464  0.2873  0.1798 -0.0792
10960W        W13160  21.931   4.284  17.944  0.3292  0.0036 -0.2145
10961W        W13161   1.932   4.590  10.892  0.0604 -0.0166  0.2389
10962W        W13162  17.431   5.469  28.320 -0.2756  0.0624 -0.2074
10963W        W13163  14.731   4.302   5.241 -0.2177  0.0222 -0.1235
10964W        W13164   1.674   2.633  32.589 -0.2448  0.0175  0.0515
10965W        W13165  14.708   0.828  28.771 -0.3185  0.2481  0.0576
10966W        W13166   6.217   4.100  15.684  0.1522  0.1832  0.4414
10967W        W13167   8.049   4.500  14.863 -0.1209 -0.2835 -0.0651
10968W        W13168  11.953   1.323  27.884  0.0541 -0.1831 -0.0298
10969W        W13169   0.497   3.453   4.284  0.0571  0.1527  0.1603
10970W        W13170  16.703   7.361   0.256 -0.1984 -0.0642  0.2551
10971W        W13171  18.987   5.090  20.597 -0.1924 -0.5608  0.1090
10972W        W13172  17.922   0.917   3.332  0.1778  0.0571  0.2342
10973W        W13173   0.935   0.821   8.786  0.0592  0.0775  0.0711
10974W        W13174  16.828   5.047  18.369  0.1173  0.1655 -0.2820
10975W        W13175  11.719   5.258   3.478  0.2256  0.0348  0.2381
10976W        W13176  10.836   3.292  27.900 -0.2219  0.1167  0.2957
10977W        W13177   8.902   3.244  15.423  0.2226 -0.2391  0.0006
10978W        W13178   0.497   4.160  20.512 -0.1040  0.1508  0.1021
10979W        W13179  22.344   2.210  27.804 -0.0580  0.1928  0.2635
10980W        W13180  15.267   2.847  23.444 -0.2572 -0.1168 -0.1259
10981W        W13181   1.154   6.563  21.299  0.2219 -0.0766 -0.0964
10982W        W13182  19.428   0.223  23.174 -0.0493  0.4440  0.3534
10983W        W13183  24.678   6.613  29.316  0.1976  0.2179 -0.0305
10984W        W13184   3.050   1.474   6.808 -0.0226  0.0417  0.1282
10985W        W13185   4.983   5.992  12.291 -0.0765 -0.0460  0.2661
10986W        W13186  16.954   4.197   0.321 -0.2812 -0.0140 -0.1267
10987W        W13187  17.910   6.484   7.718 -0.0509  0.1317 -0.2708
10988W        W13188  12.212   4.264  25.553 -0.3341  0.1432  0.2907
10989W        W13189   8.181   4.450  31.374  0.1390  0.0470  0.0029
10990W        W13190  22.071   5.130  25.328 -0.0839 -0.0063 -0.3168
10991W        W13191   8.387   7.679  18.772 -0.0445  0.1102  0.0445
10992W        W13192  13.028   3.173   3.059  0.1226  0.0286  0.3326
10993W        W13193   1.385   6.086  19.202 -0.2224 -0.2552 -0.1172
10994W        W13194  14.465   4.097  31.327 -0.0263 -0.1739  0.0997
10995W        W13195  14.979   6.394   9.528 -0.1415  0.1439  0.1365
10996W        W13196  10.192   7.170   1.000 -0.0525  0.1566  0.3378
10997W        W13197   4.728   2.867  25.321 -0.3680  0.2678 -0.1632
10998W        W13198   7.800   5.786  24.749 -0.2093  0.3408 -0.3257
10999W        W13199  20.507   1.613  19.493  0.4170 -0.1501  0.1339
11000W        W13200  16.299   6.229  28.680 -0.0640 -0.0026  0.2220
11001W        W13201   0.091   6.778  17.839  0.0686 -0.0935  0.1346
11002W        W13202   0.812   2.143  21.114 -0.1023 -0.4083  0.2352
11003W        W13203   6.669   4.729   5.146  0.1348 -0.0815  0.2508
11004W        W13204  19.756   0.574  17.464 -0.2532  0.0689 -0.5176
11005W        W13205   5.955   3.667   6.258  0.2873  0.1049 -0.0127
11006W        W13206  23.739   5.599  20.569  0.0580 -0.2435 -0.0594
11007W        W13207  19.159   4.184   1.157  0.0120  0.1230  0.0397
11008W        W13208  12.719   6.495   0.835  0.2032  0.1421  0.0490
11009W        W13209  11.191   2.679   4.784  0.2498 -0.0359  0.0290
11010W        W13210  12.799   6.108  26.194 -0.1482 -0.0208  0.1195
11011W        W13211  22.220   0.470  22.120  0.1335  0.0774  0.2812
11012W        W13212  24.506   5.696  20.671 -0.0983 -0.1864  0.1147
11013W        W13213  17.799   4.984  25.537  0.0574  0.0163 -0.0243
11014W        W13214  22.962   2.760  15.721 -0.0717  0.0497 -0.0729
11015W        W13215  19.595   7.328  20.805  0.3064 -0.2502  0.1363
11016W        W13216  22.947   3.418   2.625 -0.0394  0.0227 -0.1746
11017W        W13217  24.122   3.350  29.587 -0.1104 -0.0696 -0.0902
11018W        W13218  12.719   0.694  12.567  0.0041  0.1453  0.0008
11019W        W13219  23.760   5.964  31.422  0.1242 -0.6058 -0.0586
11020W        W13220  18.782   0.938  20.571  0.0570  0.0693  0.0502
11021W        W13221  21.321   4.472  25.187 -0.2132 -0.1625  0.2290
11022W        W13222  22.747   1.379  24.333  0.1540 -0.1421 -0.2903
11023W        W13223  11.283   3.064  28.698 -0.0453 -0.1812  0.2957
11024W        W13224  20.943   5.805   3.171 -0.1901 -0.2663  0.1110
11025W        W13225  17.909   4.449  30.799 -0.3723  0.1147 -0.0526
11026W        W13226  22.272   5.638  30.683 -0.0688 -0.3173 -0.2223
11027W        W13227  23.859   4.193   5.269  0.1231  0.2829 -0.1507
11028W        W13228  12.889   6.456  21.036  0.2608  0.1009  0.1945
11029W        W13229   1.303   5.830   4.947 -0.2610 -0.2263  0.2729
11030W        W13230  24.903   4.269   9.053 -0.5365 -0.1555 -0.1724
11031W        W13231   2.972   4.742  13.385  0.1234 -0.0961 -0.1018
11032W        W13232  23.820   4.257  25.784  0.0376 -0.0075  0.0819
11033W        W13233   9.888   4.000  15.847 -0.1735  0.3204  0.0153
11034W        W13234  12.794   0.464   5.480 -0.3431  0.0140 -0.1090
11035W        W13235  22.107   6.409  27.287  0.0566  0.2137  0.1564
11036W        W13236   0.100   1.842  25.811  0.1356 -0.0451  0.1692
11037W        W13237   3.385   6.715   3.133  0.0476 -0.0547 -0.0053
11038W        W13238  15.316   5.674   5.273 -0.1297  0.0368  0.0594
11039W        W13239   2.545   4.961  21.398 -0.0146 -0.1888 -0.1959
11040W        W13240  24.682   0.886  21.001  0.1354  0.0223  0.1976
11041W        W13241   8.809   2.740   2.972  0.2890  0.2037 -0.1052
11042W        W13242  22.997   7.137  32.584 -0.1446 -0.1289  0.0060
11043W        W13243   0.438   7.173  29.736  0.4295  0.0684 -0.0666
11044W        W13244  24.555   0.747  18.481 -0.0790  0.2981  0.0720
11045W        W13245  23.532   1.511  17.864 -0.0033 -0.0007 -0.0801
11046W        W13246  23.623   2.458  27.345 -0.2956  0.1344  0.3128
11047W        W13247  17.923   5.313  25.185  0.0899  0.0047 -0.0493
11048W        W13248  21.041   2.746  20.652 -0.1380 -0.1140 -0.1558
11049W        W13249  20.259   4.358  25.957  0.2468  0.1292 -0.1672
11050W        W13250  22.116   4.672   3.578 -0.0502  0.2144  0.3631
11051W        W13251  18.835   1.953  30.479  0.0881 -0.1254 -0.0950
11052W        W13252  14.068   4.234  27.679 -0.2276  0.1772 -0.0601
11053W        W13253  16.416   2.224   5.998 -0.0410  0.0208  0.1894
11054W        W13254   1.521   5.007  10.849 -0.0440  0.3567  0.2674
11055W        W13255  13.865   7.651   6.705 -0.0395  0.0771  0.1228
11056W        W13256  16.209   0.281  24.982  0.1655  0.1991  0.0401
11057W        W13257   0.700   4.237  30.877  0.1037 -0.0590 -0.1566
11058W        W13258   4.556   6.383  32.266 -0.0437 -0.3168 -0.2656
11059W        W13259   2.799   1.164  32.488  0.0272 -0.0916  0.1832
11060W        W13260  14.457   3.966  30.793 -0.2187  0.0757 -0.1962
11061W        W13261   2.125   6.805  22.244  0.1253  0.0932 -0.2693
11062W        W13262  24.232   7.322  17.233 -0.1691 -0.0135 -0.1113
11063W        W13263  12.618   7.248   7.722 -0.4307 -0.1426  0.0587
11064W        W13264   8.433   1.105   7.858  0.0226 -0.0700  0.0861
11065W        W13265  16.740   5.558  20.297  0.0366 -0.0658  0.2735
11066W        W13266   6.110   0.670   8.414  0.0906  0.2963  0.2413
11067W        W13267   6.691   7.642   1.966  0.1485 -0.1959  0.2399
11068W        W13268  18.979   1.318   0.789  0.0695 -0.1347  0.0453
11069W        W13269  19.235   0.395   4.809  0.1684 -0.2699 -0.1288
11070W        W13270   5.935   1.629  24.476 -0.0122  0.0414 -0.2826
11071W        W13271  18.805   0.514  18.653 -0.1932 -0.0259 -0.2608
11072W        W13272  19.369   3.609   9.654  0.1221  0.0739 -0.3210
11073W        W13273   4.625   7.226   0.414  0.0917 -0.2851 -0.1441
11074W        W13274   0.328   6.937   2.834 -0.0922 -0.4195  0.2286
11075W        W13275  22.353   0.586  27.502  0.2355  0.1007 -0.1582
11076W        W13276  23.143   5.626  18.173  0.1115 -0.0796 -0.0267
11077W        W13277  14.380   7.435  28.345 -0.0175 -0.0204  0.0639
11078W        W13278  14.343   1.120  23.673 -0.2117  0.0205 -0.4898
11079W        W13279  14.283   7.022  32.671  0.1168 -0.1061 -0.0169
11080W        W13280   8.358   7.448   4.677  0.0702 -0.1608 -0.0857
11081W        W13281  21.122   2.467  26.779  0.1918 -0.1186  0.0977
11082W        W13282  13.988   6.273   8.609 -0.1069  0.0459 -0.2617
11083W        W13283  18.692   0.545  30.657 -0.2224  0.0775  0.0502
11084W        W13284  11.799   3.247   8.605  0.1588  0.2824  0.0718
11085W        W13285  15.376   4.656   2.541 -0.2387  0.1338 -0.1853
11086W        W13286  22.713   4.183   8.781  0.2339 -0.0211  0.3180
11087W        W13287  22.954   7.014   5.263  0.1576  0.1977 -0.1623
11088W        W13288  13.310   6.003   6.164  0.2183  0.0968 -0.1200
11089W        W13289   4.186   2.107  24.542  0.1407  0.0179  0.1105
11090W        W13290  24.213   0.678   4.687 -0.1421 -0.1426  0.3907
11091W        W13291  10.888   3.078  17.376 -0.0836  0.1334  0.1664
11092W        W13292  22.981   0.423   5.397  0.2799  0.0017  0.1989
11093W        W13293   2.914   2.284  25.133 -0.2129  0.1399  0.5043
11094W        W13294   6.507   0.244   8.515  0.0178  0.0154  0.3093
11095W        W13295  20.966   2.938  15.855 -0.2473  0.3514  0.2024
11096W        W13296   3.530   7.095  23.982  0.0732  0.2070  0.2550
11097W        W13297  15.575   2.678  31.117  0.0891 -0.1685  0.1323
11098W        W13298  10.677   0.582  16.291  0.3257  0.2216 -0.1836
11099W        W13299  13.163   2.709   5.958 -0.3318 -0.0454 -0.1149
11100W        W13300  21.181   3.772  31.244  0.2251  0.5194 -0.0074
11101W        W13301  11.887   5.471   4.924 -0.0208  0.1749 -0.3357
11102W        W13302   8.151   5.942  14.471 -0.0874  0.1103  0.2146
11103W        W13303  18.347   5.590  18.051 -0.0755  0.4230 -0.0765
11104W        W13304  20.694   2.022  15.668 -0.3103  0.2598 -0.0726
11105W        W13305  19.749   6.237   1.354  0.2653  0.1529  0.1548
11106W        W13306  17.047   6.607  29.089  0.1350 -0.2084 -0.2684
11107W        W13307   0.090   3.820  18.774  0.2097  0.0904  0.1242
11108W        W13308  19.292   0.550   7.509 -0.1569  0.0158  0.0244
11109W        W13309   7.415   5.929  32.440  0.0887 -0.1517  0.1741
11110W        W13310   8.741   2.584  14.918 -0.0463 -0.0230 -0.3588
11111W        W13311  18.752   7.737   9.340 -0.2561  0.0687  0.1925
11112W        W13312  20.691   4.206  24.055 -0.4292  0.0781  0.0727
11113W        W13313  15.439   5.230  22.053 -0.3900  0.1757 -0.0072
11114W        W13314  17.556   6.821  29.097  0.0875  0.2008 -0.0382
11115W        W13315  16.678   0.571  29.199 -0.1227 -0.2854  0.2395
11116W        W13316   4.035   5.102  25.451 -0.3020 -0.4289 -0.0246
11117W        W13317  13.332   5.321   7.344 -0.1177  0.1305  0.0205
11118W        W13318  22.787   4.886  25.984  0.0998  0.0807 -0.1445
11119W        W13319   2.378   6.725   7.776 -0.1386  0.1016 -0.0174
11120W        W13320  24.756   7.243  18.086  0.2890  0.1761 -0.1966
11121W        W13321   6.939   7.671  10.370 -0.0251  0.1013  0.0068
11122W        W13322   1.498   4.230   6.639 -0.2981 -0.0114 -0.2193
11123W        W13323   8.344   5.709  18.144  0.5371  0.1322  0.0997
11124W        W13324  14.657   2.840  28.079 -0.2983  0.1604 -0.1195
11125W        W13325   2.509   5.675   9.858  0.0164  0.0320 -0.1399
11126W        W13326  16.774   7.298  26.658  0.0463 -0.0233 -0.3199
11127W        W13327  23.467   7.788  28.055 -0.0553 -0.1040 -0.0810
11128W        W13328  21.178   4.341   5.917 -0.1260  0.2255  0.2762
11129W        W13329  24.449   5.109   0.385 -0.1705 -0.0179 -0.3047
11130W        W13330   2.407   3.925  28.536 -0.0393  0.2511  0.1032
11131W        W13331  21.747   2.065  24.086 -0.2687  0.2894  0.2206
11132W        W13332   3.655   4.731  13.802  0.1695  0.1304  0.0320
11133W        W13333  13.035   7.173   4.437  0.0896  0.2127  0.1537
11134W        W13334  15.299   3.882   7.413  0.3554  0.0397  0.3014
11135W        W13335   3.939   4.201   1.549 -0.0827 -0.0374 -0.0519
11136W        W13336  22.424   4.085  14.502  0.2453  0.1475 -0.2302
11137W        W13337   5.158   6.607  10.706 -0.2884 -0.2264  0.1715
11138W        W13338  19.465   4.964  22.878  0.3960 -0.1884  0.2719
11139W        W13339  24.517   6.260  26.600 -0.0820 -0.0149 -0.5381
11140W        W13340   5.114   6.912  31.773 -0.0584 -0.0033  0.0523
11141W        W13341  24.869   3.080   2.894  0.0747 -0.2613 -0.3667
11142W        W13342   0.922   4.314   6.683 -0.0429 -0.0777  0.2018
11143W        W13343  10.141   5.567   3.198  0.2635 -0.1304  0.0700
11144W        W13344   9.013   5.410   7.984 -0.1590 -0.0191 -0.0639
11145W        W13345  23.179   0.357  17.510 -0.1833 -0.0819  0.0506
11146W        W13346  16.470   5.480  20.712  0.1315 -0.1963  0.1067
11147W        W13347  11.257   2.653  29.025 -0.0204  0.0229  0.1740
11148W        W13348  22.630   6.392  27.386 -0.1650 -0.0747  0.3553
11149W        W13349  20.545   6.248   7.172 -0.0472  0.0576 -0.0605
11150W        W13350  13.503   2.483   0.057  0.2414  0.0269  0.2871
11151W        W13351  21.160   5.010   7.354  0.2918  0.2107  0.0082
11152W        W13352   6.381   1.697   1.385  0.0957 -0.4770 -0.1518
11153W        W13353   1.863   0.350   5.164  0.0431  0.0527 -0.3410
11154W        W13354   1.349   5.727  25.218 -0.2146 -0.0984 -0.0643
11155W        W13355  21.258   0.383   4.575 -0.1928 -0.0194 -0.1343
11156W        W13356   5.712   0.508   6.830 -0.0515 -0.1262 -0.0630
11157W        W13357   1.343   1.242  17.625  0.1982 -0.1296 -0.0061
11158W        W13358  17.898   5.043  23.503 -0.1851  0.3503  0.0032
11159W        W13359  19.526   3.305  21.272 -0.0575 -0.0132 -0.0215
11160W        W13360  15.258   0.740   4.454  0.1513  0.2309 -0.1604
11161W        W13361   7.471   4.965  28.889 -0.0385 -0.1019 -0.3490
11162W        W13362  23.804   3.011   5.291 -0.1896  0.1045  0.2765
11163W        W13363  22.758   0.577   6.930  0.0397  0.0626 -0.0740
11164W        W13364  14.067   5.907   9.329 -0.0685  0.0459 -0.2624
11165W        W13365  10.215   0.924   9.669 -0.0315  0.2302 -0.0459
11166W        W13366  21.843   6.751   5.771 -0.0961 -0.2783 -0.0298
11167W        W13367  11.325   1.711  29.976  0.0460  0.1354  0.0734
11168W        W13368  19.614   0.048  19.725 -0.2140  0.0700  0.1801
11169W        W13369   9.744   6.897  28.746  0.2941  0.1504 -0.0411
11170W        W13370   0.928   5.599  22.860  0.1605  0.1883 -0.0405
11171W        W13371   8.908   4.230  14.523  0.3274  0.0016 -0.0011
11172W        W13372  22.721   7.207  17.932 -0.1188  0.0126  0.0854
11173W        W13373  19.974   0.411  29.309  0.0880  0.0231 -0.0534
11174W        W13374   8.607   2.634  13.893  0.0187  0.0591  0.1147
11175W        W13375  17.482   3.627   0.138 -0.0894 -0.0422  0.2528
11176W        W13376  24.515   3.840   4.298 -0.1526 -0.3357  0.3048
11177W        W13377  15.625   3.336  20.212 -0.0721 -0.2934 -0.0919
11178W        W13378   4.230   0.142  26.271  0.2252  0.1031  0.1660
11179W        W13379   2.467   0.822   0.021  0.2535 -0.4185  0.3650
11180W        W13380   2.549   0.098  21.028 -0.4520 -0.0689  0.1158
11181W        W13381  15.045   3.647   1.414 -0.1773 -0.0234 -0.3877
11182W        W13382  21.973   4.559  16.471  0.0011 -0.1188  0.0644
11183W        W13383   3.722   5.550  10.184 -0.0247 -0.2979  0.1056
11184W        W13384  16.413   1.465  20.868  0.2331  0.3526 -0.5564
11185W        W13385  19.025   3.848  19.904 -0.3570  0.5480  0.0940
11186W        W13386  23.386   0.405   5.020 -0.1263  0.1084 -0.1791
11187W        W13387  16.926   0.116   6.046 -0.2766 -0.2525  0.1326
11188W        W13388  18.542   6.501  28.279 -0.1600  0.2601 -0.0300
11189W        W13389  23.868   3.211  32.645  0.0543  0.0378 -0.0501
11190W        W13390   0.910   0.478   8.345 -0.0206 -0.1647  0.0385
11191W        W13391  19.006   5.683  22.182 -0.1175  0.1351 -0.0443
11192W        W13392  17.567   6.763  32.318 -0.0022 -0.1708  0.1545
11193W        W13393  20.416   5.870   5.682 -0.0398  0.2389  0.0141
11194W        W13394  23.002   6.614  32.435 -0.1134  0.1357 -0.0735
11195W        W13395  23.465   0.202  17.074  0.2779 -0.3291  0.2409
11196W        W13396   4.355   4.633   6.429 -0.0406  0.0885  0.0947
11197W        W13397   7.255   0.344   1.070 -0.3698  0.1231 -0.0737
11198W        W13398   0.429   1.458   3.939 -0.1927  0.0273  0.2366
11199W        W13399   7.493   0.684  12.715 -0.2998 -0.0116 -0.0950
11200W        W13400  19.111   0.410  27.001  0.1424 -0.0569  0.0179
11201W        W13401   4.762   3.711  31.235 -0.2443  0.1210  0.3358
11202W        W13402  23.354   4.125   6.545 -0.1395  0.1125  0.2720
11203W        W13403   4.705   1.050  26.846 -0.3430  0.0888  0.2034
11204W        W13404   3.412   6.325  10.178 -0.0328 -0.2340  0.1942
11205W        W13405   3.702   4.666  32.478 -0.1224 -0.3349  0.0298
11206W        W13406   1.213   4.050  19.698 -0.0097 -0.0423 -0.0161
11207W        W13407  21.393   6.382  32.573  0.0607 -0.1711 -0.2133
11208W        W13408  19.128   3.294   3.815  0.0919  0.0464  0.1263
11209W        W13409  19.022   2.886  18.121  0.0247  0.2001  0.3802
11210W        W13410  14.483   1.368   6.173  0.0034  0.1376  0.0963
11211W        W13411   0.452   1.565  27.145 -0.2114 -0.2184  0.0158
11212W        W13412   0.958   5.445   4.950 -0.0294 -0.0130 -0.0716
11213W        W13413  16.874   3.158  21.119  0.2213 -0.0680  0.0959
11214W        W13414  11.646   0.156   9.915 -0.1917 -0.0180 -0.5593
11215W        W13415   7.070   7.076   7.822 -0.2668 -0.1030 -0.0882
11216W        W13416  24.667   2.946   1.744 -0.3275 -0.1617  0.2680
11217W        W13417   8.264   2.526  14.700 -0.0180  0.0599  0.0012
11218W        W13418  16.802   1.737   0.553 -0.0384 -0.0748  0.1199
11219W        W13419   1.210   3.683  32.317 -0.1757  0.2536 -0.0968
11220W        W13420   9.480   3.621  29.539 -0.4347 -0.0113 -0.1847
11221W        W13421  12.713   4.076   7.422  0.1734 -0.2359 -0.0190
11222W        W13422  18.272   2.175  25.453  0.0170 -0.0599 -0.1614
11223W        W13423  22.079   2.418  14.784 -0.2655 -0.1730 -0.3512
11224W        W13424   9.648   0.329  25.344 -0.0987 -0.2055  0.0006
11225W        W13425  21.386   5.419  16.867 -0.0180  0.2387  0.0045
11226W        W13426  23.177   5.147  22.256 -0.0135 -0.1478 -0.2068
11227W        W13427  15.504   3.851  20.139 -0.1784  0.2724 -0.2550
11228W        W13428  19.065   2.137  18.688 -0.0838 -0.0306 -0.2407
11229W        W13429  10.372   1.611  29.642  0.1372 -0.0116 -0.3541
11230W        W13430   5.537   4.473  23.206  0.1012 -0.1384  0.3091
11231W        W13431  24.130   2.028  25.436 -0.0016 -0.2476 -0.1520
11232W        W13432   3.693   6.693  25.663  0.0623  0.0477  0.0055
11233W        W13433   8.682   0.269  30.321 -0.2454  0.4345 -0.1315
11234W        W13434   2.794   0.048   6.570  0.1877  0.0526  0.1345
11235W        W13435   9.104   4.757   8.003  0.2091  0.0544 -0.0891
11236W        W13436  15.732   0.626   3.367  0.0334  0.1753 -0.0775
11237W        W13437   6.043   1.815  23.758 -0.1095  0.2177  0.0961
11238W        W13438   2.392   6.246   0.006  0.0909 -0.2458  0.1934
11239W        W13439  19.331   6.100  18.911  0.3050 -0.1160 -0.0265
11240W        W13440  13.834   3.130  26.159  0.0719  0.1107  0.0478
11241W        W13441   7.598   5.290  28.191 -0.0062 -0.1147 -0.1231
11242W        W13442  11.593   6.729  26.476  0.1370  0.3671 -0.1496
11243W        W13443   8.382   1.570  14.576 -0.0668  0.1291 -0.1762
11244W        W13444   0.526   2.119  26.924  0.0787 -0.1549  0.0906
11245W        W13445  13.934   3.026   3.545 -0.1654  0.0505 -0.4919
11246W        W13446   9.301   7.567  29.652  0.3392  0.2034  0.0344
11247W        W13447  11.607   5.067   9.932  0.0311 -0.0287  0.1512
11248W        W13448  22.757   3.741  22.704 -0.2455  0.1199  0.1087
11249W        W13449   9.578   5.574   3.406  0.1582 -0.0674  0.0496
11250W        W13450  20.401   7.690   8.940 -0.2004  0.0224  0.2217
11251W        W13451   5.821   5.261  31.876  0.1803 -0.0688  0.0601
11252W        W13452  10.237   2.482  17.592 -0.0478  0.1038 -0.0770
11253W        W13453  21.527   4.429   2.599  0.1577 -0.0161 -0.0128
11254W        W13454  20.155   2.677   8.382  0.2135  0.2228 -0.4184
11255W        W13455   6.182   0.565  15.621 -0.1257 -0.1693  0.0292
11256W        W13456  14.362   4.513  26.014 -0.3137  0.0945  0.0045
11257W        W13457   4.591   4.069  14.602  0.1094  0.1279 -0.1020
11258W        W13458  11.334   4.338  29.264  0.0602 -0.0574 -0.0293
11259W        W13459  16.488   3.013  27.684  0.2816  0.0596 -0.1249
11260W        W13460  22.889   1.204   5.275 -0.0729 -0.2256  0.1186
11261W        W13461  11.345   5.608   3.827 -0.1200  0.0217 -0.0097
11262W        W13462   4.096   5.677  25.537 -0.1469  0.1642 -0.3688
11263W        W13463  18.900   6.822   7.697 -0.2211 -0.0670  0.1644
11264W        W13464  16.971   0.867   0.234 -0.0027  0.0584  0.1324
11265W        W13465  13.298   0.179   6.239  0.1765 -0.0260  0.1195
11266W        W13466  10.712   3.870  32.578 -0.0628  0.3690  0.2792
11267W        W13467  24.463   5.903   2.665 -0.2202 -0.0788 -0.1240
11268W        W13468   2.134   0.637  19.754  0.1229 -0.2477  0.0182
11269W        W13469   2.973   0.440   9.239  0.0351  0.1019 -0.0566
11270W        W13470   6.562   6.097   2.309 -0.0071  0.0582  0.1244
11271W        W13471   8.959   6.440  16.111 -0.0181 -0.0591 -0.2727
11272W        W13472   3.570   2.403   0.082 -0.1654 -0.1228  0.1481
11273W        W13473  14.662   4.387  22.738 -0.1098 -0.0224 -0.1128
11274W        W13474  10.091   0.397  16.900  0.0564  0.3474  0.4146
11275W        W13475   1.869   1.212  31.576  0.0640 -0.0440 -0.3773
11276W        W13476   5.791   3.366   8.860 -0.1061 -0.0550  0.2722
11277W        W13477  16.385   4.603   1.625 -0.1946 -0.0011 -0.1166
11278W        W13478  13.408   0.365  31.634 -0.0422 -0.1943 -0.0478
11279W        W13479   5.618   7.111  31.798 -0.3159  0.0325  0.4527
11280W        W13480   6.290   1.542   2.454 -0.1571  0.0065 -0.1789
11281W        W13481  18.973   1.533  20.704 -0.1609 -0.2338 -0.1001
11282W        W13482   5.840   0.141   5.748  0.3651 -0.0788 -0.2733
11283W        W13483  12.115   7.471  31.476  0.2031 -0.3639  0.0158
11284W        W13484  17.174   4.170   6.135 -0.2794  0.1054 -0.2027
11285W        W13485  22.671   4.599   0.549  0.1448  0.1480 -0.0120
11286W        W13486   9.785   7.037   2.991 -0.1806  0.0112  0.0493
11287W        W13487  17.964   1.347  20.662  0.0673 -0.0389  0.2923
11288W        W13488  19.899   1.902   8.600 -0.0998  0.0672  0.2919
11289W        W13489  17.250   2.297  23.847  0.1349 -0.0549 -0.0946
11290W        W13490   6.989   1.414   6.935  0.1910 -0.0593 -0.0160
11291W        W13491   3.500   3.893   9.934  0.0843 -0.3386 -0.0540
11292W        W13492   5.600   1.713  31.342 -0.1922  0.3952  0.0125
11293W        W13493  18.484   1.286  26.573  0.0102 -0.2876  0.0228
11294W        W13494   8.459   1.099  32.677 -0.0379 -0.1343  0.0992
11295W        W13495  19.871   4.059  17.564  0.5068  0.1342  0.1929
11296W        W13496  21.607   2.480  24.302  0.3483 -0.0031 -0.0975
11297W        W13497  23.944   0.630  29.321 -0.2107 -0.1405  0.1340
11298W        W13498  24.364   5.584  30.442  0.1728 -0.1306  0.2346
11299W        W13499  12.940   0.750  23.142 -0.0821  0.1873  0.1113
11300W        W13500   3.747   4.070  30.416 -0.2316 -0.0419 -0.1249
11301W        W13501  20.789   6.026  28.575 -0.1153  0.3519  0.1706
11302W        W13502  16.780   6.997  24.161  0.0636  0.2132 -0.3540
11303W        W13503  15.788   5.148  20.251  0.1961 -0.3512  0.3134
11304W        W13504   4.237   1.289  24.554 -0.0887 -0.0468 -0.1285
11305W        W13505  21.935   2.614   1.720  0.0659  0.0527  0.0843
11306W        W13506  11.781   4.880  12.748 -0.0326 -0.0209 -0.4115
11307W        W13507  21.758   3.222   5.572 -0.2890  0.2571 -0.1519
11308W        W13508   3.378   0.301  10.964  0.1220  0.1171  0.0384
11309W        W13509   1.291   3.075  19.340 -0.2119 -0.2226 -0.0245
11310W        W13510  15.753   1.227  22.621  0.1943  0.0588  0.2703
11311W        W13511  13.859   4.358  11.434  0.2113 -0.0640  0.2431
11312W        W13512   9.787   1.134  17.363  0.4334 -0.1450  0.2018
11313W        W13513   5.553   3.504  29.261  0.1175 -0.0715 -0.2595
11314W        W13514   5.947   3.123  32.393 -0.1866 -0.0929  0.1379
11315W        W13515  24.998   1.010   9.071  0.2771  0.0960  0.3135
11316W        W13516  19.472   7.533   9.956 -0.2606  0.1090 -0.1327
11317W        W13517  23.946   4.413  19.305  0.0168 -0.1024 -0.1490
11318W        W13518   8.869   5.438   0.894 -0.1984 -0.0803  0.3814
11319W        W13519  12.777   4.069  10.402 -0.1263 -0.0162 -0.2884
11320W        W13520   7.789   3.459   7.502  0.3990 -0.1278 -0.2077
11321W        W13521   3.684   7.737  27.885 -0.0812  0.1267 -0.0343
11322W        W13522  10.713   3.666   0.330 -0.1967 -0.0112  0.1625
11323W        W13523  11.648   1.844  12.264 -0.2917 -0.3207  0.1491
11324W        W13524  13.944   1.077  12.981  0.3006 -0.0982 -0.0368
11325W        W13525  14.005   3.041  14.307  0.0321 -0.2048  0.0919
11326W        W13526  11.437   0.447   0.171 -0.1388  0.1012 -0.1994
11327W        W13527  14.811   1.373  25.224 -0.0596 -0.1992  0.3032
11328W        W13528  21.415   3.638  26.344 -0.2840  0.1652 -0.3505
11329W        W13529   3.748   3.444   4.300 -0.1678 -0.2625  0.2438
11330W        W13530   2.566   1.437  23.734  0.0940  0.0136  0.0511
11331W        W13531   0.557   1.538   4.597 -0.1213 -0.0872 -0.1313
11332W        W13532  18.724   1.227  27.017 -0.0836 -0.1899  0.1019
11333W        W13533  11.870   3.014  23.072  0.0821 -0.1500 -0.0270
11334W        W13534   1.082   4.585   8.810 -0.0144  0.2239 -0.4256
11335W        W13535  17.628   1.930  23.884  0.1402  0.2570 -0.4396
11336W        W13536   1.476   6.287  10.334  0.0090  0.1548  0.0018
11337W        W13537  20.878   6.854  24.948 -0.2075 -0.0087  0.1142
11338W        W13538  12.589   7.550  22.481  0.0574 -0.1300  0.0096
11339W        W13539  24.681   4.520  21.764 -0.0295 -0.0664  0.0018
11340W        W13540   0.823   6.427  30.911 -0.1035  0.5622  0.1704
11341W        W13541  18.955   3.227   2.370  0.0569 -0.2792 -0.0873
11342W        W13542   8.001   4.819  30.464 -0.0848 -0.1164 -0.1596
11343W        W13543   2.398   1.092  26.108 -0.0454 -0.1746 -0.1521
11344W        W13544  11.134   0.713  12.168  0.0661  0.2182 -0.1744
11345W        W13545   5.671   7.618  24.422  0.0517 -0.4376 -0.0768
11346W        W13546  11.033   5.673   8.928 -0.0688 -0.2188  0.1552
11347W        W13547  15.987   2.573  10.676  0.1334  0.2740 -0.1775
11348W        W13548   4.556   5.517  30.885  0.0866  0.2749 -0.1176
11349W        W13549   0.653   6.664  19.577  0.2368  0.0643  0.2238
11350W        W13550  15.102   7.712   9.864  0.0482  0.1416  0.0816
11351W        W13551  12.999   5.197  27.222 -0.1792 -0.1764 -0.0035
11352W        W13552  19.580   1.842   7.529  0.0513  0.0453 -0.2787
11353W        W13553   1.216   3.382  20.491 -0.0759 -0.1410  0.1976
11354W        W13554   3.416   2.490  25.395 -0.2138 -0.0395 -0.0855
11355W        W13555  20.892   0.442  17.513  0.3923 -0.3465 -0.1086
11356W        W13556  14.982   4.053   9.497  0.0097  0.0555 -0.0762
11357W        W13557   7.257   6.922  27.446 -0.0536  0.1826  0.1336
11358W        W13558  15.175   1.344  24.133 -0.3533 -0.0113  0.0077
11359W        W13559   0.481   6.699  23.067  0.0968  0.1490 -0.0244
11360W        W13560   0.354   6.713  18.369 -0.1470  0.5519 -0.0147
11361W        W13561  16.887   5.193  22.750 -0.0314  0.2207 -0.0137
11362W        W13562  17.363   1.693  10.307 -0.3398 -0.0464 -0.1850
11363W        W13563   8.627   4.574   8.287  0.1111  0.1239 -0.0491
11364W        W13564  16.150   0.656  26.277  0.0714 -0.0227  0.0486
11365W        W13565   1.595   5.631  27.342  0.2128  0.0501  0.0162
11366W        W13566   0.810   1.244   2.550  0.1839 -0.0631  0.0117
11367W        W13567  13.659   6.187   2.539  0.2581 -0.1936 -0.1136
11368W        W13568  17.838   6.517  25.015 -0.0190  0.1508  0.1079
11369W        W13569  16.496   4.996   7.713  0.1617 -0.0141 -0.2359
11370W        W13570  16.588   5.107   9.589  0.1604  0.1437 -0.0195
11371W        W13571   2.422   3.187  23.135 -0.0172 -0.0814  0.1034
11372W        W13572   4.564   4.758  29.310  0.3119 -0.1262 -0.0902
11373W        W13573   2.783   3.571  10.491  0.0043 -0.1067 -0.0529
11374W        W13574   6.382   3.846  23.259 -0.1058  0.2571 -0.3203
11375W        W13575   5.395   3.327  30.901  0.0034 -0.0142 -0.1263
11376W        W13576  24.372   7.612   8.915 -0.1645  0.1851  0.4091
11377W        W13577  11.658   0.741  24.874 -0.0011 -0.4656 -0.2998
11378W        W13578  22.022   7.063  28.445 -0.0213 -0.2069  0.0017
11379W        W13579   0.981   6.977  11.817 -0.1356  0.0785 -0.0497
11380W        W13580   9.047   7.006   1.613 -0.0953  0.1052  0.1148
11381W        W13581   7.562   0.353  29.690 -0.0073 -0.3338 -0.1713
11382W        W13582   7.249   3.175   8.322 -0.0324  0.0246 -0.1149
11383W        W13583  17.193   7.062   6.639  0.1743  0.1474  0.0492
11384W        W13584  10.145   0.325   5.976 -0.3548  0.1188 -0.0556
11385W        W13585  14.560   5.601  23.976 -0.0324 -0.1513 -0.3926
11386W        W13586   8.140   6.784  26.156 -0.1397 -0.1492 -0.2406
11387W        W13587  24.663   4.650   6.296 -0.0223 -0.0354 -0.2147
11388W        W13588  19.957   5.871   9.147 -0.0855  0.0403 -0.1393
11389W        W13589  21.714   6.885  14.424 -0.0259 -0.0343 -0.2535
11390W        W13590  17.629   4.756   0.130 -0.2967  0.3843 -0.3453
11391W        W13591  24.514   4.444   1.490  0.3030 -0.1516  0.1654
11392W        W13592   0.420   0.618  19.971 -0.1882 -0.0163 -0.1115
11393W        W13593  22.310   2.912   7.661  0.2278 -0.1792  0.0455
11394W        W13594  14.649   2.342  24.560  0.1243  0.0470  0.1454
11395W        W13595  16.888   2.091   5.288  0.0737  0.1247  0.2300
11396W        W13596  21.517   7.230  24.590 -0.0217 -0.1779 -0.0380
11397W        W13597   6.192   0.730   4.455  0.0078 -0.0926 -0.0835
11398W        W13598  22.073   4.575  24.670  0.1504  0.1872  0.1677
11399W        W13599  19.213   1.994   1.357  0.1580 -0.0835 -0.2698
11400W        W13600  13.063   3.763   6.218  0.2843  0.1313  0.0917
11401W        W13601  13.388   6.796  12.596  0.1436  0.3116 -0.0209
11402W        W13602  21.103   3.034   7.228 -0.0660  0.2404  0.0204
11403W        W13603  10.523   5.021   7.100  0.2041  0.0857 -0.0646
11404W        W13604  15.546   0.423  28.513  0.6193 -0.0060 -0.1654
11405W        W13605  16.703   7.045   4.566 -0.3250 -0.0938 -0.3264
11406W        W13606  18.920   5.072  17.893 -0.0685 -0.0255  0.2113
11407W        W13607  22.401   4.094  32.704  0.1457  0.4342  0.0408
11408W        W13608  12.288   4.407  27.340  0.0439 -0.1440 -0.0783
11409W        W13609   0.895   5.013   4.599  0.0468 -0.1961 -0.2902
11410W        W13610   8.297   4.082  31.010 -0.0447  0.0427 -0.1568
11411W        W13611   5.842   0.911  29.880  0.0660 -0.0667 -0.1002
11412W        W13612  19.195   5.576   8.776  0.0139 -0.2418  0.0843
11413W        W13613   2.102   7.154  29.528 -0.0328  0.0970  0.0659
11414W        W13614  16.581   0.633  10.788 -0.1444  0.1756  0.1458
11415W        W13615  17.535   4.755  31.274 -0.0746 -0.0308 -0.1130
11416W        W13616   4.222   4.421   7.889 -0.1132 -0.0756  0.2712
11417W        W13617  21.443   7.737  22.484  0.0853  0.1566  0.3379
11418W        W13618  11.683   2.888   1.943  0.1366  0.0718  0.2354
11419W        W13619   0.679   5.682  19.201 -0.1321  0.3106 -0.0970
11420W        W13620   7.377   2.319  16.305 -0.2472  0.0114 -0.0120
11421W        W13621   6.604   7.079  12.200  0.1292  0.0552 -0.3916
11422W        W13622  19.896   4.542  27.484  0.0577 -0.1719  0.0387
11423W        W13623   4.881   2.211   6.534  0.0367 -0.0798  0.0486
11424W        W13624   1.275   0.388  25.055  0.0447  0.0485 -0.0993
11425W        W13625  16.926   1.832   4.277  0.1939 -0.2499 -0.1677
11426W        W13626   3.142   0.245   6.813  0.0636  0.0505 -0.0724
11427W        W13627  20.821   2.234  27.686  0.0101  0.2909  0.1751
11428W        W13628  14.271   4.287  23.109  0.0685  0.0209 -0.1133
11429W        W13629   3.658   2.473   5.072  0.0476 -0.0721 -0.0174
11430W        W13630   2.624   7.528  12.047  0.1914  0.0124 -0.1120
11431W        W13631   0.358   6.164  18.430  0.0689  0.0446 -0.1812
11432W        W13632   3.119   4.977  30.115 -0.0479  0.1182  0.1034
11433W        W13633  17.662   6.464  21.290  0.2476  0.0194  0.0783
11434W        W13634  12.985   6.031   7.030  0.0558  0.3510  0.2803
11435W        W13635  15.043   5.363   2.593 -0.1052  0.2327 -0.0107
11436W        W13636  17.654   2.972  19.897  0.0220 -0.0394  0.0722
11437W        W13637   8.953   4.778  23.255  0.0098 -0.3264  0.1613
11438W        W13638  14.970   1.671  10.136 -0.1911 -0.0187  0.0222
11439W        W13639  13.470   5.545   4.358  0.3745 -0.1998  0.0066
11440W        W13640  10.140   7.175  11.893  0.0574 -0.1270  0.2358
11441W        W13641   0.619   4.449  30.336  0.0399  0.0821  0.0313
11442W        W13642   4.041   2.321  23.289 -0.3074  0.0422  0.0749
11443W        W13643  16.024   3.746  32.382 -0.1676  0.1359  0.0053
11444W        W13644  11.227   1.254  23.493 -0.1877 -0.2377  0.4277
11445W        W13645  19.736   5.655   3.872 -0.0195  0.1013 -0.2526
11446W        W13646  10.416   7.805  27.542 -0.0900  0.1842 -0.0211
11447W        W13647   6.278   0.114  10.659 -0.2170 -0.1090  0.0029
11448W        W13648   3.268   0.626   0.401  0.0987 -0.0282  0.1660
11449W        W13649   8.139   4.493  16.588  0.0360 -0.0082  0.1123
11450W        W13650   1.207   1.438   6.046 -0.0821  0.0244  0.0062
11451W        W13651   9.500   1.628  24.780  0.0778 -0.0299 -0.1224
11452W        W13652   2.125   6.922   5.037 -0.0475 -0.1911 -0.0357
11453W        W13653   5.311   2.472   7.089  0.1295  0.1384 -0.0631
11454W        W13654   5.047   4.738   4.293 -0.1689  0.0222 -0.2332
11455W        W13655   6.661   6.763  18.490 -0.1220 -0.1317 -0.0552
11456W        W13656  18.645   0.897   7.870  0.0958 -0.1871  0.0152
11457W        W13657  20.484   1.446  30.306 -0.2708 -0.0595 -0.2244
11458W        W13658  15.486   2.014  30.212  0.2369 -0.0452  0.1491
11459W        W13659  24.642   4.018  22.045  0.2077 -0.1078 -0.0584
11460W        W13660  17.642   1.975  18.290  0.1546  0.0888  0.1123
11461W        W13661   8.627   4.149  12.446  0.0015 -0.3089 -0.0952
11462W        W13662   1.437   0.159  23.766 -0.1628 -0.2317  0.0994
11463W        W13663  10.103   7.425  13.683 -0.2574 -0.1098  0.0786
11464W        W13664   8.606   4.113  14.093  0.1012  0.1637  0.1556
11465W        W13665  11.566   3.959  14.891 -0.0018  0.1358 -0.1830
11466W        W13666   4.693   2.769   8.101 -0.0672  0.1067  0.2204
11467W        W13667  23.856   5.868  17.472 -0.1970 -0.1028  0.2543
11468W        W13668  16.081   4.560  28.390  0.1617  0.0274 -0.2603
11469W        W13669  15.534   5.801  22.105 -0.0525  0.0811 -0.1707
11470W        W13670  21.180   7.484   3.146  0.2266 -0.0975  0.0149
11471W        W13671   7.806   6.174  25.535 -0.1727 -0.0418 -0.0452
11472W        W13672  19.065   3.699  29.556  0.0597 -0.0933 -0.1612
11473W        W13673  19.749   3.591  31.979 -0.2198  0.0606  0.0565
11474W        W13674  21.207   5.321   6.280  0.0415 -0.0216 -0.1945
11475W        W13675  21.340   0.345  28.250 -0.1836  0.0415  0.1682
11476W        W13676   4.976   7.098   8.652 -0.0566 -0.1004  0.1631
11477W        W13677  22.469   1.489  17.071 -0.0578 -0.0087  0.0551
11478W        W13678   9.351   3.128   0.279  0.2399 -0.1294  0.0735
11479W        W13679  22.832   5.580  30.953 -0.1841  0.2091 -0.2879
11480W        W13680  24.962   7.101  22.654 -0.1458 -0.1292 -0.0936
11481W        W13681  24.499   0.079  29.441  0.1589 -0.2445  0.0323
11482W        W13682   7.477   1.360  29.479  0.0563  0.2792  0.0472
11483W        W13683  21.891   2.552  17.459 -0.2878  0.0343 -0.0397
11484W        W13684  20.243   1.818  17.336  0.2394 -0.2272  0.1076
11485W        W13685  14.336   3.956  13.432 -0.0582 -0.0061  0.1885
11486W        W13686  23.034   5.887  26.075 -0.3689 -0.1583 -0.0739
11487W        W13687  15.066   7.207  21.478 -0.1669  0.3034  0.0232
11488W        W13688  18.943   5.171  25.356  0.1346  0.0991 -0.0417
11489W        W13689  18.691   6.892  20.874  0.0208 -0.0068  0.1182
11490W        W13690   3.267   3.977  12.239  0.1059  0.0442  0.0790
11491W        W13691   8.239   7.231   0.406  0.1164  0.1670  0.0429
11492W        W13692  18.934   2.244  24.596  0.0253 -0.1717 -0.1743
11493W        W13693   8.267   4.967  24.373 -0.0414 -0.1483 -0.2563
11494W        W13694   9.212   5.914  30.169  0.2939 -0.1135 -0.0181
11495W        W13695  15.068   0.309   4.158 -0.3768  0.1348 -0.1617
11496W        W13696  18.249   4.734   6.742  0.1500 -0.0727  0.0823
11497W        W13697   3.833   1.752  28.996  0.0341 -0.1552 -0.1507
11498W        W13698   1.549   2.555  18.047 -0.0681 -0.2018 -0.3647
11499W        W13699   5.754   5.370   9.392  0.2269  0.1229 -0.2345
11500W        W13700  18.338   6.392   0.977  0.2418  0.1999  0.3356
11501W        W13701  19.262   6.082  31.950 -0.1126  0.1034  0.0164
11502W        W13702  16.454   2.637   0.134  0.2167 -0.2445 -0.1195
11503W        W13703  19.393   6.239   0.985  0.1621 -0.3002 -0.0671
11504W        W13704   5.122   5.690  10.345 -0.0558 -0.0802  0.2198
11505W        W13705  15.847   2.873   1.763  0.0825  0.2747 -0.0237
11506W        W13706   5.072   7.027  13.121 -0.2115  0.2399  0.0532
11507W        W13707  17.100   0.571  21.323 -0.3491 -0.2729  0.1340
11508W        W13708   7.222   5.068  11.180 -0.0483  0.0834 -0.0247
11509W        W13709  24.311   4.286  32.077  0.2165  0.1492 -0.1260
11510W        W13710  15.198   0.003  31.979 -0.0034 -0.0852 -0.2476
11511W        W13711   7.795   2.609  10.474 -0.0242  0.3912 -0.0133
11512W        W13712  11.452   2.525  11.072 -0.0462 -0.1729 -0.2250
11513W        W13713  18.045   1.630   0.501  0.1591 -0.3069 -0.0903
11514W        W13714  20.387   4.801   6.267  0.0736 -0.0535 -0.0466
11515W        W13715   4.771   4.716  10.037 -0.1410  0.3517  0.3042
11516W        W13716   3.700   7.248   2.844 -0.0592  0.0234  0.0040
11517W        W13717   5.487   6.223  11.971  0.0231 -0.0765 -0.1116
11518W        W13718   9.830   2.811  14.125  0.0101 -0.0544  0.2298
11519W        W13719   0.648   3.680  21.302  0.0826  0.1464 -0.0476
11520W        W13720   2.945   4.136  22.425  0.0521 -0.5731  0.2082
11521W        W13721  11.476   1.443   0.281 -0.1377 -0.1050 -0.2648
11522W        W13722  11.976   6.761   0.714  0.0015 -0.1826  0.0254
11523W        W13723  13.345   3.595   1.414  0.1733  0.0288  0.1987
11524W        W13724   5.575   6.287  16.651  0.1104  0.5628  0.0635
11525W        W13725   6.227   3.157  25.371 -0.2157  0.0523 -0.0058
11526W        W13726  13.573   2.796  11.141 -0.0037  0.0507 -0.0876
11527W        W13727   5.155   1.786  24.039  0.0403  0.0395 -0.0310
11528W        W13728  17.234   1.760   7.097 -0.1076  0.4795  0.0692
11529W        W13729  14.692   0.452   2.265  0.3734  0.0382 -0.0447
11530W        W13730  24.049   2.658  30.389 -0.1633  0.1234  0.2128
11531W        W13731  21.992   2.694  23.001  0.0787  0.0581  0.3514
11532W        W13732  24.659   1.066  25.294 -0.0679 -0.3684 -0.0621
11533W        W13733  24.228   4.610  23.682 -0.1710  0.2716 -0.1364
11534W        W13734  12.550   5.621  30.192  0.1784  0.3317  0.0304
11535W        W13735  19.682   6.276   2.468  0.3948  0.2198 -0.0218
11536W        W13736  11.147   2.076  15.375 -0.1303 -0.1154  0.2502
11537W        W13737   8.136   5.435  12.267  0.2575 -0.0335  0.0794
11538W        W13738  14.059   1.054   3.281 -0.3260  0.2810 -0.1273
11539W        W13739  14.059   3.549  25.276 -0.2952 -0.0124  0.0413
11540W        W13740  12.072   6.956  22.628 -0.0818  0.0434 -0.0689
11541W        W13741   6.141   1.602   1.870  0.1623  0.1010 -0.0587
11542W        W13742   6.770   2.245   7.963 -0.0396  0.0990 -0.1995
11543W        W13743  12.758   0.934  30.138 -0.1178 -0.1772 -0.0388
11544W        W13744  14.654   2.592  22.758 -0.0724  0.0138  0.1063
11545W        W13745   5.856   1.102  11.372 -0.0311  0.0759  0.1672
11546W        W13746  17.102   5.482   9.790  0.1064  0.0001  0.0486
11547W        W13747  11.564   7.581   5.926  0.0052 -0.2279 -0.2908
11548W        W13748  14.609   0.111   0.219 -0.0397  0.1278 -0.0072
11549W        W13749  21.501   3.847  22.302 -0.0943 -0.0377 -0.0718
11550W        W13750   4.396   2.364   2.728  0.2468  0.0649  0.2182
11551W        W13751  10.900   6.839   2.205  0.0075 -0.1277  0.0036
11552W        W13752  20.663   0.927   0.365  0.2152  0.1273  0.0494
11553W        W13753  14.141   7.081  29.624  0.0249 -0.2323  0.3903
11554W        W13754  17.484   1.410  17.651  0.0423  0.2514 -0.0237
11555W        W13755   4.913   7.617  29.184 -0.1060  0.1713  0.0678
11556W        W13756   0.362   5.218   2.336 -0.3616  0.0232 -0.0073
11557W        W13757   4.353   2.271  25.896  0.4937  0.0053 -0.1621
11558W        W13758  23.454   1.638  15.723 -0.1632 -0.0665  0.2302
11559W        W13759   8.900   4.515   8.747  0.3639 -0.2475  0.2942
11560W        W13760  21.882   5.094  32.618 -0.1570  0.1234 -0.0146
11561W        W13761  16.259   2.375   9.438  0.1104 -0.1045 -0.3262
11562W        W13762   5.488   1.650  15.181 -0.0457  0.1718 -0.1793
11563W        W13763   3.298   1.640   3.250  0.1169  0.2282  0.1065
11564W        W13764  19.893   1.941  25.665 -0.1078 -0.3412 -0.1690
11565W        W13765   5.734   3.863  10.407 -0.1508  0.0836 -0.0684
11566W        W13766  24.964   1.229  26.313 -0.2982  0.0331  0.1434
11567W        W13767   2.403   0.210  21.902 -0.0767 -0.0303 -0.1780
11568W        W13768  14.963   2.976  11.874 -0.0965 -0.1694  0.1361
11569W        W13769   1.403   2.879  28.045  0.2763 -0.2677 -0.0861
11570W        W13770  14.446   6.971   1.625  0.1678  0.0484  0.2166
11571W        W13771  16.212   5.804  29.148  0.0606 -0.0212 -0.0662
11572W        W13772  10.511   1.299   2.883  0.0970 -0.1922 -0.0482
11573W        W13773   7.135   0.423  13.116 -0.1269 -0.2930  0.0928
11574W        W13774  20.361   1.235  22.047  0.1380 -0.0743  0.2603
11575W        W13775   5.030   6.812  22.331 -0.0479 -0.3059  0.1471
11576W        W13776  11.179   0.294  25.501  0.0241 -0.2953 -0.0857
11577W        W13777   9.004   1.375  11.463 -0.1107  0.0986 -0.1257
11578W        W13778  11.368   5.725  28.932  0.1717  0.0986 -0.1949
11579W        W13779  16.362   5.640  32.509  0.2022  0.1253  0.0996
11580W        W13780  24.124   6.611  18.101  0.0417  0.0627 -0.4455
11581W        W13781  19.578   5.891   0.106  0.0014  0.0472  0.1893
11582W        W13782  13.013   6.456   1.796  0.3930  0.0092  0.1884
11583W        W13783   7.682   4.349  26.216  0.0237 -0.0464 -0.0367
11584W        W13784  12.317   3.779   7.317  0.0462  0.0480  0.0469
11585W        W13785  23.016   6.229   5.393  0.0662 -0.0294 -0.0355
11586W        W13786  21.185   1.578   3.442  0.0454  0.1259 -0.2480
11587W        W13787  13.711   4.827  31.291 -0.1859  0.1045 -0.2229
11588W        W13788   5.859   4.540   6.538 -0.0063  0.0065 -0.0075
11589W        W13789  19.184   5.009  31.300  0.2380 -0.2511  0.0733
11590W        W13790  10.811   4.724  29.156  0.1013  0.2245  0.3286
11591W        W13791  22.650   0.954   6.571 -0.0240  0.1096 -0.0130
11592W        W13792  23.668   6.408  25.993 -0.3038  0.1767 -0.2821
11593W        W13793   5.718   5.468  12.385  0.2757 -0.0451 -0.4332
11594W        W13794  21.175   0.636   5.894  0.4207 -0.0691 -0.4252
11595W        W13795  13.578   6.504  11.025  0.1947 -0.0357  0.1473
11596W        W13796   1.347   2.544  25.952 -0.1288  0.0399  0.0632
11597W        W13797   2.117   6.959   9.473  0.0785  0.2241  0.0308
11598W        W13798  22.695   7.631  30.681  0.1383 -0.1326  0.1854
11599W        W13799   9.407   0.325  23.453  0.0183  0.3215 -0.0918
11600W        W13800  23.397   4.665  27.903 -0.2801  0.1310  0.0977
11601W        W13801   3.720   3.202  27.698  0.2506  0.0215 -0.3116
11602W        W13802   7.850   5.727  29.638 -0.1700  0.1478 -0.0313
11603W        W13803  18.642   0.308  19.758  0.0472  0.0568 -0.0363
11604W        W13804   8.626   6.503  11.047 -0.1017 -0.2405  0.0643
11605W        W13805  14.478   5.683   5.180  0.0326  0.1573 -0.3857
11606W        W13806  16.480   0.194   5.877 -0.1209 -0.0006 -0.1132
11607W        W13807  16.177   3.097  28.048 -0.0469 -0.2334 -0.0213
11608W        W13808   2.809   1.764   0.924  0.1360  0.0382 -0.2162
11609W        W13809  19.956   4.658  21.845 -0.2312 -0.1355 -0.1040
11610W        W13810   3.388   1.543  26.852  0.0654 -0.1861  0.2197
11611W        W13811  17.140   1.899  29.206  0.4596 -0.4613  0.0171
11612W        W13812  22.428   3.109  15.281 -0.2138 -0.1823  0.1489
11613W        W13813  17.709   2.647  26.679 -0.0948  0.0249 -0.1003
11614W        W13814  13.049   7.704  15.657 -0.0182  0.1855 -0.0954
11615W        W13815   5.693   5.665   6.715 -0.1238  0.0723  0.1366
11616W        W13816  13.025   2.076  22.418 -0.0921 -0.0491  0.1471
11617W        W13817  15.583   7.759  18.772  0.1827 -0.2213  0.0616
11618W        W13818  21.091   2.499  31.740 -0.2075 -0.0074  0.0792
11619W        W13819  20.810   1.771  30.496 -0.0968 -0.1465 -0.3451
11620W        W13820  24.495   2.081  28.263  0.0327  0.3387  0.0635
11621W        W13821   9.665   1.748   7.029  0.1579  0.1275  0.1752
11622W        W13822  23.905   4.992  24.862 -0.1172  0.2777  0.1330
11623W        W13823   9.822   3.861  17.562 -0.2888  0.3898  0.0555
11624W        W13824  13.423   1.576  23.062 -0.1262 -0.2005 -0.4819
11625W        W13825   2.843   6.969   3.201  0.1741  0.1321 -0.0486
11626W        W13826  10.364   7.498   4.406  0.0122 -0.1187  0.1227
11627W        W13827   8.769   7.274  18.162 -0.1946  0.3023 -0.1023
11628W        W13828   8.794   7.619  28.889 -0.0048 -0.2372  0.1736
11629W        W13829  13.215   0.307  32.148 -0.0696  0.0730  0.0236
11630W        W13830  23.233   2.353   5.332 -0.4553  0.0327  0.0614
11631W        W13831  24.422   5.106  22.269  0.1983 -0.3415  0.0743
11632W        W13832  15.071   2.202  23.602  0.0252  0.1910 -0.1951
11633W        W13833   1.161   7.023   8.671 -0.0487  0.0259 -0.0481
11634W        W13834  10.857   4.452  14.017 -0.0239  0.0125 -0.0070
11635W        W13835  18.348   5.307   2.945  0.1715  0.2422  0.0667
11636W        W13836   3.943   2.769   9.959 -0.0642  0.1076 -0.4085
11637W        W13837  12.609   4.595  14.108 -0.0023  0.1075  0.0078
11638W        W13838   9.286   7.366  28.638 -0.3466  0.2222 -0.0271
11639W        W13839  19.449   1.406   4.410  0.0618  0.0228  0.0857
11640W        W13840  16.349   3.952  25.676 -0.0761  0.1155  0.0968
11641W        W13841  18.044   2.355   4.374 -0.3357  0.2211  0.2227
11642W        W13842  17.154   0.618  31.776 -0.1766 -0.0983 -0.0897
11643W        W13843  16.317   5.432   4.817  0.3828  0.0221 -0.4131
11644W        W13844  10.702   5.001   8.357  0.0658 -0.1261 -0.0506
11645W        W13845  11.320   4.787  28.323  0.2336  0.2479 -0.2351
11646W        W13846  14.345   3.326  30.054  0.0139  0.0478 -0.0691
11647W        W13847  16.304   6.677  17.806 -0.1019  0.1709  0.0771
11648ION     NA13848  11.849   0.141   8.404 -0.6636  0.2394  0.1174
11649ION     NA13849   0.431   5.981  23.491  0.2629 -0.1161  0.2099
11650ION     NA13850  18.818   0.799  26.108  0.0935 -0.0259  0.1019
11651ION     NA13851  22.063   1.741  23.939  0.0062 -0.2225  0.2949
11652ION     NA13852  10.059   6.180   0.170  0.2224 -0.1758 -0.1830
11653ION     NA13853   6.798   6.854   9.720  0.1650 -0.2752  0.2412
11654ION     NA13854   7.803   3.615  29.249  0.1451 -0.1387  0.2889
11655ION     NA13855   0.670   4.660  31.585 -0.1368  0.2760  0.4133
11656ION     NA13856   4.788   2.780  12.839  0.4120 -0.2531 -0.5317
11657ION     NA13857  24.616   7.615  30.536  0.3021 -0.4935 -0.0810
11658ION     NA13858   0.100   3.417  18.877 -0.2163  0.0203 -0.2675
11659ION     NA13859   9.459   3.324   1.047  0.0212 -0.4018 -0.1855
11660ION     NA13860  14.000   1.652   5.880 -0.4068 -0.0239  0.0546
11661ION     NA13861   4.344   2.662  10.899  0.3361  0.3706  0.3602
11662ION     NA13862  15.311   2.002   3.181 -0.3142  0.0345  0.0550
11663ION     NA13863  21.186   2.800  22.939  0.0290  0.2037  0.3452
11664ION     NA13864   7.954   6.267  13.153 -0.0071 -0.4416 -0.0400
11665ION     NA13865  15.498   2.055   2.451 -0.0293  0.1975 -0.1991
11666ION     NA13866  23.714   4.143  22.346  0.4280  0.0276 -0.1272
11667ION     NA13867  24.296   7.752  19.846  0.0297  0.2007 -0.4001
11668ION     NA13868  15.812   6.987   0.416  0.0280  0.0636  0.1559
11669ION     NA13869  15.628   1.823  21.164 -0.1216  0.1419 -0.1931
11670ION     NA13870   0.240   7.822   3.953 -0.1872  0.2204  0.0123
11671ION     NA13871  10.206   7.796  17.021  0.1451 -0.2365 -0.0098
11672ION     NA13872   6.981   6.035  28.988  0.0161 -0.0772  0.1982
11673ION     NA13873  13.298   7.150   6.358 -0.1627 -0.5805  0.5090
11674ION     NA13874   1.802   4.143  21.526  0.3510  0.1989  0.3336
11675ION     NA13875   4.876   5.075   3.631  0.5016  0.4283  0.0875
11676ION     NA13876  19.533   1.200  25.856 -0.1604  0.1337  0.0757
11677ION     NA13877   3.572   1.680  27.571  0.4710  0.5218 -0.1388
11678ION     NA13878  17.601   6.344   8.023  0.1235  0.4310 -0.0839
11679ION     NA13879  22.985   6.885   8.646  0.0764  0.5244  0.1161
11680ION     NA13880  22.797   6.201  29.913  0.0141  0.1831  0.1605
11681ION     NA13881   1.993   6.686   1.709 -0.0963  0.3510 -0.2466
11682ION     NA13882  14.541   5.831   0.879 -0.0048 -0.3046  0.3255
11683ION     NA13883  18.946   1.899   4.997 -0.0724  0.0391 -0.5610
11684ION     NA13884  19.762   3.089  15.730  0.3043  0.2271  0.1438
11685ION     NA13885  16.555   3.742   7.492 -0.0946 -0.1468 -0.2612
11686ION     NA13886  10.859   2.215  32.116  0.2565 -0.0355  0.1649
11687ION     NA13887  10.838   4.319   6.016 -0.0492 -0.4692  0.5515
11688ION     NA13888  19.930   4.334  20.273  0.3354 -0.2555  0.4179
11689ION     NA13889  18.924   1.616   1.710  0.1959  0.0064  0.0908
11690ION     NA13890  24.519   2.962  22.450 -0.1546 -0.0391 -0.6871
11691ION     NA13891   5.083   2.812  31.312  0.0444  0.0767  0.0396
11692ION     NA13892  12.909   5.360  13.732 -0.0057  0.2956 -0.2483
11693ION     NA13893  12.235   5.278  27.208  0.3284  0.3871  0.0705
11694ION     NA13894  12.427   5.766  23.650 -0.2366  0.1680 -0.1489
11695ION     NA13895  15.360   1.570   4.879 -0.0221  0.0375  0.3562
11696ION     NA13896  13.539   4.010  31.365 -0.0586 -0.0564 -0.1117
11697ION     NA13897  20.567   4.914  24.837 -0.3337 -0.6006 -0.1869
11698ION     NA13898   5.150   2.596   7.460 -0.2191  0.1830  0.2153
11699ION     NA13899  12.444   0.168  10.085 -0.1355 -0.7411  0.4026
11700ION     NA13900  12.497   1.905  25.177  0.1334  0.1470  0.0342
11701ION     NA13901   9.996   5.307  15.860 -0.3584 -0.3742  0.1500
11702ION     NA13902  22.993   3.343  31.204  0.1664  0.1399 -0.1426
11703ION     NA13903   7.213   6.271   0.615 -0.0922  0.1851  0.0451
11704ION     NA13904   0.723   6.417  25.168 -0.3320  0.1228  0.5457
11705ION     NA13905  10.638   2.488  24.911 -0.3324  0.2028 -0.1636
11706ION     NA13906  19.413   2.742  16.711  0.2304 -0.1423  0.0969
11707ION     NA13907  17.993   0.117   3.414 -0.0129  0.4139 -0.3650
11708ION     NA13908  15.910   4.424  21.101 -0.3334  0.0868  0.0044
11709ION     NA13909   4.251   0.281  25.893  0.4542 -0.4027 -0.2073
11710ION     NA13910   1.917   0.801   1.076  0.1782 -0.1976  0.4123
11711ION     NA13911   3.205   1.627   2.398  0.3755 -0.0393  0.1428
11712ION     NA13912   5.941   1.396  29.821 -0.2105  0.2180 -0.1457
11713ION     NA13913   6.162   1.703  24.161 -0.0646  0.0830  0.1982
11714ION     NA13914  16.661   0.866  10.401 -0.2789 -0.1724  0.0937
11715ION     NA13915  23.133   0.421  20.016  0.3039  0.3312  0.0605
11716ION     NA13916   9.770   0.611  14.233  0.0586  0.1430 -0.0895
11717ION     NA13917  18.849   5.895  30.837  0.1626 -0.0882 -0.1418
11718ION     NA13918  23.884   2.396   4.776  0.1640  0.0790 -0.5001
11719ION     NA13919   7.557   6.217   6.632  0.0107 -0.0179 -0.3826
11720ION     NA13920  13.846   2.148  25.089 -0.0700  0.0393 -0.1208
11721ION     NA13921   1.669   5.291  21.138 -0.0938 -0.0895  0.2226
11722ION     NA13922  14.338   6.314   3.022  0.0593 -0.0541 -0.1696
11723ION     NA13923   8.293   5.872   6.844  0.2558 -0.1507  0.1918
11724ION     NA13924  15.142   1.227  22.165  0.3191 -0.0960 -0.3556
11725ION     NA13925  20.919   6.252   3.704  0.3927 -0.4343  0.4614
11726ION     NA13926  23.253   3.453   4.694 -0.0615 -0.0603 -0.0704
11727ION     NA13927  21.026   1.391  10.183  0.1638  0.2654 -0.1132
11728ION     NA13928  23.269   3.070   8.965 -0.1711 -0.1410  0.3361
11729ION     NA13929  16.342   0.864  20.187 -0.2172 -0.4965  0.0739
11730ION     NA13930  13.508   5.717  29.440 -0.1927  0.0521  0.0116
11731ION     NA13931   7.620   0.631  13.976  0.1030  0.0158 -0.3229
11732ION     NA13932  16.602   6.472  19.261  0.1333  0.3185 -0.0737
11733ION     NA13933   1.603   5.322  26.446 -0.0625  0.0508 -0.0235
11734ION     NA13934   5.633   6.032   6.990  0.0974 -0.8625 -0.3090
11735ION     NA13935   0.125   3.822   1.909 -0.4458  0.5502 -0.0696
11736ION     NA13936  19.260   4.460   2.931  0.0301 -0.4562 -0.2316
11737ION     NA13937  13.665   7.615  13.693  0.3685 -0.0579 -0.3542
11738ION     NA13938  18.170   2.405  25.847 -0.0348  0.2338  0.4386
11739ION     NA13939  21.120   2.709  25.015 -0.0366 -0.1274 -0.1608
11740ION     NA13940  19.730   5.167  32.021 -0.6079  0.4242 -0.1039
11741ION     NA13941  22.517   2.456  26.502 -0.0662  0.0101  0.2051
11742ION     NA13942   1.332   5.956   9.967  0.0841 -0.0367 -0.1988
11743ION     NA13943   7.103   6.926   2.931  0.1912  0.4331  0.1493
11744ION     NA13944  21.896   3.454  24.746 -0.0963  0.0747 -0.1965
11745ION     NA13945   5.719   5.407   5.176 -0.0744  0.0793 -0.1797
11746ION     NA13946   8.070   4.286   0.724  0.4124  0.1516  0.0591
11747ION     NA13947  12.258   4.759   3.544 -0.3018  0.2234 -0.0043
11748ION     NA13948  10.455   7.642   2.688  0.0043  0.1852  0.1139
11749ION     NA13949  22.936   4.187  25.460 -0.1511 -0.0014 -0.4687
11750ION     NA13950   9.685   6.011   9.310  0.4407 -0.4547  0.2995
11751ION     NA13951   3.426   7.776  29.511 -0.4721  0.4192 -0.3509
11752ION     NA13952  16.145   5.070  28.082  0.1897 -0.0101 -0.1154
11753ION     NA13953   7.424   4.111  25.413 -0.2086  0.3579  0.3188
11754ION     NA13954  24.435   2.399   3.040  0.1269  0.3773 -0.0805
11755ION     NA13955  17.066   0.267  30.476 -0.3411  0.0887 -0.1005
11756ION     NA13956  12.842   7.583  11.551  0.1258 -0.3782  0.5621
11757ION     NA13957  22.044   1.668  17.164 -0.0213  0.2633 -0.3093
11758ION     NA13958   4.215   4.165  31.582 -0.3150 -0.0662 -0.3934
11759ION     NA13959  15.748   6.552  24.430 -0.3744  0.3105 -0.2910
11760ION     NA13960   9.362   1.291  10.120 -0.1453  0.0109 -0.1147
11761ION     NA13961  21.073   6.428  20.021 -0.1655 -0.5060 -0.0049
11762ION     NA13962   2.405   3.367  25.955 -0.1513 -0.1752 -0.0877
11763ION     NA13963   7.462   4.932  29.485 -0.4051  0.0741 -0.4766
11764ION     NA13964   7.886   0.495  11.277 -0.2886 -0.2176 -0.0329
11765ION     NA13965  18.498   4.963  10.176 -0.2166  0.4534 -0.3142
11766ION     NA13966  24.622   6.476  30.899  0.3832  0.3217 -0.1308
11767ION     NA13967   2.987   4.968  21.339 -0.1773 -0.1288  0.0796
11768ION     NA13968  15.316   0.154  32.335 -0.0490 -0.3679 -0.2576
11769ION     NA13969  24.999   6.498   2.459  0.2688 -0.5932  0.3027
11770ION     NA13970   4.607   3.789  25.386 -0.2298 -0.2520  0.2888
11771ION     NA13971  20.652   3.341  19.217  0.0508  0.5548  0.0514
11772ION     NA13972   1.513   2.716   2.555  0.3579 -0.1571 -0.1520
11773ION     NA13973   1.634   5.337   7.907  0.0858  0.2277  0.0118
11774ION     NA13974   5.717   0.829   8.364  0.1058 -0.0344  0.2937
11775ION     NA13975   9.384   0.500   0.662  0.1216  0.0311  0.1873
11776ION     NA13976  22.807   4.128  14.668 -0.1304 -0.3173  0.1814
11777ION     NA13977   9.275   0.203   6.601  0.1030  0.0018  0.1220
11778ION     NA13978  17.655   5.841   9.381  0.4169  0.0945 -0.2659
11779ION     NA13979  17.070   4.284  18.068  0.0474  0.0467 -0.2701
11780ION     NA13980   2.682   6.914   1.819 -0.5809  0.0474  0.5287
11781ION     NA13981   7.573   1.150   7.194 -0.1435  0.0022  0.2880
11782ION     NA13982  17.164   6.632  20.446 -0.2607  0.3310  0.1003
11783ION     NA13983  10.159   0.935   0.220 -0.6568 -0.0400 -0.0929
11784ION     NA13984   6.969   6.825  22.813  0.1989 -0.2184  0.0937
11785ION     NA13985  10.242   5.582  23.942  0.1998  0.1645  0.1319
11786ION     NA13986  21.494   0.402   9.709 -0.4412 -0.1836 -0.3879
11787ION     NA13987  20.662   5.240   2.463  0.2794  0.2805  0.1859
11788ION     NA13988   6.844   7.654  28.318 -0.0496 -0.1555  0.0667
11789ION     NA13989  12.172   6.559   7.878  0.0296 -0.0079 -0.1903
11790ION     NA13990  14.639   2.925   1.426  0.1592 -0.1347 -0.3159
11791ION     NA13991  11.418   5.845  22.378  0.1913  0.0809  0.1022
11792ION     NA13992   8.963   3.117  11.246 -0.1323  0.5854 -0.0584
11793ION     NA13993  20.503   5.282   9.732  0.1020 -0.2476  0.0859
11794ION     NA13994  21.152   7.765  22.200 -0.0033 -0.0361  0.1088
11795ION     NA13995  12.515   4.795  24.894  0.0904 -0.0538 -0.2672
11796ION     NA13996  10.476   5.895   6.735 -0.2393  0.1396 -0.1063
11797ION     NA13997   1.085   7.474  10.230  0.2705 -0.0443  0.1396
11798ION     NA13998  15.362   3.159  31.100  0.1233  0.2459  0.5039
11799ION     NA13999  20.441   7.341  17.110  0.3693  0.0648  0.0468
11800ION     NA14000  24.799   2.504   0.519  0.4577  0.3912  0.0161
11801ION     NA14001  23.713   2.141   1.776  0.1777 -0.0453  0.2656
11802ION     NA14002  13.040   7.708   0.395 -0.2445  0.0441 -0.0495
11803ION     NA14003   4.420   7.141  15.400 -0.3706 -0.4765  0.2743
11804ION     NA14004  14.800   6.073  27.578  0.0383  0.0978 -0.1058
11805ION     NA14005  17.029   1.667  25.033  0.4918 -0.1200  0.4031
11806ION     NA14006   7.943   7.575  31.645  0.2392  0.3496 -0.2697
11807ION     NA14007   0.809   4.553   8.504  0.2778  0.2708  0.2440
11808ION     NA14008  19.337   1.983  28.699 -0.0926 -0.1213 -0.0865
11809ION     NA14009   7.019   6.566  15.015  0.0230 -0.0681  0.3583
11810ION     NA14010  11.353   1.865   5.955  0.0580  0.1010  0.5021
11811ION     NA14011   2.731   4.152  26.184  0.1345  0.4551 -0.2067
11812ION     NA14012  10.136   4.105  15.491  0.0712 -0.1505 -0.1738
11813ION     NA14013  19.511   1.561  27.296 -0.1734 -0.0150  0.0282
11814ION     NA14014   6.491   3.636  11.070  0.1645 -0.1008 -0.0453
11815ION     NA14015   0.794   6.270  29.231 -0.3291  0.0372 -0.0123
11816ION     NA14016   5.958   4.433  17.168  0.4006  0.2330 -0.0178
11817ION     NA14017  20.633   5.299  32.496  0.0545 -0.4165 -0.2865
11818ION     NA14018   2.655   2.711   2.663  0.0508 -0.2354  0.2769
11819ION     NA14019  21.864   2.717   7.076  0.2043  0.0182  0.1519
11820ION     NA14020  20.457   1.406  14.305 -0.5033 -0.1590 -0.1246
11821ION     NA14021   0.005   4.930   9.815 -0.1805  0.3036  0.0144
11822ION     NA14022  23.311   0.210   1.378  0.3034 -0.0933  0.2122
11823ION     NA14023   0.478   1.415  22.808 -0.0028 -0.1899  0.0974
11824ION     NA14024  14.558   5.391  27.063 -0.5104  0.0239 -0.2025
11825ION     NA14025  13.198   5.161  14.938  0.2063  0.2021 -0.0224
11826ION     NA14026   7.958   4.368  27.459  0.2257  0.3577  0.2923
11827ION     NA14027  19.422   0.925  15.471 -0.1377 -0.3890 -0.2921
11828ION     NA14028  19.381   6.582  30.269  0.3575  0.3681  0.2163
11829ION     NA14029  22.574   7.089   0.142  0.0300 -0.0109  0.3807
11830ION     NA14030  24.169   3.492   8.266 -0.0420 -0.1784  0.1047
11831ION     NA14031   0.386   4.915  30.442  0.2304 -0.3310 -0.2716
11832ION     NA14032  15.147   0.191  30.632 -0.7244  0.3363  0.1033
11833ION     NA14033  21.771   4.770  32.371 -0.2513  0.0263  0.3297
11834ION     NA14034  23.683   7.626  26.575 -0.0617  0.3322 -0.0009
11835ION     NA14035  22.438   4.600  25.946 -0.5716  0.0631  0.1733
11836ION     NA14036   6.783   0.648   1.640 -0.2589  0.1232  0.0156
11837ION     NA14037   8.132   3.396  18.195  0.1685 -0.1186  0.1510
11838ION     NA14038  24.035   5.299  19.928  0.0839 -0.1370  0.6510
11839ION     NA14039  22.540   7.328  15.111  0.1276  0.2454  0.4616
11840ION     NA14040  13.246   3.544   7.686  0.3305 -0.0958 -0.0489
11841ION     NA14041  16.209   0.782  12.044 -0.4432 -0.1338 -0.0158
11842ION     NA14042   1.184   5.332  31.933 -0.5916 -0.0029 -0.4237
11843ION     CL14043  16.021   7.645  19.135 -0.2658  0.0707 -0.1567
11844ION     CL14044  10.233   7.387  14.958  0.2678  0.1153 -0.1152
11845ION     CL14045   4.380   2.931  13.416  0.2715  0.2295  0.2531
11846ION     CL14046  13.493   7.592   6.418 -0.1706  0.1331  0.0077
11847ION     CL14047   0.554   1.412   1.780 -0.1154  0.0675 -0.2330
11848ION     CL14048  18.095   0.464  17.143  0.3380  0.0374 -0.1299
11849ION     CL14049  20.354   5.975  26.359  0.2135  0.4628  0.0594
11850ION     CL14050  23.192   6.065  29.955 -0.0647 -0.3940 -0.2558
11851ION     CL14051  14.561   6.138  27.826  0.2492 -0.1034  0.1633
11852ION     CL14052  14.877   4.610  11.619  0.2986  0.2149 -0.0643
11853ION     CL14053  23.151   3.902  22.587 -0.1615 -0.2844 -0.2848
11854ION     CL14054  21.838   1.667  24.225 -0.1342 -0.3634  0.1529
11855ION     CL14055  17.223   3.803   5.092  0.0053 -0.1613 -0.3025
11856ION     CL14056  18.952   7.288   4.411 -0.0582 -0.0832  0.1163
11857ION     CL14057  14.221   6.082   1.313  0.0363  0.2191 -0.0209
11858ION     CL14058   7.577   2.413  27.032  0.6080  0.1105 -0.1368
11859ION     CL14059  20.299   7.321   9.106  0.4210 -0.2115 -0.0285
11860ION     CL14060   4.513   7.220  12.411 -0.2511 -0.3782  0.1367
11861ION     CL14061  10.362   5.380  24.261 -0.2253 -0.4711  0.1408
11862ION     CL14062  10.945   4.575   5.757 -0.1008 -0.1566  0.1866
11863ION     CL14063   1.306   6.467   4.356 -0.0976  0.1622 -0.0302
11864ION     CL14064   4.673   3.550  24.088 -0.0456 -0.2413 -0.1654
11865ION     CL14065  12.638   3.661  14.172 -0.0240 -0.0353  0.2917
11866ION     CL14066  19.398   2.561  28.205  0.0699 -0.0603  0.3247
11867ION     CL14067  18.328   2.339  29.174 -0.3439  0.0940  0.1005
11868ION     CL14068  18.043   7.459  17.668 -0.0206 -0.0320  0.0036
11869ION     CL14069  19.079   0.821  25.874  0.3767  0.5018 -0.4350
11870ION     CL14070   5.122   4.097  31.710  0.3655 -0.0197  0.0795
11871ION     CL14071  12.030   0.594  31.692 -0.6279  0.2648 -0.0064
11872ION     CL14072  20.487   4.387   6.482  0.4909 -0.3953 -0.2183
11873ION     CL14073   0.035   6.857  23.064  0.2766  0.1870  0.1500
11874ION     CL14074   9.879   7.659  17.547  0.4957 -0.0710  0.2216
11875ION     CL14075  20.907   4.325  25.008 -0.1083  0.1904  0.1061
11876ION     CL14076   1.335   4.855   6.985  0.1080 -0.1578 -0.2963
11877ION     CL14077   3.314   1.770   2.707  0.0742 -0.3281 -0.3963
11878ION     CL14078  14.913   4.179   2.100 -0.2816 -0.2825  0.2128
11879ION     CL14079  11.631   5.177   0.203  0.3809  0.1092 -0.1470
11880ION     CL14080   2.681   5.400  21.428 -0.2161  0.2172 -0.0879
11881ION     CL14081   1.687   1.027  27.479 -0.1096  0.4446  0.2108
11882ION     CL14082   4.027   2.518   1.613 -0.0907 -0.1848 -0.3606
11883ION     CL14083   5.662   6.006  31.232 -0.0152  0.0456  0.1987
11884ION     CL14084  10.860   2.302  24.723 -0.2148 -0.1540  0.4676
11885ION     CL14085   4.483   7.675   5.081  0.3560 -0.0723  0.1260
11886ION     CL14086  12.656   1.095  30.517  0.1221  0.2083 -0.3142
11887ION     CL14087  23.435   1.302  29.530 -0.4104 -0.4053 -0.1139
11888ION     CL14088   2.273   1.930  29.855  0.0723  0.3240  0.4696
11889ION     CL14089  16.685   4.252   7.796 -0.4206 -0.1565  0.4577
11890ION     CL14090  18.987   6.440   0.832 -0.3138  0.5704 -0.2016
11891ION     CL14091  15.567   0.163  32.049 -0.2811  0.2652  0.1558
11892ION     CL14092   7.725   3.688   1.528  0.4304 -0.0236  0.1029
11893ION     CL14093  15.873   0.184  27.908 -0.2231  0.0672  0.1719
11894ION     CL14094   2.784   1.660   5.547 -0.1309 -0.3432 -0.3476
11895ION     CL14095   6.613   3.972  15.349 -0.2249  0.0920  0.3623
11896ION     CL14096  11.641   2.076   8.585  0.0639 -0.0305 -0.0610
11897ION     CL14097   6.961   2.637   7.803  0.4190 -0.4582  0.0724
11898ION     CL14098  10.301   1.504  31.865 -0.1099  0.0883  0.0463
11899ION     CL14099   4.152   4.183  27.011 -0.1450  0.0052 -0.0979
11900ION     CL14100   7.274   4.448   2.683  0.1053  0.3555  0.2042
11901ION     CL14101  16.357   7.291  11.335  0.0855  0.2982 -0.1385
11902ION     CL14102   3.550   5.871  25.297 -0.4371  0.2677  0.2170
11903ION     CL14103   0.640   4.960  31.974  0.0980 -0.3872 -0.2676
11904ION     CL14104  17.843   2.299  25.292 -0.2982  0.2556 -0.2526
11905ION     CL14105   9.770   6.912  14.014 -0.1576 -0.0480 -0.2313
11906ION     CL14106  22.820   7.419  26.030 -0.0299  0.0794  0.3431
11907ION     CL14107  12.258   6.610  22.762 -0.0316 -0.4080  0.4102
11908ION     CL14108  21.448   1.712   4.185 -0.2454  0.4236 -0.0744
11909ION     CL14109   6.353   1.555  24.649 -0.4550 -0.1213 -0.3786
11910ION     CL14110   6.709   1.720  23.246 -0.3548 -0.2111 -0.2314
11911ION     CL14111  22.316   2.605  16.502 -0.3645 -0.1267  0.4664
11912ION     CL14112   7.384   6.429   0.212 -0.2265 -0.2859  0.5936
11913ION     CL14113   8.684   1.751  14.886  0.0012 -0.0929  0.1916
11914ION     CL14114   2.799   0.102   6.122  0.0588  0.2642 -0.3790
11915ION     CL14115  14.550   6.840  23.088 -0.0116  0.1219 -0.2032
11916ION     CL14116  15.106   3.020  26.454 -0.5155 -0.4147  0.1042
11917ION     CL14117   4.609   2.529  31.556 -0.3349 -0.4289  0.5081
11918ION     CL14118  18.648   0.211  20.652  0.2879  0.1728 -0.1935
11919ION     CL14119   1.336   1.269  28.965 -0.1100 -0.1413 -0.1666
11920ION     CL14120  24.143   4.013   0.033  0.0843  0.3506  0.1407
11921ION     CL14121  13.562   3.308  29.907  0.4209 -0.4561  0.3265
11922ION     CL14122  20.465   4.529  24.193 -0.2680 -0.2260 -0.1314
11923ION     CL14123   0.044   3.146  17.363 -0.0250 -0.4184 -0.0613
11924ION     CL14124  14.480   6.372   0.374  0.0637 -0.4818 -0.0443
11925ION     CL14125   3.299   7.414   4.319  0.4819  0.0747  0.3145
11926ION     CL14126  11.684   6.454   3.838  0.0180 -0.1010 -0.1996
11927ION     CL14127   6.744   1.450  28.542  0.1674  0.3259  0.2164
11928ION     CL14128   9.583   2.521   2.493 -0.0855 -0.0044 -0.3182
11929ION     CL14129   8.090   6.193   1.611  0.1263 -0.1389  0.2476
11930ION     CL14130  22.345   1.957  19.571 -0.1549  0.1159 -0.3849
11931ION     CL14131   3.673   2.920  11.890 -0.1104 -0.1810 -0.7731
11932ION     CL14132  21.673   2.960  24.523  0.4649  0.1885  0.2813
11933ION     CL14133  15.720   5.742   8.882 -0.0642  0.3257 -0.0498
11934ION     CL14134   4.616   3.571  27.626  0.3407 -0.0781 -0.0974
11935ION     CL14135  16.473   6.732   9.865  0.4104  0.0412  0.0253
11936ION     CL14136  24.326   3.900  31.840  0.0423 -0.1564  0.4972
11937ION     CL14137   7.732   0.351  13.793 -0.5399  0.4730 -0.4502
11938ION     CL14138   0.461   6.233  29.309 -0.4888  0.1466 -0.1687
11939ION     CL14139  17.364   1.542   9.868  0.4992 -0.0387 -0.0191
11940ION     CL14140  19.611   6.216  24.717  0.0837 -0.1806 -0.4521
11941ION     CL14141   4.867   5.174   2.041  0.2096 -0.0577 -0.0168
11942ION     CL14142  19.609   5.138  20.944 -0.6099  0.0264  0.0188
11943ION     CL14143   6.765   7.488  31.119  0.2674  0.4631  0.0195
11944ION     CL14144  14.557   5.290   1.437 -0.2396 -0.3873 -0.0790
11945ION     CL14145   6.425   0.774   6.432 -0.3054  0.0670 -0.0045
11946ION     CL14146   2.105   3.786   5.899  0.0562  0.1962 -0.1471
11947ION     CL14147  24.725   1.582  20.081 -0.5124  0.1482  0.0078
11948ION     CL14148  17.154   5.122   4.970 -0.3576  0.2788  0.0718
11949ION     CL14149  18.677   1.279  31.784 -0.2593 -0.1347  0.0646
11950ION     CL14150   1.342   1.977   2.085  0.0617  0.0147 -0.0840
11951ION     CL14151   9.346   1.456  12.503 -0.2186  0.1050  0.0259
11952ION     CL14152   6.728   2.733   8.841  0.5850 -0.1792 -0.2040
11953ION     CL14153   1.451   5.768  22.836  0.0377  0.3194 -0.0447
11954ION     CL14154  22.472   7.818  25.600 -0.3188 -0.1818  0.0678
11955ION     CL14155  17.430   6.618  18.966  0.3601  0.2150 -0.3210
11956ION     CL14156  17.032   3.927  18.056 -0.0576 -0.3547  0.2148
11957ION     CL14157   1.612   2.200   2.656 -0.0896 -0.0399 -0.2475
11958ION     CL14158   5.206   4.252  23.074 -0.4938 -0.0149  0.0618
11959ION     CL14159  14.574   2.245   1.290  0.1889 -0.3454  0.0307
11960ION     CL14160  21.744   7.545  23.329 -0.0178 -0.1146  0.3328
11961ION     CL14161  19.521   6.685  22.689 -0.5205 -0.2427  0.0947
11962ION     CL14162  10.293   5.601  15.250  0.2719  0.3920 -0.1250
11963ION     CL14163  13.397   6.045  29.527  0.4381  0.3175 -0.2514
11964ION     CL14164  13.530   4.250   1.644  0.1170  0.1989 -0.5016
11965ION     CL14165   3.691   1.803   4.374 -0.0460  0.0655  0.2392
11966ION     CL14166   1.664   0.113  26.406  0.2192  0.4197 -0.1651
11967ION     CL14167   3.942   1.670  30.611 -0.2476 -0.1946  0.0652
11968ION     CL14168  10.680   2.303  23.430  0.1297  0.1194  0.4131
11969ION     CL14169   5.975   5.052  28.753  0.2950 -0.0033  0.0862
11970ION     CL14170  16.834   1.498  27.712  0.0417  0.0031 -0.3114
11971ION     CL14171  13.967   2.224   9.381  0.0561 -0.3075 -0.2122
11972ION     CL14172  10.116   6.520  23.717  0.1190  0.4456  0.0723
11973ION     CL14173  10.767   2.391   3.617  0.2230  0.0671  0.1682
11974ION     CL14174  18.746   7.503  28.177 -0.2985  0.2101  0.1957
11975ION     CL14175   4.804   6.507   2.256  0.2750 -0.0805 -0.0272
11976ION     CL14176  13.441   3.722   2.676 -0.2451 -0.6430 -0.3686
11977ION     CL14177   0.697   2.337  28.583 -0.3701 -0.1214  0.2466
11978ION     CL14178  13.187   2.297   2.179 -0.2155 -0.2938 -0.4592
11979ION     CL14179  20.479   1.737  19.110 -0.1247 -0.4066 -0.0997
11980ION     CL14180   3.422   5.284  12.322 -0.0411 -0.0881  0.1419
11981ION     CL14181  21.406   6.585   5.679 -0.1910  0.1610  0.2939
11982ION     CL14182  12.643   0.607  28.171 -0.0985 -0.0944 -0.0442
11983ION     CL14183   1.408   4.723  21.041 -0.1286  0.2666  0.1209
11984ION     CL14184  20.243   4.847   2.206 -0.0001 -0.1710 -0.1122
11985ION     CL14185  21.285   5.356   8.577 -0.1438 -0.3954  0.0675
11986ION     CL14186  19.667   1.883   0.741 -0.1276  0.3111 -0.3968
11987ION     CL14187   9.849   7.138   9.654  0.4592 -0.1373 -0.0638
11988DOPC   NC314188   3.542   7.667  20.869  0.2751  0.2380 -0.0751
11988DOPC   PO414189   3.411   8.042  20.817  0.0190  0.0465  0.0520
11988DOPC   GL114190   3.639   8.203  20.503 -0.3030  0.0013  0.3630
11988DOPC   GL214191   3.804   7.982  20.564  0.0337 -0.0250  0.1377
11988DOPC   C1A14192   3.610   8.327  20.110  0.2974 -0.0670 -0.1062
11988DOPC   D2A14193   3.326   8.450  19.760  0.4577  0.2811 -0.0766
11988DOPC   C3A14194   3.149   8.657  19.405 -0.1871 -0.2448  0.1313
11988DOPC   C4A14195   3.438   8.659  19.002  0.0252 -0.4061  0.2118
11988DOPC   C1B14196   3.908   7.849  20.106  0.3988 -0.1072 -0.1385
11988DOPC   D2B14197   4.235   7.743  19.743  0.2146 -0.4042 -0.0717
11988DOPC   C3B14198   4.624   7.547  19.842 -0.2306 -0.2093  0.0860
11988DOPC   C4B14199   5.050   7.536  19.641  0.3134 -0.0474  0.1994
11989DOPC   NC314200   0.937   5.576  17.015 -0.0248 -0.0282 -0.2229
11989DOPC   PO414201   0.979   5.193  16.979  0.1703 -0.1791 -0.3796
11989DOPC   GL114202   1.046   5.068  16.655 -0.0587 -0.1820 -0.1064
11989DOPC   GL214203   1.052   5.371  16.518 -0.2187  0.1741  0.1534
11989DOPC   C1A14204   1.384   4.938  16.388  0.2322 -0.0537 -0.1301
11989DOPC   D2A14205   1.475   4.983  15.944 -0.1408 -0.0179  0.0488
11989DOPC   C3A14206   1.812   5.242  15.876 -0.3443 -0.4270 -0.0736
11989DOPC   C4A14207   2.234   5.521  15.906  0.2716 -0.0155  0.1803
11989DOPC   C1B14208   1.386   5.402  16.233  0.0482 -0.1049 -0.1122
11989DOPC   D2B14209   1.705   5.683  16.079 -0.1917 -0.4161  0.2817
11989DOPC   C3B14210   2.015   6.062  15.976  0.4458 -0.0934  0.2834
11989DOPC   C4B14211   2.358   6.385  15.764  0.0664  0.0564 -0.0264
11990DOPC   NC314212  23.124   4.978  14.505 -0.2159 -0.2906 -0.0607
11990DOPC   PO414213  23.039   4.643  14.301 -0.0069 -0.1767  0.0487
11990DOPC   GL114214  22.905   4.598  13.906  0.1241 -0.1033  0.0178
11990DOPC   GL214215  23.032   4.414  13.859  0.2341 -0.0668 -0.1457
11990DOPC   C1A14216  23.015   4.712  13.472 -0.2235  0.1182 -0.0103
11990DOPC   D2A14217  23.159   4.640  12.978  0.0443 -0.1725  0.0963
11990DOPC   C3A14218  22.833   4.577  12.662  0.1733 -0.0228 -0.1689
11990DOPC   C4A14219  22.498   4.235  12.549  0.0052 -0.0486  0.0478
11990DOPC   C1B14220  23.480   4.366  13.776 -0.1159 -0.2310  0.0982
11990DOPC   D2B14221  23.904   4.022  13.683  0.1380  0.2632  0.2318
11990DOPC   C3B14222  23.923   3.555  13.502  0.0958 -0.0225  0.0742
11990DOPC   C4B14223  23.930   3.055  13.351  0.1310 -0.0048  0.0639
11991DOPC   NC314224  12.312   3.143  21.547  0.1463  0.0387 -0.2431
11991DOPC   PO414225  12.129   2.802  21.588  0.0266 -0.2620 -0.1519
11991DOPC   GL114226  12.186   2.891  21.186 -0.0274  0.1111 -0.3584
11991DOPC   GL214227  11.912   3.034  21.223  0.3415  0.0426 -0.1680
11991DOPC   C1A14228  12.341   2.877  20.794 -0.1178  0.0914 -0.1439
11991DOPC   D2A14229  12.637   2.652  20.375  0.0187  0.1026 -0.0926
11991DOPC   C3A14230  13.003   2.389  20.239 -0.0521 -0.2633  0.2286
11991DOPC   C4A14231  13.031   2.271  19.755 -0.0980 -0.0618  0.1638
11991DOPC   C1B14232  11.701   2.852  20.972 -0.0315  0.2183 -0.0579
11991DOPC   D2B14233  11.362   2.450  21.035 -0.2264 -0.1859  0.1836
11991DOPC   C3B14234  11.383   2.127  20.685 -0.0068 -0.1416 -0.0181
11991DOPC   C4B14235  11.355   1.658  20.580 -0.4243  0.0785 -0.1971
11992DOPC   NC314236  21.527   2.173  13.934  0.0096  0.0917  0.0651
11992DOPC   PO414237  21.436   1.839  14.140  0.3704  0.1840  0.0991
11992DOPC   GL114238  21.275   1.562  13.851  0.2588 -0.0477 -0.2312
11992DOPC   GL214239  21.445   1.623  13.660  0.2836  0.0907 -0.2972
11992DOPC   C1A14240  20.947   1.534  13.560 -0.2423 -0.1108 -0.0919
11992DOPC   D2A14241  20.727   1.759  13.244  0.1646 -0.2698 -0.0188
11992DOPC   C3A14242  20.389   2.049  13.061 -0.0441  0.0907  0.1082
11992DOPC   C4A14243  20.057   2.230  12.767 -0.2329 -0.0397 -0.0360
11992DOPC   C1B14244  21.585   2.007  13.469 -0.3602  0.0786 -0.2310
11992DOPC   D2B14245  21.581   2.388  13.258  0.0929  0.2394  0.3138
11992DOPC   C3B14246  21.323   2.449  12.788  0.0179  0.1548 -0.0682
11992DOPC   C4B14247  20.888   2.605  12.595  0.0338  0.2241  0.1174
11993DOPC   NC314248  14.558   5.998  20.680  0.0060 -0.0057  0.1372
11993DOPC   PO414249  14.552   5.769  20.361  0.2073  0.2103 -0.2243
11993DOPC   GL114250  14.190   5.742  20.104  0.2459 -0.2280  0.1543
11993DOPC   GL214251  14.114   6.023  20.063  0.1841 -0.0341  0.1602
11993DOPC   C1A14252  13.877   5.470  20.019  0.2573 -0.0366  0.0600
11993DOPC   D2A14253  13.457   5.270  19.895  0.0285 -0.2763 -0.0249
11993DOPC   C3A14254  13.026   5.130  19.786  0.1004 -0.1979  0.0391
11993DOPC   C4A14255  12.654   4.827  19.772 -0.1117  0.1268 -0.0930
11993DOPC   C1B14256  14.017   6.263  19.688  0.4456  0.0278  0.0813
11993DOPC   D2B14257  13.676   6.513  19.382  0.0807 -0.0409 -0.1622
11993DOPC   C3B14258  13.344   6.428  19.110  0.0078  0.1874 -0.1955
11993DOPC   C4B14259  12.885   6.529  18.865 -0.0379 -0.2583 -0.4403
11994DOPC   NC314260  16.843   6.397  16.849 -0.1528  0.2242  0.3439
11994DOPC   PO414261  16.484   6.294  17.011  0.0125 -0.1545  0.1096
11994DOPC   GL114262  16.076   6.352  16.847  0.1243 -0.1253  0.3763
11994DOPC   GL214263  16.124   6.126  16.676  0.2850  0.1288  0.0913
11994DOPC   C1A14264  15.742   6.196  16.833  0.0979  0.1142  0.2013
11994DOPC   D2A14265  15.269   6.182  16.940 -0.1727 -0.0923 -0.1112
11994DOPC   C3A14266  14.919   6.444  16.703 -0.1578 -0.1368 -0.0046
11994DOPC   C4A14267  14.583   6.682  16.423 -0.1339 -0.2062  0.1347
11994DOPC   C1B14268  15.806   6.035  16.377 -0.0185 -0.1848  0.0226
11994DOPC   D2B14269  15.589   5.824  15.950  0.1336 -0.2725 -0.2073
11994DOPC   C3B14270  15.617   5.877  15.503 -0.2065  0.0732 -0.1360
11994DOPC   C4B14271  15.525   6.161  15.088  0.0496  0.0388  0.1713
11995DOPC   NC314272   2.782   5.813  20.551 -0.0547 -0.0310 -0.3930
11995DOPC   PO414273   2.779   5.424  20.483  0.2573 -0.0428  0.3766
11995DOPC   GL114274   2.972   5.177  20.157 -0.1330 -0.0008 -0.0505
11995DOPC   GL214275   2.750   5.172  19.990  0.0082  0.0531 -0.4915
11995DOPC   C1A14276   3.373   5.044  19.903  0.1979  0.1199 -0.0255
11995DOPC   D2A14277   3.660   4.908  19.525 -0.2688 -0.1053  0.1206
11995DOPC   C3A14278   3.975   5.041  19.284 -0.0570  0.1214  0.3263
11995DOPC   C4A14279   4.470   5.174  19.165  0.0308  0.1052 -0.2157
11995DOPC   C1B14280   2.956   5.083  19.634 -0.3473 -0.1479 -0.0149
11995DOPC   D2B14281   3.290   5.043  19.221  0.3610 -0.2071 -0.1683
11995DOPC   C3B14282   3.616   4.923  18.868  0.3068 -0.0547  0.2854
11995DOPC   C4B14283   3.898   4.732  18.483  0.0518 -0.0446  0.2161
11996DOPC   NC314284   7.635   6.084  22.893 -0.3609 -0.4093 -0.2369
11996DOPC   PO414285   8.018   6.050  22.817  0.0030  0.1163  0.2523
11996DOPC   GL114286   8.116   6.107  22.412  0.3388  0.1216 -0.2273
11996DOPC   GL214287   8.248   6.324  22.506 -0.2143  0.0706 -0.0605
11996DOPC   C1A14288   7.866   6.304  22.109  0.1778  0.1879  0.0125
11996DOPC   D2A14289   7.744   6.681  21.820  0.0725  0.3658 -0.0319
11996DOPC   C3A14290   7.395   6.735  21.555  0.0866  0.2397  0.1126
11996DOPC   C4A14291   6.957   6.906  21.411  0.0330  0.0399  0.0324
11996DOPC   C1B14292   8.476   6.372  22.068  0.2591 -0.0770  0.2238
11996DOPC   D2B14293   8.732   6.275  21.689 -0.1244  0.3321  0.0970
11996DOPC   C3B14294   8.633   6.149  21.266  0.1114 -0.0194  0.1940
11996DOPC   C4B14295   8.334   6.064  20.844  0.0301  0.0338 -0.3219
11997DOPC   NC314296  17.616   0.268  16.119  0.0177 -0.0174  0.1372
11997DOPC   PO414297  17.627   0.675  16.232  0.2360 -0.0908 -0.3269
11997DOPC   GL114298  17.277   0.802  16.094 -0.2053  0.2499  0.0525
11997DOPC   GL214299  17.097   0.774  16.297  0.0014  0.2009  0.1111
11997DOPC   C1A14300  17.171   0.995  15.659 -0.1448  0.0369  0.0179
11997DOPC   D2A14301  17.039   1.216  15.231 -0.2270  0.1661  0.1021
11997DOPC   C3A14302  17.048   1.339  14.829 -0.1376  0.0063  0.0161
11997DOPC   C4A14303  17.017   1.680  14.465 -0.0516  0.3469  0.0615
11997DOPC   C1B14304  16.717   0.803  16.081 -0.1778 -0.1281 -0.0855
11997DOPC   D2B14305  16.298   0.842  15.806  0.3106 -0.2330  0.0825
11997DOPC   C3B14306  16.078   0.678  15.418 -0.3500  0.1045  0.0421
11997DOPC   C4B14307  15.745   0.612  15.081 -0.2623  0.0489  0.3008
11998DOPC   NC314308  19.959   3.117  13.935 -0.0822 -0.0273  0.0935
11998DOPC   PO414309  19.681   3.391  13.977 -0.3484 -0.1985 -0.0117
11998DOPC   GL114310  19.523   3.672  13.767 -0.1275 -0.1774  0.3702
11998DOPC   GL214311  19.504   3.575  13.495  0.0868 -0.0407  0.0194
11998DOPC   C1A14312  19.146   3.847  13.653 -0.1774  0.0072 -0.1484
11998DOPC   D2A14313  18.933   4.120  13.374  0.1074  0.0658 -0.0224
11998DOPC   C3A14314  18.586   3.986  13.230 -0.0797 -0.0480  0.0140
11998DOPC   C4A14315  18.116   3.804  13.219 -0.0497  0.1513 -0.1171
11998DOPC   C1B14316  19.454   3.790  13.117 -0.0159  0.3825  0.0488
11998DOPC   D2B14317  19.453   4.098  12.737  0.3500 -0.1134  0.0106
11998DOPC   C3B14318  19.544   3.953  12.346  0.1085  0.0770  0.2149
11998DOPC   C4B14319  19.486   3.783  11.907 -0.0431  0.1033  0.0838
11999DOPC   NC314320  18.874   0.835  15.159 -0.1793 -0.0426  0.1298
11999DOPC   PO414321  18.769   1.016  14.813  0.1028  0.1810 -0.2206
11999DOPC   GL114322  18.465   0.900  14.571 -0.0338  0.0542  0.3166
11999DOPC   GL214323  18.215   1.070  14.685  0.0276 -0.2470 -0.2708
11999DOPC   C1A14324  18.613   0.797  14.181  0.0525  0.2024  0.1541
11999DOPC   D2A14325  18.543   0.922  13.687 -0.3795  0.2069  0.0361
11999DOPC   C3A14326  18.917   1.210  13.656 -0.0979  0.0728  0.1527
11999DOPC   C4A14327  19.299   1.535  13.552  0.1628 -0.2003 -0.3741
11999DOPC   C1B14328  17.853   1.081  14.471 -0.3185  0.2079  0.2033
11999DOPC   D2B14329  17.668   1.211  14.040 -0.1278 -0.0734  0.1159
11999DOPC   C3B14330  17.595   1.688  13.990  0.4155  0.2229 -0.3433
11999DOPC   C4B14331  17.465   2.117  13.766 -0.3224 -0.1106 -0.0109
12000DOPC   NC314332  24.549   5.980  16.369 -0.0766  0.0017 -0.1218
12000DOPC   PO414333  24.956   5.966  16.424 -0.2059  0.0070 -0.1513
12000DOPC   GL114334  25.293   6.063  16.189 -0.2868 -0.0410  0.0761
12000DOPC   GL214335  25.287   6.381  16.113 -0.1929  0.4577  0.2863
12000DOPC   C1A14336  25.654   6.023  15.935 -0.1380 -0.0242  0.0596
12000DOPC   D2A14337  25.991   5.907  15.591  0.0730 -0.1537 -0.4018
12000DOPC   C3A14338  26.393   6.005  15.335 -0.0089  0.1260 -0.1369
12000DOPC   C4A14339  26.811   5.884  15.028 -0.0095 -0.0607 -0.1725
12000DOPC   C1B14340  25.717   6.554  16.074  0.0945  0.0214 -0.0599
12000DOPC   D2B14341  26.105   6.363  15.832 -0.1490  0.1612 -0.2261
12000DOPC   C3B14342  26.571   6.227  15.859 -0.2151  0.2678 -0.0245
12000DOPC   C4B14343  26.941   6.594  15.899 -0.1869  0.1980 -0.0386
12001DOPC   NC314344  21.106   1.040  14.698  0.0646  0.0064 -0.1342
12001DOPC   PO414345  20.993   0.901  14.309  0.1478  0.1470  0.0871
12001DOPC   GL114346  21.175   0.752  13.850 -0.1164 -0.0699 -0.2919
12001DOPC   GL214347  20.844   0.731  13.795 -0.1814  0.1611  0.0785
12001DOPC   C1A14348  21.494   0.704  13.560 -0.0404  0.2826  0.0870
12001DOPC   D2A14349  21.826   0.664  13.194 -0.0491  0.1972 -0.2007
12001DOPC   C3A14350  21.960   0.578  12.753  0.1577  0.2397 -0.1778
12001DOPC   C4A14351  22.218   0.285  12.414  0.3278  0.1952 -0.1687
12001DOPC   C1B14352  20.539   1.058  13.565 -0.2072  0.1801  0.1156
12001DOPC   D2B14353  20.345   1.468  13.300 -0.1088 -0.0758  0.2014
12001DOPC   C3B14354  20.213   1.552  12.902 -0.1093 -0.0410  0.0400
12001DOPC   C4B14355  20.002   1.760  12.593 -0.2288 -0.2078  0.4055
12002DOPC   NC314356  17.882   1.528  15.896 -0.0813  0.0341  0.2362
12002DOPC   PO414357  17.575   1.573  16.162 -0.1149  0.0778 -0.0367
12002DOPC   GL114358  17.341   1.763  15.899 -0.3292 -0.4258 -0.1996
12002DOPC   GL214359  17.506   1.877  15.652  0.4002 -0.2186  0.1902
12002DOPC   C1A14360  16.950   1.682  15.737 -0.2984 -0.1215  0.0343
12002DOPC   D2A14361  16.582   1.731  15.365 -0.2253  0.1601  0.1163
12002DOPC   C3A14362  16.157   1.683  15.175  0.1358  0.0394  0.0239
12002DOPC   C4A14363  15.944   1.707  14.699 -0.4560 -0.3370 -0.1716
12002DOPC   C1B14364  17.151   1.943  15.347  0.3710  0.2562 -0.4342
12002DOPC   D2B14365  16.754   2.234  15.167  0.2107 -0.0528  0.2356
12002DOPC   C3B14366  16.599   2.406  14.789  0.2441 -0.1091  0.1653
12002DOPC   C4B14367  16.533   2.603  14.294  0.0620 -0.0899 -0.1794
12003DOPC   NC314368  15.876   3.634  18.507  0.2876  0.0930  0.1617
12003DOPC   PO414369  15.815   3.997  18.466  0.2285 -0.2946  0.1541
12003DOPC   GL114370  15.690   4.274  18.207 -0.2860  0.1477  0.0555
12003DOPC   GL214371  15.783   4.178  17.964  0.3999  0.0108  0.1670
12003DOPC   C1A14372  15.280   4.472  18.152  0.0795  0.0291 -0.1192
12003DOPC   D2A14373  14.884   4.787  18.073  0.2892  0.1827 -0.0138
12003DOPC   C3A14374  14.414   4.692  18.022  0.0947 -0.0031  0.1852
12003DOPC   C4A14375  14.209   4.788  17.571  0.1099 -0.0275  0.0030
12003DOPC   C1B14376  15.400   4.099  17.746  0.0201  0.1408  0.2438
12003DOPC   D2B14377  14.902   3.963  17.517  0.1868 -0.1486  0.3196
12003DOPC   C3B14378  14.839   4.246  17.207  0.1392  0.0570 -0.1695
12003DOPC   C4B14379  14.611   4.483  16.868 -0.0106 -0.0171 -0.1409
12004DOPC   NC314380  16.197   6.268  18.405  0.1282 -0.1159  0.1297
12004DOPC   PO414381  15.865   6.065  18.254  0.3839 -0.1608  0.0993
12004DOPC   GL114382  15.825   5.736  17.926  0.0191 -0.1453  0.1658
12004DOPC   GL214383  15.767   5.573  18.064 -0.2045  0.0370 -0.3037
12004DOPC   C1A14384  15.628   5.790  17.542  0.1527 -0.1022 -0.0186
12004DOPC   D2A14385  15.328   5.646  17.168 -0.1520  0.2692 -0.1071
12004DOPC   C3A14386  14.957   5.682  16.951  0.2176 -0.1357 -0.1098
12004DOPC   C4A14387  14.586   5.751  16.719 -0.1238  0.0628  0.1321
12004DOPC   C1B14388  15.367   5.665  18.054  0.1934  0.0163 -0.1428
12004DOPC   D2B14389  15.026   5.750  17.736  0.0729  0.2085 -0.0521
12004DOPC   C3B14390  14.650   6.047  17.682  0.1968  0.1643 -0.2496
12004DOPC   C4B14391  14.178   6.230  17.539  0.2589  0.0452 -0.0882
12005DOPC   NC314392   1.194   1.681  18.640  0.1404  0.0363  0.4705
12005DOPC   PO414393   1.534   1.745  18.432 -0.2075 -0.1090 -0.1256
12005DOPC   GL114394   1.928   1.543  18.507  0.2712 -0.5712 -0.1246
12005DOPC   GL214395   2.051   1.849  18.381 -0.0443  0.0662 -0.2533
12005DOPC   C1A14396   2.119   1.251  18.175  0.3086  0.0632  0.1835
12005DOPC   D2A14397   2.490   1.093  17.877 -0.1540  0.0099  0.3795
12005DOPC   C3A14398   2.779   1.070  17.556 -0.0178 -0.1161 -0.0601
12005DOPC   C4A14399   2.839   1.013  17.050 -0.1549  0.0480 -0.0763
12005DOPC   C1B14400   2.308   1.825  18.060 -0.0950 -0.1925 -0.0475
12005DOPC   D2B14401   2.358   1.882  17.552  0.0630 -0.1666  0.0172
12005DOPC   C3B14402   2.694   2.015  17.213 -0.3314  0.0428  0.1068
12005DOPC   C4B14403   2.974   2.144  16.833  0.0734  0.3585 -0.0145
12006DOPC   NC314404  18.011   6.373  15.330 -0.1284  0.0543 -0.0255
12006DOPC   PO414405  17.651   6.629  15.382 -0.0986 -0.2158 -0.3127
12006DOPC   GL114406  17.227   6.782  15.280 -0.1389 -0.2264 -0.2155
12006DOPC   GL214407  17.433   6.821  14.965  0.1560  0.0925 -0.1873
12006DOPC   C1A14408  16.938   7.082  15.481 -0.0805 -0.1666 -0.0899
12006DOPC   D2A14409  16.576   7.444  15.590  0.0615  0.0732 -0.0594
12006DOPC   C3A14410  16.451   7.288  16.058  0.1871 -0.1611 -0.2674
12006DOPC   C4A14411  16.267   6.986  16.322  0.2781  0.0490  0.1562
12006DOPC   C1B14412  17.376   6.458  14.803  0.0610 -0.1181  0.1135
12006DOPC   D2B14413  16.875   6.275  14.719 -0.3620  0.0664 -0.0968
12006DOPC   C3B14414  16.421   6.313  14.723 -0.1979 -0.1213 -0.0634
12006DOPC   C4B14415  15.990   6.072  14.605  0.2583  0.1611 -0.1423
12007DOPC   NC314416  17.052   3.654  16.974 -0.0137 -0.1765 -0.0673
12007DOPC   PO414417  17.041   3.937  16.732  0.0781  0.1208 -0.1908
12007DOPC   GL114418  16.680   4.162  16.620 -0.2521 -0.2172  0.2018
12007DOPC   GL214419  16.593   3.905  16.442 -0.2323  0.2416 -0.0464
12007DOPC   C1A14420  16.553   4.396  16.285 -0.0113 -0.0393  0.2864
12007DOPC   D2A14421  16.274   4.733  16.046 -0.0838 -0.0342  0.4228
12007DOPC   C3A14422  16.217   4.744  15.577  0.0513  0.2133 -0.1459
12007DOPC   C4A14423  15.908   4.956  15.140 -0.3867  0.0258  0.2852
12007DOPC   C1B14424  16.479   3.964  16.058 -0.0517 -0.1209 -0.2512
12007DOPC   D2B14425  16.019   3.968  15.901 -0.2710 -0.1837  0.0094
12007DOPC   C3B14426  15.604   3.836  15.741 -0.2611 -0.0983  0.1131
12007DOPC   C4B14427  15.102   3.650  15.676 -0.0132 -0.1709 -0.0609
12008DOPC   NC314428  22.722   3.224  14.394 -0.0677 -0.1110  0.1640
12008DOPC   PO414429  23.096   3.091  14.453 -0.1787 -0.1359 -0.2272
12008DOPC   GL114430  23.144   2.800  14.072  0.0671 -0.2787  0.0120
12008DOPC   GL214431  22.832   2.874  14.137  0.0568  0.2718  0.0373
12008DOPC   C1A14432  23.328   2.333  13.957  0.2729 -0.0391  0.1670
12008DOPC   D2A14433  23.220   1.965  13.650  0.0117  0.1907 -0.1691
12008DOPC   C3A14434  23.524   1.680  13.377  0.0052 -0.0914 -0.2339
12008DOPC   C4A14435  23.823   1.498  13.076  0.0734  0.2100  0.2972
12008DOPC   C1B14436  22.536   2.988  13.823  0.2849  0.0488  0.1127
12008DOPC   D2B14437  22.304   3.035  13.401  0.1243 -0.1847 -0.0704
12008DOPC   C3B14438  22.031   2.963  13.047  0.1463  0.1024 -0.0985
12008DOPC   C4B14439  21.648   2.822  12.720 -0.1192 -0.2666  0.1464
12009DOPC   NC314440   5.246   2.567  21.806 -0.0466 -0.0815  0.3649
12009DOPC   PO414441   5.305   2.948  21.707  0.1243 -0.2037  0.2881
12009DOPC   GL114442   5.395   2.940  21.332 -0.2927  0.0925  0.0227
12009DOPC   GL214443   5.682   2.809  21.338  0.1249 -0.1066  0.0212
12009DOPC   C1A14444   5.278   3.373  21.181 -0.0867  0.1199 -0.0464
12009DOPC   D2A14445   5.173   3.804  20.942  0.0568 -0.2482  0.1952
12009DOPC   C3A14446   5.032   4.015  20.529  0.1698  0.4728 -0.3604
12009DOPC   C4A14447   4.586   4.202  20.448 -0.1238  0.0095 -0.0211
12009DOPC   C1B14448   5.954   2.849  21.023 -0.0937  0.2118 -0.0178
12009DOPC   D2B14449   6.253   2.610  20.683 -0.4797  0.2285  0.0129
12009DOPC   C3B14450   6.674   2.610  20.528  0.0423  0.1263 -0.1651
12009DOPC   C4B14451   7.055   2.815  20.224  0.2177  0.1387 -0.1549
12010DOPC   NC314452  15.626   5.022  19.179  0.0669 -0.0497 -0.1817
12010DOPC   PO414453  15.430   4.694  19.045  0.1725 -0.1046 -0.0672
12010DOPC   GL114454  15.030   4.646  18.858  0.2272  0.1592  0.3055
12010DOPC   GL214455  15.047   4.374  18.863  0.0852  0.2552 -0.2347
12010DOPC   C1A14456  14.784   4.807  18.557  0.1153  0.2638  0.1648
12010DOPC   D2A14457  14.397   5.047  18.388  0.2749 -0.1272 -0.1189
12010DOPC   C3A14458  14.115   5.123  17.976  0.0200 -0.3002 -0.2617
12010DOPC   C4A14459  13.882   5.197  17.611  0.2509 -0.0604 -0.3591
12010DOPC   C1B14460  14.876   4.262  18.499 -0.2122  0.2030  0.2115
12010DOPC   D2B14461  14.519   4.118  18.174 -0.0274  0.1301  0.1876
12010DOPC   C3B14462  14.065   4.237  18.094  0.1634 -0.1484  0.2522
12010DOPC   C4B14463  13.595   4.292  17.958  0.0712  0.1235  0.2621
12011DOPC   NC314464  21.466   5.484  14.121  0.2465 -0.5464  0.2814
12011DOPC   PO414465  21.186   5.503  14.375  0.1156  0.1196 -0.0905
12011DOPC   GL114466  20.874   5.508  14.172  0.0868  0.0657 -0.2880
12011DOPC   GL214467  21.065   5.343  13.926 -0.2725  0.0292 -0.1941
12011DOPC   C1A14468  20.559   5.599  13.854 -0.2252 -0.1231  0.1540
12011DOPC   D2A14469  20.213   5.580  13.522 -0.2188 -0.2389  0.0423
12011DOPC   C3A14470  20.040   5.346  13.146  0.0523 -0.1854  0.1385
12011DOPC   C4A14471  19.865   5.296  12.718  0.3113 -0.1444 -0.3107
12011DOPC   C1B14472  20.989   5.261  13.440 -0.0899 -0.0543 -0.2395
12011DOPC   D2B14473  21.037   5.417  13.011 -0.0860  0.3300  0.0384
12011DOPC   C3B14474  21.248   5.578  12.606  0.1215  0.0851 -0.0804
12011DOPC   C4B14475  21.561   5.721  12.325  0.0302 -0.0007  0.0266
12012DOPC   NC314476   6.788   4.776  22.245  0.0145  0.0408 -0.0009
12012DOPC   PO414477   7.133   4.704  22.358  0.0933 -0.1496 -0.0164
12012DOPC   GL114478   7.187   4.624  21.947 -0.0686 -0.6598  0.2153
12012DOPC   GL214479   7.438   4.607  22.045  0.1371  0.0735 -0.1613
12012DOPC   C1A14480   7.115   4.575  21.523 -0.3279 -0.2363  0.1421
12012DOPC   D2A14481   7.056   4.620  21.058  0.1459 -0.1079 -0.0824
12012DOPC   C3A14482   6.812   4.247  20.907 -0.1674  0.0584 -0.1591
12012DOPC   C4A14483   6.348   4.060  20.814  0.2640 -0.0647 -0.1705
12012DOPC   C1B14484   7.663   4.677  21.658  0.1449  0.1812  0.0656
12012DOPC   D2B14485   7.716   4.795  21.187  0.0535  0.1340  0.2351
12012DOPC   C3B14486   7.822   5.263  21.023  0.1505  0.0828  0.0970
12012DOPC   C4B14487   7.727   5.582  20.729  0.1566 -0.2303 -0.0176
12013DOPC   NC314488  21.788   4.453  14.073  0.0096 -0.0020 -0.1414
12013DOPC   PO414489  22.082   4.187  13.980  0.0403 -0.0326 -0.0345
12013DOPC   GL114490  22.229   4.312  13.678  0.1576 -0.0221 -0.1758
12013DOPC   GL214491  22.472   4.136  13.602  0.1556 -0.1520 -0.1703
12013DOPC   C1A14492  22.117   4.587  13.363  0.0096 -0.4617 -0.1790
12013DOPC   D2A14493  21.795   4.777  13.032  0.0640  0.3087 -0.0314
12013DOPC   C3A14494  21.780   4.631  12.600 -0.0049 -0.1880 -0.1986
12013DOPC   C4A14495  21.898   4.280  12.313  0.0949 -0.1882  0.1182
12013DOPC   C1B14496  22.656   3.760  13.490  0.0627  0.0048 -0.1686
12013DOPC   D2B14497  22.776   3.358  13.215 -0.1527  0.3329 -0.0631
12013DOPC   C3B14498  22.555   3.111  12.900  0.2704  0.2189 -0.1837
12013DOPC   C4B14499  22.179   2.897  12.579  0.1408 -0.1477  0.1723
12014DOPC   NC314500   0.690   6.843  17.209  0.0489  0.3140 -0.1526
12014DOPC   PO414501   0.602   6.687  17.568 -0.0111 -0.3417 -0.0168
12014DOPC   GL114502   1.089   6.686  17.536 -0.0522  0.1406 -0.2463
12014DOPC   GL214503   1.054   6.441  17.391 -0.0734  0.1441 -0.3531
12014DOPC   C1A14504   1.499   6.843  17.508  0.0346 -0.1331 -0.1532
12014DOPC   D2A14505   1.915   7.059  17.346 -0.1480  0.0213 -0.1649
12014DOPC   C3A14506   1.994   7.200  16.897 -0.2095 -0.1694 -0.0679
12014DOPC   C4A14507   1.977   7.342  16.401  0.1819  0.1304 -0.4163
12014DOPC   C1B14508   1.485   6.360  17.333  0.3470 -0.1570 -0.0408
12014DOPC   D2B14509   1.916   6.489  17.152  0.3181 -0.3252  0.0190
12014DOPC   C3B14510   2.182   6.664  16.788 -0.4086 -0.1991 -0.2409
12014DOPC   C4B14511   2.494   6.896  16.486 -0.3159 -0.3377  0.2446
12015DOPC   NC314512   2.665   3.621  20.105  0.2813 -0.0318 -0.0746
12015DOPC   PO414513   2.586   3.292  19.859 -0.2532 -0.0384 -0.0958
12015DOPC   GL114514   2.579   3.292  19.369  0.4317 -0.0141 -0.0926
12015DOPC   GL214515   2.648   3.069  19.373 -0.4792  0.0503 -0.0289
12015DOPC   C1A14516   2.844   3.534  19.108 -0.0933 -0.2583  0.1363
12015DOPC   D2A14517   3.058   3.571  18.661 -0.0658  0.1970  0.2362
12015DOPC   C3A14518   2.747   3.607  18.311 -0.0721  0.3708 -0.3894
12015DOPC   C4A14519   2.272   3.713  18.355  0.1426  0.2547  0.2227
12015DOPC   C1B14520   2.952   3.098  19.065 -0.0313 -0.3027  0.0069
12015DOPC   D2B14521   3.302   3.077  18.811 -0.1560  0.0579  0.0857
12015DOPC   C3B14522   3.631   3.150  18.472  0.0270  0.1628  0.3536
12015DOPC   C4B14523   3.946   3.377  18.187 -0.0846  0.1842 -0.1454
12016DOPC   NC314524  25.026   2.809  15.556 -0.0103 -0.0435 -0.0602
12016DOPC   PO414525  24.738   2.899  15.282  0.1057 -0.1028  0.0666
12016DOPC   GL114526  24.880   3.158  14.867  0.0564  0.0761  0.0047
12016DOPC   GL214527  24.672   2.969  14.757 -0.1447  0.1055  0.4796
12016DOPC   C1A14528  25.211   3.233  14.553 -0.1766 -0.0980 -0.0295
12016DOPC   D2A14529  25.603   3.242  14.169 -0.1256  0.3587 -0.0628
12016DOPC   C3A14530  25.811   2.845  13.982  0.0694 -0.1833  0.0906
12016DOPC   C4A14531  26.132   2.509  13.790 -0.0850 -0.1039  0.1412
12016DOPC   C1B14532  25.016   2.739  14.560 -0.2237 -0.2488  0.0564
12016DOPC   D2B14533  25.379   2.622  14.249 -0.2483 -0.2374 -0.0468
12016DOPC   C3B14534  25.535   2.409  13.919  0.1542  0.0423 -0.2063
12016DOPC   C4B14535  25.769   2.333  13.450 -0.2222 -0.0482  0.2100
12017DOPC   NC314536   0.981   5.656  17.852  0.0817 -0.2209  0.0745
12017DOPC   PO414537   1.302   5.869  17.903  0.2532  0.1359  0.3055
12017DOPC   GL114538   1.588   5.583  17.572 -0.0556 -0.3261  0.2171
12017DOPC   GL214539   1.466   5.850  17.460  0.1633  0.2314 -0.0009
12017DOPC   C1A14540   2.009   5.530  17.398  0.1307  0.1572 -0.1675
12017DOPC   D2A14541   2.438   5.318  17.283  0.2125  0.0190 -0.2261
12017DOPC   C3A14542   2.843   5.435  17.162 -0.0629  0.0485 -0.1414
12017DOPC   C4A14543   3.120   5.752  16.939  0.2193  0.1812 -0.0305
12017DOPC   C1B14544   1.520   5.620  17.103 -0.1964  0.1634 -0.3305
12017DOPC   D2B14545   1.430   5.290  16.756  0.2993  0.0026  0.2526
12017DOPC   C3B14546   1.791   5.140  16.488 -0.0065 -0.1242  0.1185
12017DOPC   C4B14547   2.125   5.175  16.289  0.0022 -0.2497 -0.0850
12018DOPC   NC314548   1.842   3.450  18.882 -0.0658 -0.4729 -0.0370
12018DOPC   PO414549   1.993   3.847  18.938  0.1752  0.0370  0.2038
12018DOPC   GL114550   2.340   4.134  18.909  0.0082  0.4002  0.2054
12018DOPC   GL214551   2.274   4.177  18.621 -0.0980  0.1331 -0.1008
12018DOPC   C1A14552   2.625   4.519  18.857 -0.1285  0.0943 -0.1123
12018DOPC   D2A14553   2.622   4.738  18.429 -0.1416 -0.3873  0.0516
12018DOPC   C3A14554   2.885   5.028  18.224  0.2673  0.1328 -0.1473
12018DOPC   C4A14555   3.284   5.304  18.093  0.0145  0.1695 -0.2465
12018DOPC   C1B14556   2.557   4.230  18.300 -0.2881 -0.2547  0.1787
12018DOPC   D2B14557   3.096   4.348  18.254  0.0564 -0.1705  0.0150
12018DOPC   C3B14558   3.096   3.970  18.137  0.1140 -0.0600 -0.0490
12018DOPC   C4B14559   3.460   3.639  18.198  0.1838  0.0103  0.0654
12019DOPC   NC314560  16.327   0.703  17.932 -0.4201  0.0941  0.0686
12019DOPC   PO414561  16.125   1.065  17.998 -0.0048  0.0612  0.0284
12019DOPC   GL114562  15.714   1.060  17.990  0.0847 -0.6658 -0.2738
12019DOPC   GL214563  15.728   1.273  18.214 -0.0250 -0.0559  0.1745
12019DOPC   C1A14564  15.483   1.166  17.624  0.1326 -0.0465 -0.0960
12019DOPC   D2A14565  15.117   1.297  17.285 -0.0778 -0.0025  0.2414
12019DOPC   C3A14566  15.060   1.032  16.891 -0.0684 -0.2376  0.0432
12019DOPC   C4A14567  15.075   0.643  16.587 -0.3232  0.0581 -0.1207
12019DOPC   C1B14568  15.445   1.558  17.965  0.0874 -0.1999  0.1164
12019DOPC   D2B14569  15.201   1.851  17.608 -0.0699  0.3662  0.1693
12019DOPC   C3B14570  14.915   1.773  17.291  0.3503 -0.2692 -0.2294
12019DOPC   C4B14571  14.579   1.526  16.976 -0.0001  0.2662  0.2175
12020DOPC   NC314572   3.466   5.708  20.957 -0.0507  0.1808  0.3117
12020DOPC   PO414573   3.243   5.391  20.838  0.1372  0.3577 -0.0602
12020DOPC   GL114574   3.363   5.385  20.480  0.2282  0.0747 -0.0580
12020DOPC   GL214575   3.198   5.649  20.385 -0.2477 -0.2672  0.1752
12020DOPC   C1A14576   3.658   5.104  20.284  0.1458  0.0015 -0.0620
12020DOPC   D2A14577   4.074   5.078  20.015 -0.0632  0.2611 -0.0202
12020DOPC   C3A14578   4.066   4.739  19.702 -0.0731  0.0034 -0.0390
12020DOPC   C4A14579   4.400   4.722  19.412  0.0372  0.1014  0.0643
12020DOPC   C1B14580   3.335   5.651  20.034  0.0461 -0.1534 -0.1336
12020DOPC   D2B14581   3.541   6.004  19.779 -0.0126 -0.1709 -0.0128
12020DOPC   C3B14582   3.975   5.902  19.654 -0.0015 -0.0654  0.1367
12020DOPC   C4B14583   4.454   5.868  19.516  0.0893 -0.1835  0.2138
12021DOPC   NC314584  24.488   2.354  15.939  0.0690 -0.1373 -0.3531
12021DOPC   PO414585  24.591   2.470  15.601 -0.0455  0.1519  0.2219
12021DOPC   GL114586  24.816   2.145  15.368 -0.1513  0.1002 -0.1247
12021DOPC   GL214587  24.943   2.372  15.299  0.0070  0.0877 -0.1039
12021DOPC   C1A14588  24.760   2.036  14.943  0.0360  0.2589 -0.2362
12021DOPC   D2A14589  24.486   1.926  14.483 -0.1420  0.0393 -0.1460
12021DOPC   C3A14590  24.862   1.801  14.258 -0.0426 -0.0955 -0.0328
12021DOPC   C4A14591  25.239   1.681  14.037  0.0187 -0.2666  0.0335
12021DOPC   C1B14592  25.414   2.498  15.397 -0.1567  0.0581 -0.1977
12021DOPC   D2B14593  25.793   2.743  15.438 -0.0405  0.2226  0.2188
12021DOPC   C3B14594  26.182   2.994  15.412 -0.1994 -0.0285 -0.2440
12021DOPC   C4B14595  26.551   3.010  15.110 -0.0973 -0.0310 -0.1327
12022DOPC   NC314596   1.949   5.520  19.255  0.1848 -0.2204  0.4222
12022DOPC   PO414597   1.915   5.288  18.988 -0.1068  0.1500 -0.0690
12022DOPC   GL114598   2.149   4.992  18.671 -0.2451 -0.2568  0.1391
12022DOPC   GL214599   2.199   5.197  18.518  0.1762 -0.3966  0.0964
12022DOPC   C1A14600   2.548   5.023  18.842 -0.2218  0.2408 -0.0440
12022DOPC   D2A14601   2.763   4.842  19.267  0.2940 -0.2043  0.1243
12022DOPC   C3A14602   3.084   4.607  19.083  0.0063 -0.2323 -0.0157
12022DOPC   C4A14603   3.423   4.428  18.786  0.1284  0.0260 -0.1082
12022DOPC   C1B14604   2.571   5.401  18.336  0.0102  0.3786 -0.1680
12022DOPC   D2B14605   2.840   5.628  17.932  0.1419  0.2533 -0.0129
12022DOPC   C3B14606   3.320   5.766  17.848 -0.2655  0.1990  0.1726
12022DOPC   C4B14607   3.774   5.916  17.806 -0.0120  0.0238  0.0652
12023DOPC   NC314608  15.845   2.085  19.130 -0.0215  0.1392 -0.1190
12023DOPC   PO414609  15.559   2.288  19.235  0.0625 -0.0248  0.2375
12023DOPC   GL114610  15.308   2.204  18.966  0.1165  0.0660 -0.1325
12023DOPC   GL214611  15.042   2.263  19.122  0.2354  0.0793  0.1714
12023DOPC   C1A14612  15.143   1.937  18.666 -0.1493 -0.2863  0.0247
12023DOPC   D2A14613  14.971   1.714  18.155 -0.0023  0.1747 -0.3207
12023DOPC   C3A14614  14.528   1.754  18.071 -0.4466 -0.4645  0.1882
12023DOPC   C4A14615  14.030   1.870  18.006 -0.1510  0.0182  0.2037
12023DOPC   C1B14616  14.731   1.980  19.017  0.1207 -0.0296 -0.3141
12023DOPC   D2B14617  14.304   1.831  18.900 -0.3891 -0.0974  0.1220
12023DOPC   C3B14618  14.056   1.830  18.487 -0.0589 -0.0018  0.2783
12023DOPC   C4B14619  13.636   1.750  18.272  0.1183 -0.0083  0.1196
12024DOPC   NC314620   5.450   3.854  22.029 -0.0496  0.2880 -0.1327
12024DOPC   PO414621   5.638   3.486  22.081  0.3376 -0.1016  0.3912
12024DOPC   GL114622   5.638   3.400  21.664 -0.3274  0.1748 -0.1470
12024DOPC   GL214623   5.610   3.646  21.549  0.2390 -0.2247 -0.1678
12024DOPC   C1A14624   5.767   3.316  21.220  0.2707  0.1938 -0.0297
12024DOPC   D2A14625   5.580   3.411  20.730 -0.2364  0.3193 -0.2609
12024DOPC   C3A14626   5.512   3.855  20.554 -0.1172  0.2014  0.0767
12024DOPC   C4A14627   5.407   4.190  20.246 -0.0850 -0.2270  0.2328
12024DOPC   C1B14628   5.651   3.787  21.121 -0.1105 -0.0999 -0.3278
12024DOPC   D2B14629   5.954   3.841  20.736 -0.1300 -0.4559  0.2614
12024DOPC   C3B14630   5.993   4.087  20.302  0.0037  0.0723 -0.0765
12024DOPC   C4B14631   5.835   4.325  19.932  0.0523 -0.2432  0.0963
12025DOPC   NC314632  22.480   1.971  14.837  0.1599  0.1616  0.0253
12025DOPC   PO414633  22.547   2.341  14.637  0.0582 -0.2968  0.1248
12025DOPC   GL114634  22.585   2.219  14.287 -0.2353 -0.3203  0.3073
12025DOPC   GL214635  22.621   2.494  14.161  0.2801  0.2593 -0.1385
12025DOPC   C1A14636  22.883   2.033  14.009  0.2024 -0.1276  0.2590
12025DOPC   D2A14637  23.162   1.533  14.030 -0.2578 -0.4551  0.2401
12025DOPC   C3A14638  23.536   1.344  13.771  0.1106 -0.1196  0.0413
12025DOPC   C4A14639  23.909   1.180  13.428 -0.0376  0.0936 -0.0706
12025DOPC   C1B14640  22.849   2.570  13.816  0.0406  0.1181 -0.0830
12025DOPC   D2B14641  23.229   2.601  13.520 -0.0504 -0.0188 -0.1097
12025DOPC   C3B14642  23.292   2.536  13.069  0.1904 -0.2449 -0.1554
12025DOPC   C4B14643  23.256   2.219  12.690 -0.1298  0.1587  0.1979
12026DOPC   NC314644  16.091   0.159  18.763 -0.0631 -0.2468 -0.1448
12026DOPC   PO414645  16.035   0.030  18.367  0.0958  0.1258  0.2169
12026DOPC   GL114646  15.756  -0.008  18.075 -0.0726  0.3810  0.1378
12026DOPC   GL214647  15.549  -0.029  18.316 -0.0416  0.1832  0.1001
12026DOPC   C1A14648  15.511   0.204  17.842  0.1350  0.1461  0.2710
12026DOPC   D2A14649  15.255   0.376  17.442  0.0262  0.0771  0.0272
12026DOPC   C3A14650  14.908   0.551  17.146 -0.0826  0.2655 -0.0179
12026DOPC   C4A14651  14.608   0.761  16.770 -0.0838 -0.1108 -0.1478
12026DOPC   C1B14652  15.132  -0.117  18.053  0.0729  0.0701  0.2386
12026DOPC   D2B14653  14.946  -0.431  17.685  0.0250 -0.2163  0.1962
12026DOPC   C3B14654  15.321  -0.723  17.592  0.1601 -0.1318  0.0061
12026DOPC   C4B14655  15.669  -0.979  17.495  0.0381 -0.0397  0.1889
12027DOPC   NC314656  17.979   3.994  15.919 -0.0780 -0.0652 -0.1995
12027DOPC   PO414657  17.643   4.211  15.954  0.1686  0.1958 -0.0985
12027DOPC   GL114658  17.282   4.230  15.727 -0.0869  0.1917 -0.1876
12027DOPC   GL214659  17.241   3.906  15.665 -0.2939  0.2660 -0.2056
12027DOPC   C1A14660  16.958   4.438  15.483  0.0434 -0.1033  0.2317
12027DOPC   D2A14661  16.630   4.817  15.320  0.2311 -0.1066 -0.1451
12027DOPC   C3A14662  16.320   5.212  15.204  0.2336  0.0612 -0.1454
12027DOPC   C4A14663  15.925   5.458  15.401 -0.1187 -0.0722 -0.2977
12027DOPC   C1B14664  17.193   4.056  15.276  0.0907 -0.4465 -0.1553
12027DOPC   D2B14665  16.985   4.046  14.805  0.0564 -0.1157  0.1141
12027DOPC   C3B14666  16.692   3.930  14.508 -0.0457  0.2261 -0.0060
12027DOPC   C4B14667  16.246   3.796  14.392  0.1673 -0.3045  0.3859
12028DOPC   NC314668   2.104   6.342  19.068 -0.0768 -0.0278  0.4884
12028DOPC   PO414669   1.885   6.067  19.167 -0.3774 -0.0473  0.0055
12028DOPC   GL114670   2.148   5.797  18.926  0.0210 -0.0081 -0.2213
12028DOPC   GL214671   2.025   5.857  18.638  0.0140  0.0462 -0.2708
12028DOPC   C1A14672   2.508   5.540  18.876 -0.3284 -0.1122  0.0706
12028DOPC   D2A14673   2.948   5.335  18.726  0.0724  0.1444  0.2678
12028DOPC   C3A14674   3.137   4.938  18.726  0.0503 -0.1913 -0.0319
12028DOPC   C4A14675   3.399   4.814  18.383 -0.1186  0.1323 -0.3774
12028DOPC   C1B14676   2.244   5.792  18.318  0.0939  0.1172  0.3448
12028DOPC   D2B14677   2.599   6.083  18.081 -0.0232  0.2560  0.1178
12028DOPC   C3B14678   2.999   6.182  17.823  0.1350 -0.2176 -0.3024
12028DOPC   C4B14679   3.505   6.307  17.728  0.3343  0.0825  0.1343
12029DOPC   NC314680  14.525   4.534  20.216 -0.2644 -0.4860 -0.2129
12029DOPC   PO414681  14.717   4.398  19.885  0.0342 -0.0140  0.1064
12029DOPC   GL114682  14.674   4.164  19.531 -0.2814 -0.2464  0.0611
12029DOPC   GL214683  14.508   4.440  19.495  0.1208  0.1596  0.2832
12029DOPC   C1A14684  14.436   3.976  19.295 -0.2241  0.1512  0.0712
12029DOPC   D2A14685  14.230   4.067  18.845 -0.0898  0.1125  0.0436
12029DOPC   C3A14686  13.971   3.964  18.476 -0.0290  0.2471 -0.1299
12029DOPC   C4A14687  13.769   3.834  18.062 -0.1231 -0.2406 -0.2261
12029DOPC   C1B14688  14.126   4.510  19.241 -0.1757  0.2522  0.1759
12029DOPC   D2B14689  13.669   4.660  19.319 -0.1999 -0.1236 -0.2687
12029DOPC   C3B14690  13.342   4.578  19.022 -0.1297 -0.0884  0.3810
12029DOPC   C4B14691  13.231   4.649  18.550 -0.0758  0.0356  0.3589
12030DOPC   NC314692   6.945   7.814  22.358  0.0071 -0.1733 -0.3585
12030DOPC   PO414693   6.929   7.391  22.423  0.2592  0.0709  0.0190
12030DOPC   GL114694   6.756   7.283  21.940 -0.0313  0.4374  0.0163
12030DOPC   GL214695   6.848   7.115  22.047 -0.0141  0.0057 -0.2424
12030DOPC   C1A14696   6.567   7.112  21.560  0.0869 -0.1349  0.1582
12030DOPC   D2A14697   6.501   7.068  21.050  0.0500 -0.1123  0.0115
12030DOPC   C3A14698   6.540   7.167  20.601  0.0806 -0.2231  0.0664
12030DOPC   C4A14699   6.670   7.061  20.154  0.0123 -0.3602 -0.0416
12030DOPC   C1B14700   6.798   6.768  21.866  0.2738  0.3023 -0.3193
12030DOPC   D2B14701   6.803   6.410  21.466 -0.3359  0.0590  0.1823
12030DOPC   C3B14702   6.734   6.604  21.072  0.3686 -0.1904 -0.2547
12030DOPC   C4B14703   6.992   6.920  20.794  0.0518 -0.0869  0.0306
12031DOPC   NC314704  13.033   6.381  21.488 -0.0004 -0.1586  0.2036
12031DOPC   PO414705  13.271   6.656  21.285 -0.1518 -0.0292 -0.0145
12031DOPC   GL114706  13.131   6.794  20.892 -0.2544  0.1499  0.1370
12031DOPC   GL214707  12.952   6.955  21.081 -0.2537 -0.0517  0.5197
12031DOPC   C1A14708  12.943   6.534  20.537 -0.2595 -0.0617  0.1638
12031DOPC   D2A14709  12.597   6.196  20.267 -0.1583  0.1123 -0.1190
12031DOPC   C3A14710  12.765   5.775  20.305 -0.3883  0.0831  0.1873
12031DOPC   C4A14711  12.566   5.357  20.328  0.1192 -0.1282  0.3020
12031DOPC   C1B14712  12.557   6.816  20.840  0.2610 -0.0232  0.3740
12031DOPC   D2B14713  12.434   6.367  20.803  0.4518  0.5196 -0.6117
12031DOPC   C3B14714  12.136   6.276  20.533  0.0721  0.0405 -0.0030
12031DOPC   C4B14715  11.854   6.058  20.142 -0.1851  0.0377 -0.0095
12032DOPC   NC314716  17.166   7.416  16.786 -0.0914  0.3336 -0.2372
12032DOPC   PO414717  17.037   7.774  16.704  0.0776 -0.0720 -0.3258
12032DOPC   GL114718  16.765   8.011  16.647 -0.0604 -0.0837 -0.1675
12032DOPC   GL214719  16.815   8.290  16.763  0.0829  0.2094  0.2226
12032DOPC   C1A14720  16.309   8.031  16.762  0.1365  0.1863  0.0693
12032DOPC   D2A14721  15.803   7.865  16.676  0.1002 -0.1169 -0.1190
12032DOPC   C3A14722  15.504   7.516  16.651 -0.2026  0.2279  0.0499
12032DOPC   C4A14723  15.088   7.338  16.564  0.0907  0.1127  0.0964
12032DOPC   C1B14724  16.538   8.465  16.625  0.1200  0.1644 -0.0123
12032DOPC   D2B14725  16.122   8.678  16.403  0.3032  0.2658  0.2715
12032DOPC   C3B14726  15.817   8.662  16.004 -0.0816  0.1292  0.1456
12032DOPC   C4B14727  15.634   8.426  15.568 -0.2942  0.2346 -0.1895
12033DOPC   NC314728  14.884   3.618  19.338 -0.0505  0.1828 -0.1434
12033DOPC   PO414729  14.749   3.515  19.708  0.2142 -0.2112 -0.0395
12033DOPC   GL114730  14.335   3.521  19.761 -0.0942 -0.0561 -0.3278
12033DOPC   GL214731  14.380   3.224  19.613 -0.1752  0.1253 -0.2561
12033DOPC   C1A14732  14.083   3.862  19.648  0.1845  0.0539  0.2382
12033DOPC   D2A14733  13.865   4.107  19.294  0.0134  0.1486  0.1572
12033DOPC   C3A14734  13.837   4.377  18.864 -0.0755 -0.1546 -0.1753
12033DOPC   C4A14735  13.636   4.332  18.452 -0.0720 -0.2588 -0.1925
12033DOPC   C1B14736  14.217   3.104  19.267  0.0406 -0.0213 -0.3082
12033DOPC   D2B14737  13.913   3.102  18.905  0.1522 -0.2396 -0.0449
12033DOPC   C3B14738  13.549   3.081  18.627  0.0658 -0.0816 -0.0026
12033DOPC   C4B14739  13.644   3.174  18.189 -0.0460  0.1125  0.1027
12034DOPC   NC314740   0.632   1.798  16.498  0.0650 -0.0135  0.1879
12034DOPC   PO414741   0.764   2.138  16.668 -0.1475  0.1504  0.1030
12034DOPC   GL114742   1.043   2.366  16.515  0.3500 -0.0237 -0.2829
12034DOPC   GL214743   1.043   2.484  16.336 -0.3720 -0.0122  0.0589
12034DOPC   C1A14744   1.474   2.359  16.652 -0.1804 -0.2547 -0.0117
12034DOPC   D2A14745   2.009   2.300  16.674 -0.2023  0.1230 -0.3075
12034DOPC   C3A14746   2.375   2.206  16.375 -0.3156  0.3127 -0.0143
12034DOPC   C4A14747   2.834   2.159  16.270  0.2285  0.2740  0.0566
12034DOPC   C1B14748   1.176   2.296  16.015 -0.2248 -0.0330  0.0655
12034DOPC   D2B14749   1.484   2.009  15.806  0.2763  0.0137  0.1393
12034DOPC   C3B14750   1.664   2.309  15.500  0.0603  0.0656  0.0058
12034DOPC   C4B14751   1.915   2.725  15.544 -0.0145  0.0181 -0.0065
12035DOPC   NC314752  14.250   2.695  20.533 -0.2407 -0.0998  0.2004
12035DOPC   PO414753  14.583   2.754  20.339 -0.1178  0.1214 -0.0505
12035DOPC   GL114754  14.375   2.650  20.005  0.1395 -0.0925 -0.1642
12035DOPC   GL214755  14.317   2.401  20.145 -0.0649 -0.2751  0.0901
12035DOPC   C1A14756  14.140   2.766  19.643  0.0362  0.0808  0.1261
12035DOPC   D2A14757  13.943   2.653  19.183 -0.0648 -0.0020  0.1283
12035DOPC   C3A14758  13.621   2.652  18.887 -0.2309  0.1853  0.2007
12035DOPC   C4A14759  13.156   2.537  18.789 -0.0786 -0.3591  0.1961
12035DOPC   C1B14760  13.869   2.345  20.169  0.5929  0.2614  0.2045
12035DOPC   D2B14761  13.466   2.041  20.019 -0.0012  0.2107 -0.1866
12035DOPC   C3B14762  13.354   1.591  19.853  0.1560 -0.1114  0.1231
12035DOPC   C4B14763  12.984   1.286  19.561  0.0323 -0.0543 -0.0939
12036DOPC   NC314764  21.923   7.367  14.604 -0.0401 -0.2012 -0.1091
12036DOPC   PO414765  22.145   7.204  14.327 -0.2981 -0.3704  0.0902
12036DOPC   GL114766  22.275   7.330  13.915 -0.4364  0.2172 -0.0227
12036DOPC   GL214767  22.360   7.578  14.014 -0.2991  0.4882  0.0347
12036DOPC   C1A14768  22.558   7.394  13.559  0.0881 -0.0493 -0.0922
12036DOPC   D2A14769  22.845   7.580  13.185 -0.1018 -0.2324 -0.2124
12036DOPC   C3A14770  23.213   7.786  13.039 -0.0430 -0.1627 -0.1843
12036DOPC   C4A14771  23.268   7.791  12.568 -0.1192 -0.1004 -0.0636
12036DOPC   C1B14772  22.280   7.868  13.729 -0.3961 -0.0783  0.1943
12036DOPC   D2B14773  22.356   8.292  13.418 -0.0434  0.2236 -0.0176
12036DOPC   C3B14774  22.380   8.630  13.065  0.1342 -0.2778  0.0738
12036DOPC   C4B14775  22.126   9.014  12.833 -0.0788 -0.1908 -0.1602
12037DOPC   NC314776   8.328   5.317  22.212  0.1131 -0.0863  0.0329
12037DOPC   PO414777   8.143   5.646  22.317  0.1362 -0.0318  0.1395
12037DOPC   GL114778   8.177   5.982  21.963  0.5284 -0.1565 -0.2592
12037DOPC   GL214779   7.922   5.886  21.985  0.1901 -0.3003  0.2440
12037DOPC   C1A14780   8.106   6.319  21.667 -0.1401  0.1239  0.2134
12037DOPC   D2A14781   8.205   6.707  21.445  0.0845 -0.3358 -0.1767
12037DOPC   C3A14782   8.491   6.691  21.073 -0.1405  0.3062  0.1094
12037DOPC   C4A14783   8.831   6.796  20.705 -0.0434  0.1913 -0.0769
12037DOPC   C1B14784   7.791   5.813  21.563  0.0205  0.1756  0.2333
12037DOPC   D2B14785   7.689   5.900  21.131  0.0701  0.2633 -0.2175
12037DOPC   C3B14786   7.546   6.001  20.664 -0.5607  0.0935 -0.0896
12037DOPC   C4B14787   7.264   6.111  20.269  0.1347 -0.1295  0.0172
12038DOPC   NC314788  19.652   7.612  14.900 -0.0863  0.0839 -0.1187
12038DOPC   PO414789  19.231   7.556  14.903 -0.0626 -0.0548 -0.2402
12038DOPC   GL114790  18.978   7.765  14.613 -0.1093 -0.1818  0.2895
12038DOPC   GL214791  18.880   7.486  14.666 -0.3090 -0.2295 -0.1287
12038DOPC   C1A14792  18.865   8.087  14.262  0.0032  0.0079 -0.1515
12038DOPC   D2A14793  18.631   8.247  13.825  0.0632  0.0520  0.3133
12038DOPC   C3A14794  18.281   8.379  13.541  0.0054  0.0755 -0.0559
12038DOPC   C4A14795  18.007   8.506  13.184 -0.2282  0.0438 -0.1571
12038DOPC   C1B14796  18.661   7.401  14.335  0.0380  0.1405 -0.3080
12038DOPC   D2B14797  18.366   7.408  13.970 -0.0060  0.1386 -0.1129
12038DOPC   C3B14798  18.765   7.722  13.900 -0.4126  0.3075 -0.4274
12038DOPC   C4B14799  19.130   7.974  13.804  0.0704 -0.0799 -0.0136
12039DOPC   NC314800  16.980   0.207  17.186  0.0475 -0.0036 -0.5985
12039DOPC   PO414801  17.087   0.577  17.156  0.2729 -0.0944 -0.0548
12039DOPC   GL114802  16.941   0.933  16.806 -0.0954  0.0315 -0.0038
12039DOPC   GL214803  16.783   1.001  17.031 -0.0399 -0.3870  0.0527
12039DOPC   C1A14804  16.681   1.109  16.506  0.0434 -0.2890  0.0937
12039DOPC   D2A14805  16.269   1.266  16.172 -0.1785  0.2656 -0.1711
12039DOPC   C3A14806  15.989   1.321  15.843  0.0269  0.1860  0.0129
12039DOPC   C4A14807  15.768   1.643  15.500 -0.0036  0.1617  0.0498
12039DOPC   C1B14808  16.342   0.989  16.962 -0.3685  0.0206 -0.2869
12039DOPC   D2B14809  15.938   0.678  16.835 -0.0772  0.2042 -0.1659
12039DOPC   C3B14810  15.683   0.482  16.472 -0.2154 -0.3989  0.1276
12039DOPC   C4B14811  15.455   0.365  16.026  0.1689  0.1138  0.0679
12040DOPC   NC314812   8.314   0.158  22.872 -0.3260 -0.1701 -0.1808
12040DOPC   PO414813   8.190   0.542  22.784  0.0411  0.2439  0.0842
12040DOPC   GL114814   8.078   0.675  22.340 -0.1044  0.0460 -0.3363
12040DOPC   GL214815   8.187   0.412  22.298  0.2755  0.2681 -0.3323
12040DOPC   C1A14816   7.986   0.746  21.946 -0.0946  0.1372  0.0002
12040DOPC   D2A14817   8.045   0.947  21.530 -0.2338  0.3669  0.2636
12040DOPC   C3A14818   8.035   1.185  21.065 -0.0257  0.0146  0.1876
12040DOPC   C4A14819   8.077   1.232  20.539 -0.2226 -0.2385 -0.1703
12040DOPC   C1B14820   8.271   0.158  21.909  0.0174 -0.0602 -0.5383
12040DOPC   D2B14821   8.355  -0.108  21.497  0.2189 -0.2515  0.1822
12040DOPC   C3B14822   8.475  -0.216  21.054  0.1124  0.2376  0.1188
12040DOPC   C4B14823   8.526  -0.645  20.867  0.0391  0.0674 -0.0061
12041DOPC   NC314824  12.578   3.956  21.863  0.2749  0.3766  0.0146
12041DOPC   PO414825  12.846   4.020  21.528  0.2018 -0.2984 -0.2995
12041DOPC   GL114826  12.776   3.959  21.169  0.0114 -0.3265 -0.2852
12041DOPC   GL214827  12.799   4.214  21.035  0.2909  0.2771  0.0749
12041DOPC   C1A14828  12.881   3.772  20.761 -0.1049  0.1918 -0.3702
12041DOPC   D2A14829  12.714   3.650  20.302 -0.5460 -0.2040 -0.0368
12041DOPC   C3A14830  12.702   3.778  19.876  0.3597 -0.1649 -0.0575
12041DOPC   C4A14831  12.821   3.754  19.345 -0.0436 -0.1466  0.0247
12041DOPC   C1B14832  12.394   4.187  20.768  0.0444  0.0086 -0.0519
12041DOPC   D2B14833  12.014   4.058  20.476 -0.0152 -0.0873  0.2632
12041DOPC   C3B14834  11.679   4.053  20.185  0.0499 -0.3254 -0.1848
12041DOPC   C4B14835  11.338   4.263  19.934  0.4131 -0.3231 -0.1264
12042DOPC   NC314836  20.060   5.109  14.941 -0.0980 -0.0304 -0.2971
12042DOPC   PO414837  19.828   5.063  14.599  0.0326  0.1804  0.0413
12042DOPC   GL114838  19.600   5.098  14.222  0.1433 -0.1269  0.1724
12042DOPC   GL214839  19.604   5.342  14.167  0.1404 -0.0249  0.0245
12042DOPC   C1A14840  19.585   4.851  13.881  0.1713  0.2015  0.0210
12042DOPC   D2A14841  19.827   4.454  13.594  0.0774  0.0715  0.2974
12042DOPC   C3A14842  19.930   4.540  13.185  0.1934  0.0539 -0.3068
12042DOPC   C4A14843  19.722   4.775  12.770 -0.1463 -0.0990 -0.2174
12042DOPC   C1B14844  19.394   5.705  13.978  0.4176 -0.2045 -0.0035
12042DOPC   D2B14845  19.033   5.944  13.810 -0.3115  0.4417  0.1312
12042DOPC   C3B14846  18.557   5.896  13.871  0.0976  0.0593  0.1223
12042DOPC   C4B14847  18.061   5.808  13.935  0.3534 -0.0311 -0.0278
12043DOPC   NC314848  23.320   1.429  14.747 -0.2074 -0.0353 -0.0177
12043DOPC   PO414849  23.405   1.833  14.772 -0.0704  0.0570 -0.1479
12043DOPC   GL114850  23.692   1.981  14.520  0.2596 -0.3862 -0.1248
12043DOPC   GL214851  23.758   1.708  14.513 -0.2025 -0.3640 -0.2446
12043DOPC   C1A14852  23.781   2.137  14.140  0.1095 -0.2160 -0.1425
12043DOPC   D2A14853  23.716   2.202  13.621 -0.1396 -0.1963  0.3859
12043DOPC   C3A14854  23.695   2.207  13.216 -0.2674 -0.1555 -0.2388
12043DOPC   C4A14855  23.855   2.349  12.724 -0.0793 -0.0535 -0.0211
12043DOPC   C1B14856  24.084   1.709  14.168  0.1460  0.0926 -0.1862
12043DOPC   D2B14857  24.544   1.796  13.941 -0.0894 -0.0410  0.3737
12043DOPC   C3B14858  24.828   2.123  13.861 -0.0810  0.1422  0.2091
12043DOPC   C4B14859  25.024   2.567  13.876  0.3540  0.1793  0.0979
12044DOPC   NC314860  18.006   5.176  15.416 -0.4876 -0.1682 -0.0977
12044DOPC   PO414861  17.874   4.842  15.212 -0.0511 -0.1390 -0.1334
12044DOPC   GL114862  17.629   4.807  14.874  0.1377  0.0695 -0.0717
12044DOPC   GL214863  17.726   4.596  14.780  0.2492  0.1592 -0.0173
12044DOPC   C1A14864  17.236   4.873  14.710 -0.2614 -0.1840  0.0454
12044DOPC   D2A14865  16.901   4.628  14.478  0.0424  0.0135 -0.2312
12044DOPC   C3A14866  16.503   4.368  14.359 -0.1130 -0.2108  0.1280
12044DOPC   C4A14867  16.095   4.300  14.113  0.0574  0.0665  0.2454
12044DOPC   C1B14868  17.368   4.389  14.588  0.0354 -0.0905 -0.1435
12044DOPC   D2B14869  17.031   4.165  14.267 -0.3921 -0.3053 -0.1351
12044DOPC   C3B14870  16.914   4.262  13.768 -0.1207 -0.1259 -0.1019
12044DOPC   C4B14871  16.775   3.995  13.390  0.1440 -0.0003  0.0736
12045DOPC   NC314872  12.081   5.202  22.272  0.1104  0.2215 -0.0623
12045DOPC   PO414873  11.835   4.904  22.358  0.1307 -0.1038 -0.1495
12045DOPC   GL114874  11.766   4.838  21.917 -0.1291 -0.4069 -0.0800
12045DOPC   GL214875  12.024   5.037  21.852 -0.2073  0.6334  0.1395
12045DOPC   C1A14876  11.515   4.637  21.640 -0.3028  0.1783 -0.2251
12045DOPC   D2A14877  11.381   4.239  21.302 -0.2400  0.2818 -0.1542
12045DOPC   C3A14878  11.008   4.190  21.035 -0.0297 -0.1498  0.1758
12045DOPC   C4A14879  10.703   4.153  20.674  0.2784 -0.2146  0.3335
12045DOPC   C1B14880  11.821   5.145  21.527 -0.0214  0.1097 -0.1277
12045DOPC   D2B14881  11.488   5.113  21.231 -0.1464 -0.2476 -0.1124
12045DOPC   C3B14882  11.038   4.988  21.461 -0.0579  0.0566 -0.0084
12045DOPC   C4B14883  10.720   5.037  21.804 -0.1552  0.0604  0.1555
12046DOPC   NC314884  12.805   1.191  21.418  0.2647 -0.0865 -0.3161
12046DOPC   PO414885  12.620   1.513  21.473  0.3379 -0.4056  0.0842
12046DOPC   GL114886  12.564   1.723  21.089 -0.0425 -0.0743 -0.2464
12046DOPC   GL214887  12.552   1.535  20.920 -0.2949 -0.1812 -0.0808
12046DOPC   C1A14888  12.167   1.938  20.948  0.1623 -0.1993 -0.3087
12046DOPC   D2A14889  11.876   1.945  20.583 -0.1506  0.0161 -0.0568
12046DOPC   C3A14890  11.563   1.985  20.230 -0.0147 -0.0529  0.1613
12046DOPC   C4A14891  11.331   1.973  19.866 -0.1101 -0.0708  0.0424
12046DOPC   C1B14892  12.287   1.668  20.568 -0.2428  0.4210 -0.1193
12046DOPC   D2B14893  12.097   1.793  20.144 -0.2140 -0.0476 -0.0035
12046DOPC   C3B14894  11.863   2.018  19.780  0.0389  0.1464  0.1433
12046DOPC   C4B14895  11.688   2.380  19.456 -0.4497  0.0885  0.0970
12047DOPC   NC314896  22.496   4.417  14.080 -0.1013 -0.0063  0.0513
12047DOPC   PO414897  22.779   4.216  14.226 -0.0998 -0.1637 -0.0621
12047DOPC   GL114898  22.864   3.976  13.860  0.4069  0.0734 -0.1728
12047DOPC   GL214899  23.138   3.929  13.932 -0.1010  0.2076  0.1162
12047DOPC   C1A14900  23.062   4.198  13.472 -0.0930  0.0602  0.0948
12047DOPC   D2A14901  23.384   4.185  13.224  0.1882 -0.0950  0.2121
12047DOPC   C3A14902  23.504   4.221  12.756 -0.0820 -0.0334 -0.1067
12047DOPC   C4A14903  23.312   4.583  12.444 -0.0045 -0.2022  0.0091
12047DOPC   C1B14904  23.457   3.863  13.594  0.1058 -0.1239  0.1531
12047DOPC   D2B14905  23.720   3.831  13.181  0.2163 -0.1096  0.0354
12047DOPC   C3B14906  23.723   3.391  13.032  0.0162  0.2051  0.0777
12047DOPC   C4B14907  23.588   2.945  12.859  0.3145  0.1057 -0.1932
12048DOPC   NC314908   4.900   6.527  21.807 -0.0503 -0.2088 -0.0256
12048DOPC   PO414909   5.136   6.327  22.098  0.1275 -0.0586 -0.3996
12048DOPC   GL114910   5.472   6.377  21.856  0.0662 -0.4089 -0.0196
12048DOPC   GL214911   5.345   6.536  21.652 -0.1815  0.0021 -0.1536
12048DOPC   C1A14912   5.779   6.069  21.739  0.0707  0.1761  0.0938
12048DOPC   D2A14913   5.715   5.653  21.446  0.1349 -0.0842  0.1258
12048DOPC   C3A14914   5.841   5.476  21.035  0.1310  0.0470 -0.1668
12048DOPC   C4A14915   5.901   5.485  20.593 -0.1297  0.1812  0.0031
12048DOPC   C1B14916   5.401   6.663  21.208  0.1016 -0.2280  0.3046
12048DOPC   D2B14917   5.596   6.835  20.820 -0.0920 -0.0211 -0.1143
12048DOPC   C3B14918   5.703   6.804  20.361 -0.2386  0.1230 -0.2026
12048DOPC   C4B14919   5.555   6.977  19.991  0.3779 -0.1378  0.2186
12049DOPC   NC314920   1.049   1.614  17.302  0.1867 -0.1599 -0.0168
12049DOPC   PO414921   0.900   1.929  17.125 -0.2246 -0.1171 -0.1632
12049DOPC   GL114922   1.283   2.016  16.862 -0.2997  0.2585  0.3262
12049DOPC   GL214923   1.176   1.966  16.658  0.0785  0.1288  0.0267
12049DOPC   C1A14924   1.728   2.013  16.966  0.0087 -0.1159 -0.0581
12049DOPC   D2A14925   2.235   1.997  17.065  0.1762  0.1330 -0.3139
12049DOPC   C3A14926   2.493   2.347  16.896  0.0156  0.0689 -0.0151
12049DOPC   C4A14927   2.681   2.795  16.792  0.3157 -0.1178  0.2231
12049DOPC   C1B14928   1.425   1.999  16.311 -0.2620 -0.0781 -0.0988
12049DOPC   D2B14929   1.892   1.952  16.104 -0.1177  0.0669 -0.0063
12049DOPC   C3B14930   2.057   1.943  15.706  0.2042  0.1143  0.1184
12049DOPC   C4B14931   2.401   1.850  15.394 -0.2942 -0.0454  0.2636
12050DOPC   NC314932  21.588   0.384  14.057  0.0680  0.0078 -0.3288
12050DOPC   PO414933  21.527   0.009  14.202  0.1653 -0.2741 -0.0168
12050DOPC   GL114934  21.616  -0.209  13.871 -0.1219 -0.1471 -0.3113
12050DOPC   GL214935  21.932  -0.203  13.988 -0.2665 -0.0846 -0.1381
12050DOPC   C1A14936  21.450  -0.534  13.610  0.0762 -0.2981  0.0020
12050DOPC   D2A14937  21.179  -0.844  13.302 -0.2640  0.0234 -0.4358
12050DOPC   C3A14938  20.907  -0.985  12.948 -0.2666  0.0467 -0.1828
12050DOPC   C4A14939  20.694  -1.226  12.610  0.1100 -0.1044 -0.0315
12050DOPC   C1B14940  22.042  -0.335  13.561 -0.3461  0.2362  0.0289
12050DOPC   D2B14941  22.291  -0.251  13.132  0.0173 -0.4352  0.0028
12050DOPC   C3B14942  22.065  -0.118  12.666  0.0922 -0.3413 -0.0193
12050DOPC   C4B14943  21.895  -0.167  12.233  0.1583 -0.1470  0.1925
12051DOPC   NC314944  14.529   3.944  19.846 -0.0271 -0.0046 -0.0944
12051DOPC   PO414945  14.529   4.035  20.240  0.2494  0.4178 -0.0049
12051DOPC   GL114946  14.120   4.204  20.357  0.2861 -0.3835 -0.3325
12051DOPC   GL214947  14.012   4.028  20.148  0.0391  0.1349 -0.1492
12051DOPC   C1A14948  13.774   4.490  20.313 -0.0718  0.1647  0.1848
12051DOPC   D2A14949  13.406   4.869  20.250 -0.2288 -0.1317 -0.1977
12051DOPC   C3A14950  12.948   4.729  20.125 -0.0116  0.1666  0.0810
12051DOPC   C4A14951  12.490   4.655  20.208  0.0471  0.0898  0.1045
12051DOPC   C1B14952  13.753   4.203  19.812  0.2588 -0.1493  0.2917
12051DOPC   D2B14953  13.416   4.230  19.425  0.2520 -0.0120 -0.0198
12051DOPC   C3B14954  13.013   4.535  19.456 -0.0222  0.1391 -0.1286
12051DOPC   C4B14955  12.524   4.627  19.314  0.0392  0.0445  0.0882
12052DOPC   NC314956  18.427   1.940  15.629 -0.0311 -0.3885 -0.1788
12052DOPC   PO414957  18.302   1.820  15.283  0.1911 -0.2082 -0.1506
12052DOPC   GL114958  18.105   1.604  15.013 -0.2302 -0.2046 -0.0152
12052DOPC   GL214959  17.820   1.686  15.110  0.0879  0.0405  0.0778
12052DOPC   C1A14960  18.114   1.554  14.524  0.0698 -0.0234  0.0862
12052DOPC   D2A14961  18.074   1.456  14.026 -0.1722 -0.0662  0.1272
12052DOPC   C3A14962  18.208   1.043  14.097  0.1232  0.0809  0.1423
12052DOPC   C4A14963  18.153   0.581  14.046 -0.0647  0.4993  0.1201
12052DOPC   C1B14964  17.764   1.956  14.734 -0.3024  0.1113  0.0471
12052DOPC   D2B14965  17.571   2.161  14.263  0.1567  0.1105  0.1393
12052DOPC   C3B14966  17.121   2.052  14.155 -0.0857 -0.0112  0.3842
12052DOPC   C4B14967  16.731   2.138  14.432 -0.0169 -0.0436 -0.2152
12053DOPC   NC314968   2.769   6.408  20.921  0.2292 -0.1446 -0.2908
12053DOPC   PO414969   3.119   6.613  20.970  0.0161  0.2061  0.2628
12053DOPC   GL114970   3.524   6.358  20.773 -0.0638 -0.0955 -0.2752
12053DOPC   GL214971   3.399   6.487  20.577  0.0677 -0.1529  0.0966
12053DOPC   C1A14972   3.891   6.161  20.684  0.1744 -0.2381 -0.0882
12053DOPC   D2A14973   4.223   5.827  20.822 -0.0231  0.0628  0.3321
12053DOPC   C3A14974   4.650   5.627  20.687 -0.2377 -0.4140 -0.0832
12053DOPC   C4A14975   4.856   5.471  20.242 -0.3874  0.0965  0.2737
12053DOPC   C1B14976   3.683   6.486  20.284  0.0634 -0.0468 -0.0742
12053DOPC   D2B14977   3.937   6.380  19.891  0.1778  0.0880 -0.0393
12053DOPC   C3B14978   4.168   6.536  19.571 -0.1191 -0.1991 -0.0644
12053DOPC   C4B14979   4.523   6.654  19.343 -0.0641 -0.0805  0.0112
12054DOPC   NC314980  14.675   2.033  20.262 -0.0056 -0.2638 -0.1297
12054DOPC   PO414981  14.474   2.218  20.534 -0.0725 -0.1476 -0.1381
12054DOPC   GL114982  14.161   2.023  20.361  0.5577  0.2829 -0.3585
12054DOPC   GL214983  14.243   1.944  20.050  0.0354  0.1357  0.0260
12054DOPC   C1A14984  13.756   1.881  20.493 -0.0788  0.0122 -0.2347
12054DOPC   D2A14985  13.306   2.088  20.512 -0.0814  0.1923 -0.2506
12054DOPC   C3A14986  13.098   1.710  20.328  0.2626 -0.2089 -0.0302
12054DOPC   C4A14987  13.349   1.318  20.402  0.3524  0.0286  0.3266
12054DOPC   C1B14988  13.859   1.921  19.767  0.2064  0.1437 -0.2275
12054DOPC   D2B14989  13.449   1.952  19.483  0.0767 -0.0289  0.2068
12054DOPC   C3B14990  13.029   1.804  19.311  0.3347  0.1907  0.2512
12054DOPC   C4B14991  12.573   1.545  19.338 -0.0040 -0.3055 -0.0291
12055DOPC   NC314992  16.615   1.496  17.201 -0.0128  0.3767 -0.0630
12055DOPC   PO414993  16.937   1.459  16.986 -0.2268 -0.2112 -0.1676
12055DOPC   GL114994  16.727   1.544  16.583 -0.0683 -0.3799  0.0933
12055DOPC   GL214995  17.007   1.497  16.510  0.1310 -0.1493  0.1513
12055DOPC   C1A14996  16.341   1.452  16.726  0.2128 -0.0270 -0.1659
12055DOPC   D2A14997  15.921   1.184  16.782 -0.0612  0.2846  0.3893
12055DOPC   C3A14998  15.753   1.223  16.307 -0.0121  0.0047 -0.0611
12055DOPC   C4A14999  15.468   1.271  15.893  0.0703  0.1026 -0.0492
12055DOPC   C1B15000  16.856   1.301  16.074 -0.1072  0.0404 -0.4096
12055DOPC   D2B15001  16.624   1.215  15.636  0.1035  0.0238 -0.2713
12055DOPC   C3B15002  16.218   1.169  15.419  0.0677  0.0471 -0.2697
12055DOPC   C4B15003  15.739   1.049  15.328 -0.2450 -0.0492 -0.0278
12056DOPC   NC315004   1.706   1.711  18.987  0.2203  0.0236 -0.3528
12056DOPC   PO415005   1.877   1.920  19.316  0.1398 -0.0052 -0.0675
12056DOPC   GL115006   2.286   1.704  19.240 -0.0582 -0.0742  0.1235
12056DOPC   GL215007   2.179   1.747  18.918 -0.0540  0.2519 -0.2099
12056DOPC   C1A15008   2.670   1.755  19.151 -0.0863  0.0893 -0.0280
12056DOPC   D2A15009   3.116   1.729  19.065 -0.0134  0.1077  0.1126
12056DOPC   C3A15010   3.434   1.368  18.883  0.0152  0.0958 -0.1201
12056DOPC   C4A15011   3.385   1.136  18.469  0.1748 -0.2540  0.1075
12056DOPC   C1B15012   2.473   1.843  18.628 -0.1819  0.0170 -0.0371
12056DOPC   D2B15013   2.811   1.896  18.248 -0.1327  0.1418  0.0159
12056DOPC   C3B15014   2.744   1.562  17.887  0.0340 -0.2913  0.2626
12056DOPC   C4B15015   2.910   1.576  17.412  0.0893  0.0757 -0.1146
12057DOPC   NC315016   1.487   3.408  17.677  0.1110 -0.2817 -0.0498
12057DOPC   PO415017   1.596   3.627  17.970 -0.2062 -0.0030  0.0498
12057DOPC   GL115018   1.948   3.820  17.712  0.3152 -0.3176 -0.0385
12057DOPC   GL215019   1.949   3.473  17.713  0.0686  0.0106  0.2194
12057DOPC   C1A15020   2.194   3.985  17.420 -0.0195  0.0440 -0.1842
12057DOPC   D2A15021   2.509   4.306  17.186 -0.0297  0.0817  0.0854
12057DOPC   C3A15022   2.389   4.537  16.768  0.1237  0.0474 -0.0814
12057DOPC   C4A15023   2.287   4.713  16.323  0.0135 -0.2712 -0.0405
12057DOPC   C1B15024   2.028   3.453  17.255  0.1391 -0.1706  0.0415
12057DOPC   D2B15025   1.953   3.565  16.777 -0.0013 -0.1120 -0.1055
12057DOPC   C3B15026   1.584   3.767  16.758  0.4039 -0.0936 -0.1102
12057DOPC   C4B15027   1.253   4.024  16.516  0.1190 -0.1126  0.2512
12058DOPC   NC315028  15.390   4.203  19.132  0.0447 -0.1224 -0.0058
12058DOPC   PO415029  15.445   4.170  18.753  0.0214 -0.1990  0.0316
12058DOPC   GL115030  15.330   4.048  18.402  0.0074  0.2043 -0.2537
12058DOPC   GL215031  15.177   3.808  18.564  0.2488 -0.0798  0.1850
12058DOPC   C1A15032  15.026   4.066  18.058  0.0636  0.0871 -0.0712
12058DOPC   D2A15033  14.859   4.440  17.731  0.0593 -0.4874  0.2182
12058DOPC   C3A15034  14.489   4.295  17.616  0.0668  0.2426 -0.2963
12058DOPC   C4A15035  14.016   4.130  17.552 -0.4160  0.3796  0.1295
12058DOPC   C1B15036  14.824   3.782  18.380  0.1170 -0.2539 -0.0128
12058DOPC   D2B15037  14.343   3.676  18.401 -0.1149 -0.2974  0.0411
12058DOPC   C3B15038  14.137   3.467  18.049 -0.1582 -0.3222  0.1669
12058DOPC   C4B15039  13.744   3.381  17.731 -0.3173 -0.0928 -0.1514
12059DOPC   NC315040  24.445   7.813  15.940 -0.2303  0.2064  0.1429
12059DOPC   PO415041  24.734   8.104  15.971  0.0427 -0.1545  0.0266
12059DOPC   GL115042  25.148   8.287  15.866 -0.1657  0.0309 -0.1414
12059DOPC   GL215043  25.083   8.144  15.625 -0.0114  0.0909 -0.1339
12059DOPC   C1A15044  25.590   8.232  15.703  0.3195 -0.3878  0.2756
12059DOPC   D2A15045  25.936   8.272  15.359 -0.2494 -0.0472  0.0191
12059DOPC   C3A15046  26.120   8.179  14.986  0.0044  0.0568 -0.0113
12059DOPC   C4A15047  26.025   8.084  14.465  0.1845  0.2214  0.2611
12059DOPC   C1B15048  25.319   8.188  15.267  0.1109  0.2523  0.1124
12059DOPC   D2B15049  25.608   8.415  14.943 -0.1421  0.0459 -0.0926
12059DOPC   C3B15050  25.669   8.481  14.495 -0.2578 -0.1389 -0.1504
12059DOPC   C4B15051  25.605   8.641  14.012  0.0389  0.0868 -0.0988
12060DOPC   NC315052  16.999   1.456  17.484 -0.1837 -0.1565  0.1469
12060DOPC   PO415053  16.687   1.292  17.693  0.0576 -0.0143 -0.0470
12060DOPC   GL115054  16.352   1.179  17.493 -0.2192  0.0684  0.2501
12060DOPC   GL215055  16.418   0.923  17.455 -0.1708  0.2111  0.1855
12060DOPC   C1A15056  15.948   1.290  17.300  0.1317 -0.4986 -0.0912
12060DOPC   D2A15057  15.513   1.354  17.000  0.0298 -0.0503  0.1410
12060DOPC   C3A15058  15.080   1.538  16.795 -0.2024 -0.0312  0.0315
12060DOPC   C4A15059  14.784   1.738  16.452  0.0996 -0.0555 -0.0615
12060DOPC   C1B15060  16.036   0.774  17.288  0.1992  0.0361 -0.0007
12060DOPC   D2B15061  15.592   0.834  17.139  0.2645 -0.3187  0.0696
12060DOPC   C3B15062  15.523   0.928  16.754  0.1552 -0.2367  0.2917
12060DOPC   C4B15063  15.444   0.846  16.310  0.1359 -0.1759  0.2902
12061DOPC   NC315064  16.424   3.676  17.672  0.0010  0.1054  0.3172
12061DOPC   PO415065  16.673   3.592  17.337  0.1300  0.1578 -0.2211
12061DOPC   GL115066  16.409   3.541  16.997  0.1430  0.1576  0.2381
12061DOPC   GL215067  16.595   3.689  16.820  0.5179 -0.0121  0.3211
12061DOPC   C1A15068  16.069   3.375  16.810  0.5210 -0.2295 -0.1439
12061DOPC   D2A15069  15.609   3.195  16.664 -0.0505  0.0425 -0.0902
12061DOPC   C3A15070  15.260   3.516  16.534  0.3380 -0.0481  0.1164
12061DOPC   C4A15071  14.866   3.765  16.386 -0.2321 -0.1018  0.0739
12061DOPC   C1B15072  16.346   3.570  16.412  0.0803  0.0417  0.0117
12061DOPC   D2B15073  16.025   3.430  16.035 -0.3215  0.0382  0.0395
12061DOPC   C3B15074  15.932   3.498  15.581 -0.2361 -0.0469  0.0135
12061DOPC   C4B15075  16.166   3.186  15.263  0.0829 -0.1335  0.0768
12062DOPC   NC315076   8.481   2.558  22.829 -0.1065  0.1639 -0.0448
12062DOPC   PO415077   8.327   2.853  22.638 -0.2624  0.2390 -0.0522
12062DOPC   GL115078   8.505   2.885  22.232 -0.1441 -0.0754  0.3360
12062DOPC   GL215079   8.207   2.939  22.174  0.0401  0.1454 -0.0537
12062DOPC   C1A15080   8.536   2.695  21.820  0.1252  0.1530 -0.1155
12062DOPC   D2A15081   8.429   2.434  21.454  0.1927 -0.1377 -0.3418
12062DOPC   C3A15082   8.659   2.182  21.140  0.0012 -0.0265  0.0418
12062DOPC   C4A15083   8.688   1.984  20.706 -0.1283  0.1046 -0.0894
12062DOPC   C1B15084   8.312   3.131  21.809  0.0822  0.2225 -0.3354
12062DOPC   D2B15085   8.348   3.281  21.348 -0.0079 -0.0992 -0.3354
12062DOPC   C3B15086   8.700   3.203  20.984  0.0102  0.0781  0.0638
12062DOPC   C4B15087   9.098   3.057  20.737 -0.0008 -0.0946 -0.1464
12063DOPS   CNO15088  24.222   2.827  14.832 -0.1619  0.1262  0.0536
12063DOPS   PO415089  24.068   2.991  14.541  0.2791 -0.4225 -0.1478
12063DOPS   GL115090  24.331   3.099  14.214 -0.1159  0.2230 -0.1384
12063DOPS   GL215091  24.441   2.779  14.214 -0.0431 -0.1860  0.4118
12063DOPS   C1A15092  24.455   3.460  14.004  0.2986  0.0740  0.4328
12063DOPS   D2A15093  24.522   3.756  13.659 -0.1182  0.2524 -0.1841
12063DOPS   C3A15094  24.588   4.229  13.536 -0.0852  0.1448 -0.0544
12063DOPS   C4A15095  24.847   4.671  13.388  0.1119  0.2353 -0.2463
12063DOPS   C1B15096  24.506   2.529  13.804 -0.0452  0.1492 -0.1683
12063DOPS   D2B15097  24.698   2.315  13.347 -0.0364 -0.0054 -0.0978
12063DOPS   C3B15098  24.740   1.844  13.453 -0.0089  0.3129 -0.0077
12063DOPS   C4B15099  24.799   1.403  13.709 -0.1624  0.0289  0.1313
12064DOPS   CNO15100  13.713   3.056  20.904 -0.1414  0.2409  0.1415
12064DOPS   PO415101  13.918   3.239  20.685 -0.3079  0.0739 -0.0189
12064DOPS   GL115102  13.760   3.515  20.514  0.5395 -0.1365 -0.0306
12064DOPS   GL215103  13.939   3.792  20.537 -0.0770  0.1737  0.0093
12064DOPS   C1A15104  13.718   3.521  20.048 -0.0104  0.1162  0.0438
12064DOPS   D2A15105  13.607   3.777  19.595 -0.0299 -0.0496  0.1833
12064DOPS   C3A15106  13.310   3.740  19.242 -0.0456  0.2337 -0.0066
12064DOPS   C4A15107  13.356   3.464  18.848  0.1292  0.4595 -0.0667
12064DOPS   C1B15108  13.634   3.969  20.346 -0.0099 -0.2018 -0.0569
12064DOPS   D2B15109  13.299   4.327  20.216  0.1201 -0.0873 -0.0528
12064DOPS   C3B15110  12.970   4.270  19.892  0.0098  0.0349  0.1742
12064DOPS   C4B15111  12.556   4.237  19.595 -0.1389 -0.3848  0.0131
12065DOPS   CNO15112  24.742   5.756  15.421  0.1021  0.0393 -0.0628
12065DOPS   PO415113  24.449   6.003  15.315  0.1703 -0.1134  0.0193
12065DOPS   GL115114  24.510   6.190  14.983 -0.0746 -0.1175 -0.0479
12065DOPS   GL215115  24.475   6.058  14.763 -0.2389  0.2734  0.3327
12065DOPS   C1A15116  24.756   6.470  14.867 -0.0572 -0.1445  0.1145
12065DOPS   D2A15117  24.958   6.714  14.435 -0.2354 -0.2806  0.0354
12065DOPS   C3A15118  25.364   6.411  14.320  0.1365  0.3096  0.2887
12065DOPS   C4A15119  25.597   5.976  14.088 -0.0460 -0.0714 -0.0191
12065DOPS   C1B15120  24.657   6.176  14.435  0.0022 -0.1786 -0.2356
12065DOPS   D2B15121  24.770   6.451  14.030 -0.0631 -0.0313 -0.3866
12065DOPS   C3B15122  24.603   6.210  13.670 -0.3100  0.2212 -0.0871
12065DOPS   C4B15123  24.796   5.967  13.243 -0.2271  0.1640  0.0399
12066DOPS   CNO15124  19.167   4.383  14.365  0.0548  0.1066 -0.3885
12066DOPS   PO415125  18.972   4.040  14.344  0.1831 -0.2301 -0.0992
12066DOPS   GL115126  18.877   4.122  13.945 -0.1230  0.2881  0.2086
12066DOPS   GL215127  18.835   4.437  13.940 -0.2337  0.1068  0.3756
12066DOPS   C1A15128  18.613   3.838  13.692  0.2483  0.1157 -0.3663
12066DOPS   D2A15129  18.158   3.631  13.783  0.1384 -0.0328  0.2026
12066DOPS   C3A15130  17.766   3.799  13.688  0.0415  0.1468 -0.1908
12066DOPS   C4A15131  17.305   3.891  13.676  0.3242 -0.0078  0.1002
12066DOPS   C1B15132  18.675   4.605  13.538 -0.0633  0.0532 -0.0108
12066DOPS   D2B15133  18.484   4.681  13.057 -0.2743  0.1980 -0.1466
12066DOPS   C3B15134  18.448   4.286  12.855 -0.1549  0.4167 -0.0411
12066DOPS   C4B15135  18.336   3.855  12.755 -0.2487  0.1064 -0.1165
12067DOPS   CNO15136  16.642   4.215  17.921  0.1469 -0.0448  0.1527
12067DOPS   PO415137  16.582   4.134  17.584  0.1286  0.0780  0.0836
12067DOPS   GL115138  16.428   3.984  17.276  0.0778  0.1081 -0.1033
12067DOPS   GL215139  16.473   4.139  16.991 -0.3312  0.0792 -0.0298
12067DOPS   C1A15140  15.954   3.855  17.190 -0.3311  0.1745  0.1175
12067DOPS   D2A15141  15.534   3.712  16.975 -0.0952  0.2044  0.0335
12067DOPS   C3A15142  15.163   3.989  16.896  0.3110  0.2791  0.0862
12067DOPS   C4A15143  14.723   4.009  16.753 -0.1547 -0.1265 -0.0328
12067DOPS   C1B15144  16.170   3.943  16.745 -0.0447  0.0311 -0.1574
12067DOPS   D2B15145  15.802   3.662  16.444 -0.0017 -0.2186 -0.1032
12067DOPS   C3B15146  15.514   3.544  16.095  0.2427 -0.0653 -0.3347
12067DOPS   C4B15147  15.405   3.237  15.716  0.2223  0.2490  0.1046
12068DOPS   CNO15148  10.696   4.983  22.747  0.2880 -0.0920  0.1524
12068DOPS   PO415149  10.409   5.216  22.714  0.1994  0.0083 -0.0387
12068DOPS   GL115150  10.220   5.162  22.292 -0.3246  0.4458 -0.0393
12068DOPS   GL215151  10.409   5.021  22.151 -0.1970  0.2057 -0.0606
12068DOPS   C1A15152  10.033   5.547  22.095 -0.2202 -0.0467  0.1043
12068DOPS   D2A15153   9.896   6.081  22.124  0.1655  0.0005  0.0851
12068DOPS   C3A15154   9.566   5.764  22.015  0.3470 -0.0271  0.0114
12068DOPS   C4A15155   9.443   5.301  21.951 -0.2204  0.2126  0.0433
12068DOPS   C1B15156  10.097   4.872  21.817 -0.1878  0.4126  0.0843
12068DOPS   D2B15157  10.011   4.868  21.340  0.1361  0.1171 -0.1959
12068DOPS   C3B15158   9.722   4.720  21.000  0.3406 -0.1005 -0.0712
12068DOPS   C4B15159   9.356   4.862  20.781  0.1256  0.0031 -0.1734
12069DOPS   CNO15160   0.380   3.826  17.087 -0.2635  0.1798  0.0329
12069DOPS   PO415161   0.621   3.881  16.814 -0.0578  0.0743 -0.0429
12069DOPS   GL115162   0.681   3.594  16.533  0.3656 -0.0510  0.1483
12069DOPS   GL215163   0.682   3.802  16.327  0.2539 -0.0115 -0.1613
12069DOPS   C1A15164   1.100   3.591  16.388  0.0763 -0.1900 -0.0968
12069DOPS   D2A15165   1.392   3.701  15.992 -0.0539 -0.0609 -0.1627
12069DOPS   C3A15166   1.837   3.668  15.765  0.3134  0.2752  0.0204
12069DOPS   C4A15167   2.230   3.791  15.646 -0.1845 -0.0968  0.4845
12069DOPS   C1B15168   0.778   3.638  15.960 -0.1123  0.1697 -0.1443
12069DOPS   D2B15169   0.981   3.625  15.504 -0.1955  0.1313  0.1438
12069DOPS   C3B15170   1.357   3.486  15.263  0.2176 -0.0300  0.1574
12069DOPS   C4B15171   1.834   3.361  15.152  0.0255  0.0960  0.2630
12070DOPS   CNO15172  18.512   4.237  15.357  0.0669 -0.3261  0.3622
12070DOPS   PO415173  18.310   4.394  15.084 -0.1790  0.0615 -0.2052
12070DOPS   GL115174  18.416   4.440  14.677  0.1740  0.1811 -0.2762
12070DOPS   GL215175  18.274   4.170  14.686  0.3641  0.3704 -0.0623
12070DOPS   C1A15176  18.103   4.489  14.397  0.1072  0.0731  0.2178
12070DOPS   D2A15177  17.639   4.420  14.162  0.0783  0.2500 -0.0593
12070DOPS   C3A15178  17.322   4.437  13.754  0.0805 -0.4954 -0.1729
12070DOPS   C4A15179  17.179   4.288  13.323  0.0694  0.0510  0.3026
12070DOPS   C1B15180  17.821   4.102  14.569 -0.0622  0.1869  0.0082
12070DOPS   D2B15181  17.378   3.906  14.441 -0.4471 -0.2522 -0.3722
12070DOPS   C3B15182  17.366   3.701  14.913  0.2976 -0.1172  0.3676
12070DOPS   C4B15183  17.391   3.581  15.370  0.1160 -0.0697  0.0690
12071DOPS   CNO15184  22.871   0.250  14.636 -0.0395  0.0538  0.2061
12071DOPS   PO415185  22.689   0.540  14.584 -0.1776 -0.2800  0.1957
12071DOPS   GL115186  22.811   0.720  14.246  0.0575  0.0748  0.2042
12071DOPS   GL215187  22.992   0.449  14.247  0.1295 -0.2207 -0.1050
12071DOPS   C1A15188  22.584   0.886  13.957  0.4505  0.1276 -0.1326
12071DOPS   D2A15189  22.601   1.092  13.487  0.0842 -0.2414 -0.0486
12071DOPS   C3A15190  22.539   1.394  13.174  0.0253 -0.1925 -0.0193
12071DOPS   C4A15191  22.613   1.598  12.667 -0.2124  0.2444 -0.0289
12071DOPS   C1B15192  23.431   0.312  14.295  0.0258 -0.1829  0.2490
12071DOPS   D2B15193  23.790   0.208  13.894 -0.1083 -0.0128 -0.0562
12071DOPS   C3B15194  23.790   0.317  13.408  0.2931  0.1916 -0.0126
12071DOPS   C4B15195  23.609   0.248  12.951 -0.3155 -0.0516  0.0142
12072DOPS   CNO15196   0.794   7.818  18.305 -0.1672 -0.0001  0.0992
12072DOPS   PO415197   1.055   8.013  18.424 -0.4885 -0.1622  0.0177
12072DOPS   GL115198   1.420   7.972  18.234  0.0340  0.0361 -0.3641
12072DOPS   GL215199   1.422   7.681  18.387 -0.2999  0.3221 -0.3893
12072DOPS   C1A15200   1.748   8.260  18.160 -0.1769 -0.0448  0.3750
12072DOPS   D2A15201   1.994   8.676  17.953 -0.0571  0.2183 -0.0994
12072DOPS   C3A15202   2.221   8.681  17.537  0.0036  0.1576  0.0555
12072DOPS   C4A15203   2.327   8.869  17.092 -0.1459 -0.0690 -0.3119
12072DOPS   C1B15204   1.547   7.294  18.251 -0.0426 -0.0878  0.1535
12072DOPS   D2B15205   1.821   7.078  17.853  0.1553 -0.2686  0.1214
12072DOPS   C3B15206   2.251   6.966  17.744  0.0987 -0.0840  0.0047
12072DOPS   C4B15207   2.649   7.099  17.545 -0.1603  0.1555 -0.1543
12073DOPS   CNO15208   1.907   7.123  19.420  0.0126  0.0400  0.1564
12073DOPS   PO415209   2.201   7.327  19.278 -0.0130 -0.1230 -0.1013
12073DOPS   GL115210   2.536   7.132  19.088  0.4573  0.1539 -0.0086
12073DOPS   GL215211   2.697   7.065  19.297  0.0207  0.2791  0.1274
12073DOPS   C1A15212   2.868   7.155  18.823  0.0002  0.0581  0.0339
12073DOPS   D2A15213   3.300   7.054  18.567 -0.2246 -0.0217  0.2989
12073DOPS   C3A15214   3.260   7.166  18.100  0.2947  0.3089 -0.2210
12073DOPS   C4A15215   3.545   7.326  17.696  0.2486 -0.4600  0.1769
12073DOPS   C1B15216   3.046   7.303  19.255 -0.2146  0.1799 -0.0269
12073DOPS   D2B15217   3.351   7.636  19.316 -0.1494 -0.1385  0.1861
12073DOPS   C3B15218   3.540   7.839  18.953  0.0612  0.0121 -0.0746
12073DOPS   C4B15219   3.432   8.268  18.691  0.0067  0.0220  0.1311
12074DOPS   CNO15220   4.469   4.699  22.229 -0.0500 -0.3259  0.0843
12074DOPS   PO415221   4.617   4.737  21.881  0.0437 -0.4258 -0.0771
12074DOPS   GL115222   4.661   4.610  21.494  0.1257 -0.0321  0.0048
12074DOPS   GL215223   4.960   4.604  21.526 -0.2315 -0.1174  0.1792
12074DOPS   C1A15224   4.675   4.687  21.119  0.1109  0.1197 -0.0327
12074DOPS   D2A15225   4.525   4.912  20.719  0.1030 -0.0821  0.1654
12074DOPS   C3A15226   4.613   5.000  20.272 -0.0665  0.0896  0.0265
12074DOPS   C4A15227   4.586   5.204  19.879 -0.0576 -0.2824  0.3437
12074DOPS   C1B15228   5.121   4.948  21.349  0.0120  0.1042 -0.1056
12074DOPS   D2B15229   5.157   5.444  21.393 -0.3656 -0.2267 -0.1214
12074DOPS   C3B15230   5.281   5.666  21.008 -0.0129  0.2605 -0.0495
12074DOPS   C4B15231   5.052   5.933  20.608 -0.3223  0.3019 -0.0398
12075DOPS   CNO15232  18.622   6.147  15.370  0.1525  0.0538  0.1315
12075DOPS   PO415233  18.626   6.465  15.169  0.2152 -0.0997  0.0920
12075DOPS   GL115234  18.614   6.418  14.672 -0.1242  0.3879 -0.2457
12075DOPS   GL215235  18.866   6.486  14.638  0.0468 -0.2844 -0.1324
12075DOPS   C1A15236  18.300   6.621  14.392  0.0321 -0.0399  0.0081
12075DOPS   D2A15237  18.273   6.901  13.946  0.1084  0.0978  0.0476
12075DOPS   C3A15238  18.725   6.831  13.825 -0.4137 -0.1725 -0.0658
12075DOPS   C4A15239  19.226   6.892  13.701  0.1958  0.0004  0.2306
12075DOPS   C1B15240  18.899   6.847  14.329  0.1843 -0.0478 -0.0517
12075DOPS   D2B15241  19.007   7.215  14.010  0.3439 -0.2876  0.1679
12075DOPS   C3B15242  18.691   7.260  13.630 -0.2049 -0.3676 -0.2058
12075DOPS   C4B15243  18.509   7.267  13.256 -0.0909  0.0939 -0.0908
12076DOPS   CNO15244  17.934   5.622  15.689 -0.1356 -0.2774  0.0784
12076DOPS   PO415245  17.781   5.912  15.530  0.0498  0.1987 -0.3176
12076DOPS   GL115246  17.634   5.998  15.054 -0.0354  0.2946  0.1222
12076DOPS   GL215247  17.626   6.202  15.168  0.2031 -0.1053 -0.0753
12076DOPS   C1A15248  17.927   5.898  14.767 -0.0570  0.0255 -0.0674
12076DOPS   D2A15249  17.981   5.495  14.554  0.0352 -0.1440 -0.0733
12076DOPS   C3A15250  17.842   5.338  14.200 -0.2599 -0.0278 -0.2824
12076DOPS   C4A15251  17.683   5.496  13.756  0.1193 -0.2062 -0.2164
12076DOPS   C1B15252  17.171   6.199  15.142  0.1466  0.3496 -0.0567
12076DOPS   D2B15253  16.725   6.010  15.148  0.0775  0.1944 -0.0738
12076DOPS   C3B15254  16.689   5.821  14.718  0.0113 -0.1442  0.1861
12076DOPS   C4B15255  16.947   5.633  14.315 -0.2647  0.2659  0.1703
12077DOPS   CNO15256  15.408   1.797  19.858 -0.1678  0.1351 -0.1295
12077DOPS   PO415257  15.528   1.837  19.484  0.1244 -0.1726 -0.1524
12077DOPS   GL115258  15.151   1.848  19.243 -0.1347 -0.2370  0.0784
12077DOPS   GL215259  14.990   1.851  19.525  0.1769  0.4879  0.3425
12077DOPS   C1A15260  15.036   1.498  18.867 -0.0613 -0.0290 -0.1035
12077DOPS   D2A15261  14.675   1.702  18.619 -0.4188 -0.1705  0.1051
12077DOPS   C3A15262  14.512   2.068  18.505  0.1023 -0.1082  0.3402
12077DOPS   C4A15263  14.123   2.274  18.243 -0.1770 -0.0580  0.0037
12077DOPS   C1B15264  14.706   1.610  19.425 -0.0127  0.1231 -0.0431
12077DOPS   D2B15265  14.258   1.825  19.436 -0.2548  0.2482 -0.2159
12077DOPS   C3B15266  13.921   2.027  19.265 -0.0519  0.0698  0.0453
12077DOPS   C4B15267  13.447   2.136  19.028 -0.0163  0.2726 -0.0897
12078DOPS   CNO15268  12.264   6.656  22.209  0.0095 -0.3979 -0.0891
12078DOPS   PO415269  12.520   6.667  21.928 -0.1530 -0.1759 -0.0054
12078DOPS   GL115270  12.123   6.641  21.718  0.0699  0.5358  0.2409
12078DOPS   GL215271  12.133   6.444  21.601 -0.0404 -0.0645 -0.2984
12078DOPS   C1A15272  11.990   6.968  21.564 -0.1355  0.0225 -0.0528
12078DOPS   D2A15273  12.008   7.175  21.118  0.4705  0.0427 -0.0218
12078DOPS   C3A15274  11.658   7.307  20.804  0.0268 -0.4127 -0.0695
12078DOPS   C4A15275  11.181   7.421  20.640  0.2607 -0.0476  0.0518
12078DOPS   C1B15276  12.121   6.493  21.176  0.0742 -0.1004 -0.0955
12078DOPS   D2B15277  12.049   6.700  20.735 -0.1158  0.2509 -0.0563
12078DOPS   C3B15278  12.336   6.713  20.405  0.1058 -0.0335  0.1699
12078DOPS   C4B15279  12.768   6.759  20.133  0.4321  0.1151  0.0008
12079DOPS   CNO15280   8.796   2.136  23.147  0.1215 -0.0343  0.0915
12079DOPS   PO415281   8.894   2.150  22.776  0.0047 -0.0883 -0.2943
12079DOPS   GL115282   9.079   2.016  22.374  0.0684 -0.2654 -0.0132
12079DOPS   GL215283   9.063   2.243  22.303  0.0958 -0.1113  0.0349
12079DOPS   C1A15284   8.943   1.815  22.001 -0.2120  0.1651  0.1908
12079DOPS   D2A15285   8.683   1.699  21.567 -0.2147 -0.1337 -0.0556
12079DOPS   C3A15286   8.839   1.649  21.093  0.0988 -0.2897  0.1840
12079DOPS   C4A15287   9.009   1.568  20.712  0.2075  0.0251 -0.2055
12079DOPS   C1B15288   9.053   2.444  21.962 -0.1382  0.0418 -0.2465
12079DOPS   D2B15289   8.969   2.488  21.427 -0.0241 -0.0476 -0.0133
12079DOPS   C3B15290   8.802   2.635  21.001  0.0237 -0.1835 -0.1248
12079DOPS   C4B15291   8.442   2.850  20.703  0.1427 -0.1049  0.0770
12080DOPS   CNO15292   6.401   0.399  22.452 -0.1714 -0.0563 -0.1680
12080DOPS   PO415293   6.700   0.398  22.259  0.1252  0.0381  0.0698
12080DOPS   GL115294   6.957   0.319  21.923  0.0789  0.4110  0.0444
12080DOPS   GL215295   7.182   0.206  21.951  0.2168  0.2698  0.1731
12080DOPS   C1A15296   6.984   0.570  21.549  0.2250 -0.1140 -0.0042
12080DOPS   D2A15297   6.806   0.738  21.177 -0.2768 -0.0660 -0.1228
12080DOPS   C3A15298   7.074   0.960  20.805 -0.1176 -0.2067 -0.0723
12080DOPS   C4A15299   7.276   1.072  20.410 -0.1803 -0.2485  0.0828
12080DOPS   C1B15300   7.306   0.213  21.523  0.1019  0.0371 -0.0844
12080DOPS   D2B15301   7.373   0.436  21.112  0.2828  0.1245  0.0606
12080DOPS   C3B15302   7.334   0.532  20.623  0.3260 -0.0249 -0.1485
12080DOPS   C4B15303   6.950   0.548  20.366 -0.3910 -0.0880 -0.1688
12081DOPS   CNO15304   1.457   5.159  18.268 -0.0479  0.3620  0.0330
12081DOPS   PO415305   1.565   5.436  18.021 -0.0365 -0.0374 -0.3681
12081DOPS   GL115306   1.920   5.542  18.060 -0.1841 -0.1940  0.1750
12081DOPS   GL215307   2.086   5.318  18.107 -0.1642  0.2962 -0.1189
12081DOPS   C1A15308   2.260   5.790  17.788  0.0982  0.0110 -0.1607
12081DOPS   D2A15309   2.613   5.948  17.576  0.1208 -0.0663 -0.0029
12081DOPS   C3A15310   3.018   5.834  17.483  0.2706 -0.3110  0.0675
12081DOPS   C4A15311   3.463   5.924  17.346 -0.3615 -0.0138  0.5114
12081DOPS   C1B15312   2.435   5.292  17.880  0.2242 -0.0357  0.0727
12081DOPS   D2B15313   2.822   5.140  17.574 -0.1142  0.1518 -0.0844
12081DOPS   C3B15314   3.195   4.938  17.613  0.1961  0.0389  0.0426
12081DOPS   C4B15315   3.717   4.754  17.416 -0.1498 -0.3891 -0.2303
12082DOPS   CNO15316  16.554   2.846  17.694  0.2032  0.2227 -0.0741
12082DOPS   PO415317  16.423   3.215  17.818 -0.0019  0.1202  0.2570
12082DOPS   GL115318  16.022   3.008  17.743 -0.0855  0.1376 -0.1080
12082DOPS   GL215319  16.138   2.924  17.504  0.1268  0.1997  0.1890
12082DOPS   C1A15320  15.593   3.125  17.810 -0.0704  0.1937 -0.0034
12082DOPS   D2A15321  15.060   3.143  17.762 -0.3631 -0.0875  0.2769
12082DOPS   C3A15322  14.779   3.086  17.412  0.0973 -0.2634  0.0310
12082DOPS   C4A15323  14.423   3.274  17.133  0.1819  0.2305  0.0869
12082DOPS   C1B15324  16.024   2.902  17.026 -0.1215 -0.0854 -0.2054
12082DOPS   D2B15325  15.733   2.630  16.635  0.3614 -0.0230 -0.3131
12082DOPS   C3B15326  15.396   2.569  16.354  0.1382 -0.2704  0.1057
12082DOPS   C4B15327  15.235   2.290  15.965  0.0785  0.2693 -0.0469
12083DOPS   CNO15328   1.417   4.803  18.590  0.1578  0.3773  0.2135
12083DOPS   PO415329   1.742   4.896  18.562  0.0773  0.0429 -0.0919
12083DOPS   GL115330   1.960   4.887  18.218 -0.2065  0.0070  0.1892
12083DOPS   GL215331   1.815   5.001  18.049  0.2800 -0.0367 -0.0207
12083DOPS   C1A15332   2.328   4.841  18.067  0.0239 -0.2276  0.1574
12083DOPS   D2A15333   2.774   4.739  17.878 -0.0340  0.0037  0.0891
12083DOPS   C3A15334   2.892   4.594  17.435 -0.2648 -0.0775  0.0971
12083DOPS   C4A15335   3.012   4.333  17.036  0.2132 -0.1208  0.3569
12083DOPS   C1B15336   2.040   5.088  17.648  0.1241 -0.4371  0.0440
12083DOPS   D2B15337   2.430   4.809  17.511 -0.0269  0.1421 -0.0627
12083DOPS   C3B15338   2.699   4.904  17.102 -0.0315  0.2403 -0.0825
12083DOPS   C4B15339   2.836   4.707  16.722 -0.1545 -0.0289 -0.1576
12084DOPS   CNO15340  21.240   6.730  14.338 -0.1224  0.1651 -0.1632
12084DOPS   PO415341  20.963   6.451  14.435 -0.3289  0.0950 -0.0499
12084DOPS   GL115342  20.866   6.264  13.948  0.0893 -0.0891 -0.0829
12084DOPS   GL215343  21.041   6.530  13.982 -0.0125 -0.0156  0.0611
12084DOPS   C1A15344  20.826   6.151  13.465 -0.3291  0.0925 -0.0274
12084DOPS   D2A15345  20.913   6.337  13.018  0.1622  0.1864  0.3681
12084DOPS   C3A15346  21.242   6.563  12.732 -0.2444  0.0157 -0.1530
12084DOPS   C4A15347  21.629   6.539  12.501  0.0925 -0.0157  0.1191
12084DOPS   C1B15348  21.159   6.618  13.630 -0.1521 -0.0690 -0.0501
12084DOPS   D2B15349  21.366   6.414  13.221 -0.1473  0.1509  0.0929
12084DOPS   C3B15350  21.580   6.251  12.917 -0.2062  0.2350  0.0164
12084DOPS   C4B15351  21.854   6.081  12.552 -0.1200 -0.0249  0.1371
12085DOPS   CNO15352  14.267   0.699  20.910 -0.4912  0.1834  0.2179
12085DOPS   PO415353  14.049   0.931  20.696  0.1904 -0.1466  0.0453
12085DOPS   GL115354  13.795   0.742  20.420  0.3142 -0.2889  0.0785
12085DOPS   GL215355  13.817   0.501  20.359  0.0138  0.1392 -0.0502
12085DOPS   C1A15356  13.418   0.841  20.182  0.1519 -0.2167  0.2342
12085DOPS   D2A15357  13.121   0.844  19.753 -0.2445 -0.3254 -0.0456
12085DOPS   C3A15358  12.718   0.902  19.431 -0.2206 -0.3163  0.1214
12085DOPS   C4A15359  12.295   1.115  19.181  0.0130  0.0711 -0.0443
12085DOPS   C1B15360  13.513   0.215  20.199  0.4245  0.0922  0.1398
12085DOPS   D2B15361  13.339  -0.158  19.931  0.1298 -0.1724 -0.0149
12085DOPS   C3B15362  13.028  -0.157  19.617 -0.2209 -0.2548  0.1620
12085DOPS   C4B15363  12.798  -0.484  19.319  0.3702 -0.2985  0.2380
12086DOPS   CNO15364   7.378   5.527  22.509  0.1633 -0.0273  0.1270
12086DOPS   PO415365   7.301   5.145  22.637 -0.0976 -0.3517  0.1223
12086DOPS   GL115366   7.460   5.119  22.292 -0.0795  0.2281 -0.0881
12086DOPS   GL215367   7.660   4.841  22.321  0.1040  0.1211  0.2319
12086DOPS   C1A15368   7.320   5.127  21.868  0.1194 -0.0895  0.2101
12086DOPS   D2A15369   7.258   5.042  21.375  0.0399  0.0577  0.0666
12086DOPS   C3A15370   7.208   5.277  20.962  0.2202 -0.2796 -0.1447
12086DOPS   C4A15371   7.180   5.796  20.956  0.0308 -0.0035 -0.0197
12086DOPS   C1B15372   7.856   5.098  22.024  0.0606 -0.0193 -0.2384
12086DOPS   D2B15373   8.126   5.471  21.811  0.0959  0.1213 -0.1540
12086DOPS   C3B15374   8.192   5.424  21.363 -0.2323 -0.4105 -0.3939
12086DOPS   C4B15375   8.308   5.176  20.928  0.2711 -0.0473 -0.0996
12087DOPS   CNO15376   6.303   5.949  22.831 -0.3545  0.2762  0.2846
12087DOPS   PO415377   6.548   6.120  22.621  0.0540  0.3267  0.3187
12087DOPS   GL115378   6.697   5.996  22.230 -0.0968 -0.1047  0.0179
12087DOPS   GL215379   6.425   5.998  22.052 -0.1275  0.2174 -0.2981
12087DOPS   C1A15380   6.918   6.161  21.893 -0.0804 -0.2914 -0.4750
12087DOPS   D2A15381   7.169   5.998  21.488  0.0479 -0.2476 -0.5079
12087DOPS   C3A15382   7.408   5.594  21.462 -0.1838 -0.1366 -0.1592
12087DOPS   C4A15383   7.742   5.244  21.543  0.2730 -0.1242  0.2173
12087DOPS   C1B15384   6.610   5.579  22.001 -0.0330  0.1644  0.2209
12087DOPS   D2B15385   6.539   5.141  21.843  0.2669  0.0902  0.2920
12087DOPS   C3B15386   6.275   4.817  21.620  0.0037 -0.0876 -0.0299
12087DOPS   C4B15387   5.957   4.529  21.655  0.0178 -0.0428 -0.3083
12088DOPC   NC315388   5.312   7.204  17.172  0.3404 -0.1913  0.1540
12088DOPC   PO415389   5.471   6.857  17.110 -0.3348  0.0451 -0.0685
12088DOPC   GL115390   5.174   6.658  17.401  0.1686  0.2502  0.0961
12088DOPC   GL215391   4.980   6.879  17.354  0.1002 -0.2468  0.3968
12088DOPC   C1A15392   5.052   6.584  17.794 -0.1145 -0.0986 -0.0235
12088DOPC   D2A15393   4.768   6.732  18.149  0.2051 -0.0732 -0.0576
12088DOPC   C3A15394   4.414   6.425  18.233 -0.3332  0.3455  0.0652
12088DOPC   C4A15395   3.936   6.213  18.192 -0.1027 -0.1187 -0.1388
12088DOPC   C1B15396   4.916   7.079  17.808  0.0173  0.1595  0.0051
12088DOPC   D2B15397   4.685   7.231  18.236 -0.0333  0.2526  0.2133
12088DOPC   C3B15398   4.335   6.953  18.401 -0.2365 -0.0599 -0.0829
12088DOPC   C4B15399   4.095   6.562  18.582 -0.1495 -0.1496  0.1012
12089DOPC   NC315400  17.480   7.065  11.816  0.0934  0.1444  0.2213
12089DOPC   PO415401  17.508   6.678  11.700  0.0602 -0.2452 -0.1190
12089DOPC   GL115402  17.868   6.422  11.898  0.2248  0.1056 -0.0346
12089DOPC   GL215403  17.680   6.204  11.815  0.1427  0.2582 -0.1783
12089DOPC   C1A15404  18.255   6.420  12.196 -0.0003 -0.0036  0.0038
12089DOPC   D2A15405  18.616   6.481  12.486  0.3500  0.2677 -0.0006
12089DOPC   C3A15406  18.957   6.774  12.527 -0.0552 -0.1471  0.0462
12089DOPC   C4A15407  19.231   7.226  12.428  0.2576 -0.0753 -0.1339
12089DOPC   C1B15408  17.859   6.046  12.231  0.0173 -0.3844 -0.0095
12089DOPC   D2B15409  18.164   6.061  12.655  0.1740  0.0346 -0.1680
12089DOPC   C3B15410  18.118   6.169  13.069 -0.1404  0.1224 -0.0415
12089DOPC   C4B15411  18.113   6.164  13.597  0.1621 -0.1965  0.0322
12090DOPC   NC315412  12.935   3.199  15.546 -0.0850 -0.2277  0.0275
12090DOPC   PO415413  13.188   3.094  15.240  0.2071  0.2156 -0.2728
12090DOPC   GL115414  13.521   3.108  15.404  0.2294 -0.1394 -0.1566
12090DOPC   GL215415  13.587   3.304  15.114  0.2909 -0.0038  0.1359
12090DOPC   C1A15416  13.864   2.925  15.518  0.0757  0.0130 -0.4362
12090DOPC   D2A15417  14.275   2.729  15.473  0.0936 -0.0038  0.2184
12090DOPC   C3A15418  14.714   2.905  15.483 -0.6885 -0.0143  0.0206
12090DOPC   C4A15419  14.982   3.315  15.315 -0.0249  0.0542  0.0081
12090DOPC   C1B15420  13.822   3.470  15.332  0.0340  0.2017 -0.0594
12090DOPC   D2B15421  14.023   3.683  15.753 -0.1464  0.1366  0.1237
12090DOPC   C3B15422  14.236   3.932  16.099 -0.2623  0.0822 -0.2277
12090DOPC   C4B15423  14.633   4.145  16.258 -0.0380  0.1226  0.3270
12091DOPC   NC315424   7.131   2.113  18.300 -0.0221  0.1398 -0.1577
12091DOPC   PO415425   7.372   2.422  18.276 -0.0137 -0.1966  0.1386
12091DOPC   GL115426   7.617   2.416  18.563  0.0509 -0.1880  0.0550
12091DOPC   GL215427   7.550   2.561  18.850 -0.0498 -0.0648  0.4188
12091DOPC   C1A15428   7.767   2.087  18.849 -0.1318  0.2063  0.0881
12091DOPC   D2A15429   8.036   1.994  19.368  0.0935 -0.1826  0.2767
12091DOPC   C3A15430   7.787   1.634  19.633 -0.1753  0.3399 -0.0958
12091DOPC   C4A15431   7.560   1.441  20.028 -0.2260  0.0949  0.1091
12091DOPC   C1B15432   7.515   2.376  19.228  0.2627 -0.2362  0.2935
12091DOPC   D2B15433   7.472   2.046  19.604 -0.0557 -0.0742 -0.2023
12091DOPC   C3B15434   7.532   1.977  20.089  0.1129 -0.2066  0.0757
12091DOPC   C4B15435   7.485   1.998  20.585 -0.0390  0.1021  0.2649
12092DOPC   NC315436  15.000   2.270  12.255 -0.2332 -0.0916 -0.3314
12092DOPC   PO415437  15.336   2.097  12.349 -0.2514  0.1075  0.1321
12092DOPC   GL115438  15.662   1.961  12.554  0.0398  0.3740  0.0436
12092DOPC   GL215439  15.806   2.179  12.633  0.1012  0.0570  0.0683
12092DOPC   C1A15440  16.025   1.872  12.855  0.2596 -0.1775  0.2182
12092DOPC   D2A15441  16.098   2.017  13.354 -0.0224 -0.4337  0.0475
12092DOPC   C3A15442  16.152   2.513  13.329 -0.0657  0.2173  0.0276
12092DOPC   C4A15443  15.969   2.950  13.531  0.0041 -0.0546  0.1805
12092DOPC   C1B15444  16.164   2.379  12.789 -0.0633  0.0649 -0.1235
12092DOPC   D2B15445  16.640   2.528  12.925 -0.0933  0.2748 -0.1729
12092DOPC   C3B15446  16.692   2.489  13.429  0.0182  0.0763  0.2956
12092DOPC   C4B15447  16.929   2.430  13.919  0.0142  0.0514  0.2307
12093DOPC   NC315448   6.859   4.940  18.140 -0.0144 -0.0751  0.1450
12093DOPC   PO415449   6.511   4.842  18.266 -0.0282 -0.1954 -0.1359
12093DOPC   GL115450   6.302   4.692  18.627 -0.0215  0.0498 -0.0638
12093DOPC   GL215451   6.246   4.457  18.469 -0.2687 -0.0317  0.2636
12093DOPC   C1A15452   6.367   4.575  19.094  0.1015 -0.2114  0.0575
12093DOPC   D2A15453   6.204   4.335  19.575 -0.2303 -0.0381 -0.1873
12093DOPC   C3A15454   6.408   4.256  19.991  0.2454 -0.3501 -0.0322
12093DOPC   C4A15455   6.683   4.194  20.417  0.1360 -0.0853 -0.0157
12093DOPC   C1B15456   5.934   4.274  18.683  0.0476 -0.0201 -0.0624
12093DOPC   D2B15457   5.661   4.043  18.970 -0.1183 -0.3746  0.3360
12093DOPC   C3B15458   5.516   4.310  19.279 -0.0718  0.0871 -0.1470
12093DOPC   C4B15459   5.115   4.567  19.392 -0.0014  0.1417  0.0826
12094DOPC   NC315460  11.186   3.927  18.343 -0.3273  0.0244  0.1454
12094DOPC   PO415461  10.989   4.241  18.253 -0.0587  0.1677 -0.0087
12094DOPC   GL115462  10.951   4.243  18.614 -0.0081  0.1937 -0.1279
12094DOPC   GL215463  11.040   4.588  18.677 -0.1144  0.0319 -0.0218
12094DOPC   C1A15464  11.033   4.152  19.033  0.1297  0.1293 -0.0349
12094DOPC   D2A15465  11.047   3.779  19.394  0.4162  0.0058  0.1863
12094DOPC   C3A15466  11.383   3.747  19.670 -0.1415 -0.1123  0.0030
12094DOPC   C4A15467  11.810   3.640  19.833 -0.1491  0.0794 -0.0004
12094DOPC   C1B15468  11.104   4.706  19.094  0.2713 -0.0654  0.1800
12094DOPC   D2B15469  11.148   4.931  19.497  0.0621 -0.0539 -0.0894
12094DOPC   C3B15470  11.049   4.639  19.819  0.1659  0.0388 -0.1057
12094DOPC   C4B15471  10.901   4.406  20.191  0.1166 -0.1693  0.0702
12095DOPC   NC315472   1.728   0.041  12.051 -0.0795  0.3300 -0.1920
12095DOPC   PO415473   1.594  -0.227  12.345  0.0370  0.1120  0.1540
12095DOPC   GL115474   1.414  -0.462  12.670  0.1554  0.0490  0.0652
12095DOPC   GL215475   1.303  -0.664  12.518  0.1241 -0.0566 -0.3480
12095DOPC   C1A15476   0.986  -0.382  12.884 -0.2711 -0.0845 -0.0809
12095DOPC   D2A15477   0.521  -0.441  13.000 -0.1178  0.0893 -0.0337
12095DOPC   C3A15478   0.435  -0.165  13.298 -0.2741  0.1786  0.1943
12095DOPC   C4A15479   0.204   0.230  13.497 -0.0436  0.1884  0.3015
12095DOPC   C1B15480   0.901  -0.861  12.530  0.0727  0.2226  0.3042
12095DOPC   D2B15481   0.510  -1.006  12.856 -0.0896  0.3275  0.0233
12095DOPC   C3B15482   0.538  -1.283  13.285 -0.3097 -0.0195 -0.3166
12095DOPC   C4B15483   0.547  -1.429  13.764  0.0312 -0.0904  0.3538
12096DOPC   NC315484  16.839   1.002  11.668  0.0969 -0.0475 -0.1240
12096DOPC   PO415485  17.119   1.208  11.480 -0.0632 -0.1717  0.0121
12096DOPC   GL115486  17.373   1.374  11.751  0.2322  0.0838 -0.0125
12096DOPC   GL215487  17.633   1.501  11.731  0.4424  0.3188 -0.1056
12096DOPC   C1A15488  17.425   1.208  12.135 -0.2727  0.1901  0.0707
12096DOPC   D2A15489  17.676   0.783  12.347  0.0089  0.0822 -0.2026
12096DOPC   C3A15490  18.053   0.623  12.624 -0.0325  0.0610 -0.0371
12096DOPC   C4A15491  18.281   0.297  12.963  0.1126 -0.2654 -0.3264
12096DOPC   C1B15492  17.878   1.502  12.186  0.0022  0.1400 -0.0005
12096DOPC   D2B15493  18.192   1.568  12.522  0.0121  0.0643 -0.0569
12096DOPC   C3B15494  17.961   1.930  12.655  0.1596  0.1567  0.1403
12096DOPC   C4B15495  17.455   1.994  12.753 -0.0059  0.0557  0.0940
12097DOPC   NC315496  20.343   7.639  10.506 -0.3466 -0.2811 -0.0238
12097DOPC   PO415497  20.535   8.013  10.418 -0.0949  0.0588  0.0398
12097DOPC   GL115498  20.581   7.981  10.868 -0.1749 -0.1114  0.3914
12097DOPC   GL215499  20.942   7.955  10.887 -0.0088 -0.1868  0.0070
12097DOPC   C1A15500  20.342   8.115  11.188  0.3455  0.1421 -0.2119
12097DOPC   D2A15501  20.388   7.982  11.677 -0.3257  0.1265  0.3289
12097DOPC   C3A15502  20.265   7.767  12.042 -0.0670  0.5049 -0.2833
12097DOPC   C4A15503  20.207   7.409  12.438 -0.1565  0.0450  0.1026
12097DOPC   C1B15504  21.194   7.719  11.211 -0.1034 -0.0489  0.0013
12097DOPC   D2B15505  21.310   7.465  11.625 -0.0719 -0.0401 -0.1558
12097DOPC   C3B15506  21.553   7.367  11.945 -0.1448 -0.0015  0.3372
12097DOPC   C4B15507  21.528   7.017  12.289 -0.0372 -0.0448 -0.1177
12098DOPC   NC315508   5.204   5.949  16.341 -0.1522 -0.1391  0.0564
12098DOPC   PO415509   5.071   6.259  16.586 -0.0925 -0.1485  0.1704
12098DOPC   GL115510   4.718   6.359  16.837 -0.1364  0.2168 -0.1582
12098DOPC   GL215511   4.578   6.056  16.761 -0.2345  0.0236  0.4113
12098DOPC   C1A15512   4.334   6.474  16.833 -0.1473  0.1601 -0.2482
12098DOPC   D2A15513   3.853   6.632  16.947 -0.2764 -0.1635  0.0014
12098DOPC   C3A15514   3.479   6.861  16.814  0.1989 -0.0047 -0.0815
12098DOPC   C4A15515   3.115   7.083  17.074 -0.0700  0.1995 -0.2362
12098DOPC   C1B15516   4.187   5.902  16.830 -0.0648 -0.1857  0.0225
12098DOPC   D2B15517   3.705   5.947  16.864  0.0514 -0.2362  0.2024
12098DOPC   C3B15518   3.470   6.304  16.668  0.2501 -0.1804 -0.1813
12098DOPC   C4B15519   3.090   6.312  16.368 -0.1136 -0.0214  0.1857
12099DOPC   NC315520   6.083   0.485  17.666  0.5291 -0.1386 -0.0263
12099DOPC   PO415521   5.752   0.728  17.751 -0.0742  0.0199 -0.1375
12099DOPC   GL115522   5.564   1.056  17.923 -0.1503  0.0681  0.4350
12099DOPC   GL215523   5.359   1.089  17.744 -0.1411  0.1556 -0.1944
12099DOPC   C1A15524   5.539   1.136  18.325  0.3623  0.2944 -0.3204
12099DOPC   D2A15525   5.480   1.039  18.792 -0.2814  0.2211 -0.2060
12099DOPC   C3A15526   5.562   1.338  19.108 -0.1223 -0.1051 -0.1992
12099DOPC   C4A15527   5.748   1.683  19.401  0.0501  0.3790 -0.1006
12099DOPC   C1B15528   5.121   0.957  18.083  0.1729  0.1361 -0.0047
12099DOPC   D2B15529   4.927   0.975  18.548 -0.1872  0.0199 -0.2917
12099DOPC   C3B15530   4.972   1.069  19.007 -0.2619 -0.0217 -0.2415
12099DOPC   C4B15531   5.257   1.083  19.386  0.1701  0.0785 -0.1214
12100DOPC   NC315532   6.348   2.168  17.459 -0.0861  0.3016  0.3051
12100DOPC   PO415533   6.333   2.542  17.653 -0.1475 -0.1248 -0.0914
12100DOPC   GL115534   6.125   2.702  18.028  0.2204 -0.2220  0.0057
12100DOPC   GL215535   5.867   2.568  17.950  0.1118  0.2306 -0.1581
12100DOPC   C1A15536   6.166   2.439  18.415  0.2199 -0.2582 -0.3380
12100DOPC   D2A15537   6.187   2.034  18.768  0.2501 -0.1581  0.2885
12100DOPC   C3A15538   5.868   2.122  19.026  0.0537 -0.0045 -0.0250
12100DOPC   C4A15539   5.513   2.147  19.352 -0.1099  0.3768 -0.2697
12100DOPC   C1B15540   5.551   2.388  18.140 -0.1927  0.0489  0.0641
12100DOPC   D2B15541   5.242   2.065  18.313  0.3941 -0.1301  0.0667
12100DOPC   C3B15542   4.954   1.824  18.526  0.0359  0.4075 -0.0853
12100DOPC   C4B15543   4.780   1.875  18.986 -0.3233 -0.1640  0.0338
12101DOPC   NC315544   6.892   1.762  17.941  0.3564  0.0628 -0.2491
12101DOPC   PO415545   7.183   1.552  18.082  0.0710 -0.2086  0.3568
12101DOPC   GL115546   6.886   1.502  18.372  0.3522  0.2084 -0.1042
12101DOPC   GL215547   6.813   1.741  18.434 -0.1086  0.0347  0.1310
12101DOPC   C1A15548   6.962   1.339  18.783 -0.1924  0.0046  0.3576
12101DOPC   D2A15549   6.760   1.509  19.217 -0.1080  0.0376  0.0169
12101DOPC   C3A15550   6.393   1.800  19.182 -0.0960  0.0169 -0.3617
12101DOPC   C4A15551   6.066   2.051  19.456  0.1163 -0.2255  0.0374
12101DOPC   C1B15552   6.887   1.832  18.880  0.0031  0.2075 -0.0421
12101DOPC   D2B15553   6.980   2.005  19.308 -0.2563 -0.2716 -0.0266
12101DOPC   C3B15554   6.884   2.127  19.767  0.0465 -0.2428  0.1320
12101DOPC   C4B15555   6.691   2.332  20.151 -0.0592 -0.0727 -0.1919
12102DOPC   NC315556  13.309   7.057  14.474  0.1348 -0.3658  0.1216
12102DOPC   PO415557  13.374   7.081  14.863  0.3178  0.0234  0.2967
12102DOPC   GL115558  13.799   7.256  14.994 -0.2665  0.0330 -0.1301
12102DOPC   GL215559  13.675   7.429  15.203  0.0689 -0.4180  0.0776
12102DOPC   C1A15560  14.020   7.042  15.325 -0.1962  0.1002 -0.3105
12102DOPC   D2A15561  14.348   7.048  15.661 -0.2539  0.0143 -0.1144
12102DOPC   C3A15562  14.304   6.632  15.893  0.0930  0.0247  0.1906
12102DOPC   C4A15563  14.024   6.236  16.030 -0.2015 -0.2362  0.1871
12102DOPC   C1B15564  13.970   7.524  15.511 -0.3063  0.0018 -0.0150
12102DOPC   D2B15565  14.276   7.521  15.812 -0.1203  0.3763  0.1330
12102DOPC   C3B15566  14.401   7.772  16.165  0.1558 -0.2718  0.0266
12102DOPC   C4B15567  14.588   8.133  16.477 -0.3008 -0.2241  0.1222
12103DOPC   NC315568  11.584   4.773  17.771 -0.2489  0.1022 -0.1331
12103DOPC   PO415569  11.359   4.460  17.873 -0.2866  0.1887  0.0037
12103DOPC   GL115570  11.391   4.438  18.347  0.4970  0.0275 -0.0725
12103DOPC   GL215571  11.471   4.773  18.246 -0.4595  0.2663 -0.3854
12103DOPC   C1A15572  11.464   4.398  18.712  0.1129 -0.2810  0.2310
12103DOPC   D2A15573  11.708   4.427  19.078 -0.3397  0.0852  0.1840
12103DOPC   C3A15574  11.304   4.377  19.388  0.1161 -0.3070 -0.2830
12103DOPC   C4A15575  10.834   4.205  19.542  0.0371 -0.0050 -0.0252
12103DOPC   C1B15576  11.510   4.940  18.663 -0.0686 -0.2313  0.4743
12103DOPC   D2B15577  11.591   4.964  19.163  0.0528 -0.3801  0.0187
12103DOPC   C3B15578  11.690   4.659  19.526 -0.1081 -0.1375 -0.0542
12103DOPC   C4B15579  11.703   4.126  19.661 -0.0365  0.0243  0.1515
12104DOPC   NC315580  19.049   2.567  10.244 -0.3593  0.2458  0.3149
12104DOPC   PO415581  19.360   2.332  10.207  0.0509 -0.1425 -0.1021
12104DOPC   GL115582  19.579   2.431  10.620 -0.1983 -0.0754 -0.0273
12104DOPC   GL215583  19.324   2.493  10.630  0.1817  0.0732  0.0828
12104DOPC   C1A15584  19.673   2.375  11.031 -0.0773 -0.1603 -0.1067
12104DOPC   D2A15585  19.752   2.511  11.526  0.1368 -0.0136 -0.1481
12104DOPC   C3A15586  19.653   2.717  11.919 -0.0385  0.1024 -0.0908
12104DOPC   C4A15587  19.528   2.972  12.299  0.2240 -0.0689 -0.3579
12104DOPC   C1B15588  19.146   2.380  11.018 -0.1886 -0.1554 -0.1770
12104DOPC   D2B15589  19.189   2.511  11.499 -0.0617  0.0353  0.0711
12104DOPC   C3B15590  19.073   2.524  11.923 -0.0695  0.0667  0.0595
12104DOPC   C4B15591  18.673   2.700  12.030  0.2022 -0.2604  0.1448
12105DOPC   NC315592  11.817   6.698  16.321  0.1831 -0.0705 -0.0177
12105DOPC   PO415593  11.760   6.614  16.704  0.1841 -0.2721  0.2320
12105DOPC   GL115594  12.070   6.641  16.909 -0.0575 -0.1575 -0.2336
12105DOPC   GL215595  11.875   6.752  17.204 -0.3443  0.1441  0.2825
12105DOPC   C1A15596  12.425   6.633  17.167 -0.2235  0.1361  0.0664
12105DOPC   D2A15597  12.805   6.513  17.473 -0.0737 -0.2635 -0.0246
12105DOPC   C3A15598  13.164   6.258  17.630  0.0683 -0.0654  0.0907
12105DOPC   C4A15599  13.494   5.955  17.865  0.2623  0.1873  0.0455
12105DOPC   C1B15600  12.081   6.753  17.511  0.0343  0.1269  0.4407
12105DOPC   D2B15601  12.486   6.737  17.830 -0.1267 -0.0605  0.0269
12105DOPC   C3B15602  12.890   6.534  17.939  0.3699 -0.0450 -0.0690
12105DOPC   C4B15603  13.362   6.499  18.028  0.0744  0.1128 -0.0887
12106DOPC   NC315604   1.518   6.844  11.523 -0.3303  0.2161  0.0524
12106DOPC   PO415605   1.308   6.610  11.774  0.3115  0.1365 -0.2049
12106DOPC   GL115606   1.038   6.704  12.143 -0.0047  0.0915 -0.4331
12106DOPC   GL215607   1.308   6.649  12.337 -0.2773  0.3788  0.0128
12106DOPC   C1A15608   0.580   6.930  12.128  0.2105  0.1023  0.0751
12106DOPC   D2A15609   0.128   6.879  12.305  0.0203  0.1048 -0.1555
12106DOPC   C3A15610  -0.043   6.590  12.579  0.0737 -0.0343  0.2000
12106DOPC   C4A15611  -0.240   6.154  12.716  0.1280 -0.3325  0.2532
12106DOPC   C1B15612   1.114   6.552  12.679 -0.0293  0.2067 -0.2276
12106DOPC   D2B15613   1.139   6.288  13.110 -0.0197  0.2386  0.1615
12106DOPC   C3B15614   1.018   6.447  13.492 -0.0966  0.0024 -0.0051
12106DOPC   C4B15615   0.973   6.322  13.950  0.1009  0.3926 -0.0284
12107DOPC   NC315616  17.697   1.114  11.494 -0.1498 -0.0126  0.4998
12107DOPC   PO415617  18.068   0.966  11.442  0.1367  0.1202 -0.1609
12107DOPC   GL115618  18.172   1.010  11.843  0.1322  0.1913 -0.1125
12107DOPC   GL215619  17.959   1.066  11.988 -0.2347  0.4272  0.4063
12107DOPC   C1A15620  18.426   0.875  12.183  0.1598  0.2935 -0.0466
12107DOPC   D2A15621  18.640   0.614  12.610  0.2584  0.2588 -0.0848
12107DOPC   C3A15622  18.894   0.948  12.816  0.0238  0.0802 -0.2949
12107DOPC   C4A15623  19.168   1.347  12.740  0.1287 -0.0592 -0.0091
12107DOPC   C1B15624  18.026   1.106  12.447  0.2584  0.2020  0.4410
12107DOPC   D2B15625  18.309   1.081  12.842 -0.1899 -0.0535 -0.0861
12107DOPC   C3B15626  18.596   1.447  12.889 -0.1238 -0.0124 -0.0227
12107DOPC   C4B15627  18.870   1.745  12.627  0.1957 -0.0565  0.0328
12108DOPC   NC315628  10.245   5.799  18.369 -0.0964  0.3048 -0.1096
12108DOPC   PO415629  10.637   5.753  18.468 -0.1161  0.0673  0.0401
12108DOPC   GL115630  10.811   5.428  18.763 -0.0714  0.3246 -0.1583
12108DOPC   GL215631  11.101   5.570  18.712  0.1371 -0.1240  0.3067
12108DOPC   C1A15632  10.729   5.608  19.134 -0.1315  0.0371  0.0091
12108DOPC   D2A15633  10.658   5.617  19.641 -0.0409 -0.1708 -0.1179
12108DOPC   C3A15634  10.778   5.285  19.996 -0.2005 -0.0550 -0.0763
12108DOPC   C4A15635  10.761   5.328  20.508  0.0403 -0.3606 -0.0562
12108DOPC   C1B15636  11.200   5.848  19.021  0.0007 -0.4553 -0.1117
12108DOPC   D2B15637  11.504   6.075  19.356  0.2394  0.0292  0.3108
12108DOPC   C3B15638  11.620   6.307  19.694  0.0083  0.1302  0.0547
12108DOPC   C4B15639  11.869   6.586  20.086  0.1937  0.2908 -0.1763
12109DOPC   NC315640  14.082   4.309  13.821 -0.2956  0.1525  0.2628
12109DOPC   PO415641  14.078   3.997  14.073  0.2066  0.2947 -0.4666
12109DOPC   GL115642  14.333   3.923  14.381 -0.0967 -0.4345 -0.0734
12109DOPC   GL215643  14.553   3.865  14.190 -0.1860 -0.2175 -0.2795
12109DOPC   C1A15644  14.529   4.085  14.781  0.0219  0.0026 -0.0975
12109DOPC   D2A15645  14.693   4.328  15.164 -0.0295 -0.2098 -0.1610
12109DOPC   C3A15646  14.983   4.636  15.387  0.1133  0.1518  0.0470
12109DOPC   C4A15647  15.500   4.704  15.383 -0.1422 -0.0723  0.1076
12109DOPC   C1B15648  14.932   3.876  14.305  0.1372 -0.3112 -0.3086
12109DOPC   D2B15649  15.413   3.825  14.430  0.1949 -0.0211 -0.2200
12109DOPC   C3B15650  15.572   3.955  14.883  0.2433  0.0525  0.0454
12109DOPC   C4B15651  15.596   4.237  15.314 -0.0925 -0.1919  0.0037
12110DOPC   NC315652  13.912   2.581  14.341 -0.0685  0.0398 -0.0943
12110DOPC   PO415653  13.646   2.495  14.606 -0.1229  0.1757  0.1484
12110DOPC   GL115654  13.734   2.220  14.887  0.2480 -0.0071  0.0567
12110DOPC   GL215655  14.020   2.174  14.717 -0.1986 -0.1595  0.4056
12110DOPC   C1A15656  13.722   1.981  15.249 -0.2523  0.0546  0.1763
12110DOPC   D2A15657  13.787   1.755  15.708 -0.2774  0.3225  0.1133
12110DOPC   C3A15658  14.027   1.576  16.064 -0.0912  0.0113 -0.0178
12110DOPC   C4A15659  14.281   1.622  16.505 -0.0003  0.2538 -0.1006
12110DOPC   C1B15660  14.403   1.985  14.614 -0.1098 -0.1573 -0.0750
12110DOPC   D2B15661  14.856   2.040  14.520  0.0741  0.4444  0.1558
12110DOPC   C3B15662  15.283   1.939  14.753 -0.2508  0.1055 -0.2957
12110DOPC   C4B15663  15.361   1.894  15.286 -0.1231 -0.1433  0.0530
12111DOPC   NC315664  15.241   1.183  12.817 -0.2075 -0.3182  0.2292
12111DOPC   PO415665  15.241   0.814  12.688  0.2026  0.1024 -0.1843
12111DOPC   GL115666  15.556   0.565  12.816  0.1132  0.0989  0.0296
12111DOPC   GL215667  15.754   0.504  12.597  0.3789  0.1354  0.1736
12111DOPC   C1A15668  15.761   0.674  13.165 -0.0121 -0.0358 -0.1586
12111DOPC   D2A15669  15.935   0.709  13.660 -0.2056  0.0898  0.1803
12111DOPC   C3A15670  16.089   0.849  14.048  0.3236 -0.0027 -0.2229
12111DOPC   C4A15671  16.269   1.063  14.463  0.0446  0.0095 -0.0956
12111DOPC   C1B15672  16.074   0.369  12.862  0.1729 -0.1436 -0.1929
12111DOPC   D2B15673  16.217   0.519  13.344 -0.0572  0.1039 -0.1605
12111DOPC   C3B15674  16.597   0.485  13.643  0.1086  0.1026  0.0351
12111DOPC   C4B15675  17.038   0.344  13.459  0.0156 -0.0238  0.0553
12112DOPC   NC315676   6.678   5.369  18.450  0.1078  0.1862  0.1780
12112DOPC   PO415677   6.374   5.342  18.183  0.0055 -0.2907 -0.2818
12112DOPC   GL115678   6.179   5.219  18.475  0.0695 -0.1273 -0.0634
12112DOPC   GL215679   6.382   5.122  18.654 -0.2184  0.2320 -0.0806
12112DOPC   C1A15680   6.068   5.513  18.798  0.2836  0.3106 -0.0567
12112DOPC   D2A15681   5.893   5.892  19.028 -0.1698  0.6018  0.3010
12112DOPC   C3A15682   5.833   5.759  19.449 -0.3106  0.2127  0.2244
12112DOPC   C4A15683   5.639   5.486  19.801 -0.2238  0.1169 -0.0048
12112DOPC   C1B15684   6.117   5.108  19.049  0.1811 -0.2105  0.1136
12112DOPC   D2B15685   5.981   4.868  19.462  0.0359 -0.1600  0.0618
12112DOPC   C3B15686   6.178   4.706  19.926  0.2071  0.1294 -0.0887
12112DOPC   C4B15687   6.640   4.676  20.126  0.0125 -0.0077  0.0550
12113DOPC   NC315688  11.650   3.779  17.164 -0.0573 -0.0659 -0.0838
12113DOPC   PO415689  11.608   3.402  17.096 -0.1257  0.0632 -0.1287
12113DOPC   GL115690  11.791   3.089  17.380  0.0208  0.0672 -0.1421
12113DOPC   GL215691  11.649   3.205  17.579  0.0381  0.0719  0.0151
12113DOPC   C1A15692  12.188   3.310  17.389 -0.0771  0.1517 -0.2648
12113DOPC   D2A15693  12.674   3.312  17.405 -0.0236 -0.0782 -0.0272
12113DOPC   C3A15694  13.065   3.556  17.593  0.3121 -0.0684  0.2019
12113DOPC   C4A15695  13.244   3.884  17.968  0.2275  0.0435  0.1217
12113DOPC   C1B15696  11.881   3.390  17.920 -0.0997  0.0224  0.1492
12113DOPC   D2B15697  11.980   3.492  18.413 -0.1950  0.0353  0.1180
12113DOPC   C3B15698  12.435   3.589  18.429 -0.3507  0.0743  0.0765
12113DOPC   C4B15699  12.941   3.496  18.410  0.1819 -0.0524 -0.2881
12114DOPC   NC315700   3.853   1.482  13.737  0.1116  0.1985 -0.0776
12114DOPC   PO415701   3.683   1.817  13.883 -0.2670 -0.0434  0.0805
12114DOPC   GL115702   3.273   1.956  13.985 -0.1393  0.0477 -0.0942
12114DOPC   GL215703   3.120   1.971  13.763  0.0369 -0.1152 -0.0384
12114DOPC   C1A15704   3.068   2.140  14.244  0.2391 -0.0475  0.0591
12114DOPC   D2A15705   2.725   2.146  14.518  0.0000 -0.3500  0.1758
12114DOPC   C3A15706   2.321   2.166  14.571 -0.0988  0.0539 -0.2484
12114DOPC   C4A15707   1.885   1.946  14.564 -0.1845  0.1455 -0.2555
12114DOPC   C1B15708   2.700   2.113  13.830  0.0963  0.1855 -0.0115
12114DOPC   D2B15709   2.474   2.348  13.488 -0.0906  0.1741  0.2177
12114DOPC   C3B15710   2.006   2.194  13.535  0.0330 -0.0423  0.0262
12114DOPC   C4B15711   1.550   2.363  13.611  0.2712 -0.1153  0.1531
12115DOPC   NC315712   0.946   4.821  11.777  0.0428  0.1051 -0.2447
12115DOPC   PO415713   0.716   5.062  11.483 -0.0184 -0.0258 -0.1567
12115DOPC   GL115714   0.399   5.129  11.651  0.2579 -0.0505  0.0539
12115DOPC   GL215715   0.365   4.874  11.778 -0.1543  0.1972 -0.1660
12115DOPC   C1A15716   0.206   5.493  11.805  0.0506  0.0048  0.2268
12115DOPC   D2A15717   0.271   5.883  12.054 -0.0905  0.0774  0.2650
12115DOPC   C3A15718   0.198   6.097  12.480 -0.1966 -0.0344  0.2092
12115DOPC   C4A15719   0.191   6.272  12.973  0.2789 -0.3679  0.0570
12115DOPC   C1B15720   0.081   4.778  12.118  0.1418 -0.0428 -0.0819
12115DOPC   D2B15721  -0.235   4.779  12.459  0.0207  0.1266  0.1726
12115DOPC   C3B15722  -0.685   4.831  12.545  0.3935  0.4924  0.0030
12115DOPC   C4B15723  -0.872   5.037  12.994 -0.2611  0.1668 -0.0955
12116DOPC   NC315724  24.341   5.729  10.411  0.0839 -0.2080 -0.0708
12116DOPC   PO415725  23.951   5.831  10.397  0.0928 -0.0575 -0.1519
12116DOPC   GL115726  23.815   5.907  10.802 -0.0406  0.2064  0.0454
12116DOPC   GL215727  23.522   5.995  10.664 -0.1900 -0.2492 -0.0359
12116DOPC   C1A15728  23.831   5.613  11.074  0.0750  0.1444  0.0619
12116DOPC   D2A15729  23.883   5.559  11.591  0.0599 -0.0232  0.1601
12116DOPC   C3A15730  23.593   5.726  11.895  0.0148  0.0096  0.2174
12116DOPC   C4A15731  23.572   5.651  12.365 -0.0263  0.2813  0.0519
12116DOPC   C1B15732  23.508   6.039  11.146 -0.1936  0.0045 -0.1762
12116DOPC   D2B15733  23.766   6.058  11.562  0.0123 -0.1540 -0.1234
12116DOPC   C3B15734  23.683   6.414  11.888  0.1676  0.2608 -0.1139
12116DOPC   C4B15735  23.608   6.743  12.212  0.2947  0.1042  0.0840
12117DOPC   NC315736  13.731   5.077  14.106  0.0149  0.2791 -0.1836
12117DOPC   PO415737  13.886   4.700  14.072 -0.2006  0.0232  0.0967
12117DOPC   GL115738  14.130   4.443  14.383 -0.2995 -0.0033  0.0563
12117DOPC   GL215739  14.293   4.413  14.205  0.2514 -0.1624 -0.1665
12117DOPC   C1A15740  14.183   4.406  14.811  0.1149  0.1229 -0.1429
12117DOPC   D2A15741  14.186   4.439  15.342  0.0346  0.1139 -0.1170
12117DOPC   C3A15742  14.522   4.489  15.638 -0.1824  0.0505 -0.0913
12117DOPC   C4A15743  14.857   4.723  15.840  0.1421  0.2736 -0.0292
12117DOPC   C1B15744  14.686   4.306  14.330 -0.0848 -0.2029 -0.0189
12117DOPC   D2B15745  15.028   4.236  14.628  0.1437  0.1114  0.3094
12117DOPC   C3B15746  15.143   4.222  15.038  0.2853 -0.4718 -0.0829
12117DOPC   C4B15747  15.114   4.164  15.512  0.2424  0.0845 -0.1374
12118DOPC   NC315748   8.133   1.296  18.048  0.1356 -0.1121  0.2781
12118DOPC   PO415749   8.348   1.481  18.355  0.1346 -0.1504 -0.0906
12118DOPC   GL115750   8.520   1.299  18.707  0.0113 -0.5412 -0.2195
12118DOPC   GL215751   8.226   1.452  18.809 -0.2733 -0.0555 -0.6330
12118DOPC   C1A15752   8.763   1.435  18.970  0.1064 -0.1924 -0.1539
12118DOPC   D2A15753   8.938   1.711  19.291  0.1511 -0.0715  0.1668
12118DOPC   C3A15754   9.067   1.568  19.772  0.2997 -0.1044 -0.0890
12118DOPC   C4A15755   9.137   1.497  20.252  0.0154 -0.1118 -0.0933
12118DOPC   C1B15756   7.928   1.489  19.111  0.1074 -0.1491  0.3471
12118DOPC   D2B15757   7.657   1.239  19.433  0.1721 -0.1763 -0.1255
12118DOPC   C3B15758   7.526   0.905  19.745  0.0739 -0.2503  0.2845
12118DOPC   C4B15759   7.389   0.704  20.134  0.1108  0.0709 -0.1147
12119DOPC   NC315760   6.324   6.612  18.053  0.0214 -0.0212  0.1139
12119DOPC   PO415761   6.455   6.995  18.090  0.0632 -0.2225 -0.5607
12119DOPC   GL115762   6.333   7.302  18.361  0.2561 -0.0280  0.2743
12119DOPC   GL215763   6.507   7.211  18.592 -0.0343 -0.0149  0.1394
12119DOPC   C1A15764   5.950   7.367  18.617  0.0091  0.0573 -0.2698
12119DOPC   D2A15765   5.496   7.578  18.824  0.2332  0.1964 -0.1994
12119DOPC   C3A15766   5.109   7.386  19.043 -0.0883  0.0212  0.0116
12119DOPC   C4A15767   4.901   6.976  19.208  0.0551  0.0489 -0.0193
12119DOPC   C1B15768   6.767   7.321  18.881  0.0966 -0.0723 -0.0322
12119DOPC   D2B15769   6.977   7.747  19.086  0.2584  0.0597 -0.1194
12119DOPC   C3B15770   7.020   7.970  19.458  0.1501 -0.0670 -0.0327
12119DOPC   C4B15771   6.996   8.211  19.850  0.1818 -0.3141  0.1928
12120DOPC   NC315772   1.995   6.032  12.570 -0.2293 -0.3503  0.1920
12120DOPC   PO415773   2.056   6.181  12.969 -0.2565  0.1727  0.2284
12120DOPC   GL115774   1.805   6.104  13.260 -0.0125 -0.0455  0.0472
12120DOPC   GL215775   1.555   6.309  13.249 -0.1562 -0.3066 -0.0471
12120DOPC   C1A15776   1.459   5.798  13.246  0.1580 -0.1753  0.0491
12120DOPC   D2A15777   1.022   5.557  13.192 -0.0853 -0.0616 -0.1380
12120DOPC   C3A15778   0.871   5.313  13.577 -0.1889 -0.0116  0.1162
12120DOPC   C4A15779   0.611   5.179  13.951  0.5101 -0.2603 -0.3176
12120DOPC   C1B15780   1.431   6.170  13.623  0.0791  0.2084  0.2858
12120DOPC   D2B15781   1.297   5.914  13.976 -0.0130  0.2031  0.0649
12120DOPC   C3B15782   1.004   5.950  14.315  0.2165  0.1849 -0.1591
12120DOPC   C4B15783   0.601   5.911  14.646  0.1504  0.1289  0.0148
12121DOPC   NC315784   0.467   3.882  10.733  0.0967 -0.1157  0.1468
12121DOPC   PO415785   0.306   3.745  11.046  0.0069  0.0757  0.2880
12121DOPC   GL115786   0.149   4.060  11.338 -0.1975  0.2364  0.1198
12121DOPC   GL215787   0.357   4.157  11.488 -0.0346 -0.0605  0.0685
12121DOPC   C1A15788  -0.229   4.041  11.483  0.0707  0.2496  0.0594
12121DOPC   D2A15789  -0.555   3.984  11.774  0.0050 -0.0587 -0.0726
12121DOPC   C3A15790  -0.886   4.127  12.043 -0.1024 -0.0271 -0.1305
12121DOPC   C4A15791  -1.304   4.189  12.335 -0.1806 -0.1452  0.1674
12121DOPC   C1B15792   0.193   4.345  11.865 -0.1936  0.1083 -0.1858
12121DOPC   D2B15793   0.118   4.289  12.345 -0.0896  0.0156  0.2316
12121DOPC   C3B15794  -0.173   4.271  12.645  0.2216  0.2500  0.1077
12121DOPC   C4B15795  -0.513   4.334  13.034  0.0555  0.1778 -0.0683
12122DOPC   NC315796  12.126   0.192  16.850 -0.3473  0.0467  0.0852
12122DOPC   PO415797  12.372   0.102  16.551 -0.2368  0.1451  0.2257
12122DOPC   GL115798  12.673  -0.193  16.723 -0.0059 -0.1809 -0.0365
12122DOPC   GL215799  12.544  -0.117  17.044 -0.5673 -0.0226  0.1450
12122DOPC   C1A15800  12.948  -0.496  16.586 -0.0648 -0.1981 -0.1036
12122DOPC   D2A15801  13.229  -0.754  16.238 -0.0647  0.1379 -0.1688
12122DOPC   C3A15802  13.685  -0.801  16.378  0.0499 -0.0801  0.1091
12122DOPC   C4A15803  14.091  -0.809  16.634  0.0371 -0.0658 -0.1647
12122DOPC   C1B15804  12.896  -0.380  17.180  0.0957 -0.0288 -0.2132
12122DOPC   D2B15805  13.330  -0.632  17.194  0.1686 -0.1153 -0.2353
12122DOPC   C3B15806  13.767  -0.789  17.295  0.0657  0.0386  0.1822
12122DOPC   C4B15807  14.265  -0.838  17.353 -0.0865  0.4913 -0.0481
12123DOPC   NC315808  21.127   6.767   9.810  0.1979 -0.2015 -0.0143
12123DOPC   PO415809  20.918   6.456  10.008  0.0039  0.1934 -0.0790
12123DOPC   GL115810  20.825   6.361  10.476  0.0180  0.1448  0.1463
12123DOPC   GL215811  21.133   6.435  10.445 -0.0176 -0.2733 -0.0920
12123DOPC   C1A15812  20.853   6.533  10.845 -0.2645  0.0275 -0.1034
12123DOPC   D2A15813  21.140   6.766  11.169 -0.2730  0.1067 -0.0642
12123DOPC   C3A15814  20.942   6.741  11.598  0.0250 -0.1924  0.1847
12123DOPC   C4A15815  20.668   6.640  11.991  0.2668  0.0032 -0.0021
12123DOPC   C1B15816  21.371   6.446  10.819  0.0377  0.1613 -0.2454
12123DOPC   D2B15817  21.640   6.250  11.164  0.1732  0.1324  0.1361
12123DOPC   C3B15818  21.522   5.907  11.596  0.1846  0.0012 -0.2186
12123DOPC   C4B15819  21.368   6.063  12.038 -0.0542 -0.1468 -0.3083
12124DOPC   NC315820  12.649   5.447  15.652 -0.1626  0.2118  0.2195
12124DOPC   PO415821  12.806   5.810  15.668  0.1114 -0.3134 -0.2704
12124DOPC   GL115822  13.093   5.783  15.974 -0.1380 -0.1750  0.2018
12124DOPC   GL215823  12.980   5.923  16.147  0.0254  0.0169  0.0290
12124DOPC   C1A15824  13.521   5.586  16.032 -0.0723 -0.0819 -0.0581
12124DOPC   D2A15825  13.917   5.444  16.202  0.1372  0.0182  0.1288
12124DOPC   C3A15826  14.404   5.476  16.111 -0.3870 -0.0301  0.1176
12124DOPC   C4A15827  14.808   5.685  16.264  0.1470  0.1044 -0.1637
12124DOPC   C1B15828  13.260   5.774  16.470 -0.0259 -0.1838 -0.1533
12124DOPC   D2B15829  13.680   5.563  16.621 -0.1067 -0.0704  0.1042
12124DOPC   C3B15830  13.872   5.137  16.658 -0.1199  0.1816 -0.1773
12124DOPC   C4B15831  13.938   4.657  16.603 -0.2162  0.1728  0.1575
12125DOPC   NC315832   2.837   1.192  13.619  0.2680  0.1876 -0.0911
12125DOPC   PO415833   2.914   0.844  13.445  0.4240 -0.1782  0.0591
12125DOPC   GL115834   2.973   0.559  13.725 -0.1333 -0.1545  0.3516
12125DOPC   GL215835   2.713   0.436  13.803 -0.2421 -0.0202  0.1540
12125DOPC   C1A15836   3.162   0.492  14.162  0.3123 -0.3474  0.0584
12125DOPC   D2A15837   3.001   0.779  14.595 -0.3484  0.1727  0.0029
12125DOPC   C3A15838   2.603   0.919  14.631  0.0729  0.1325 -0.2300
12125DOPC   C4A15839   2.158   1.014  14.776 -0.1733  0.2570  0.1838
12125DOPC   C1B15840   2.290   0.580  13.843  0.1016  0.0718  0.1772
12125DOPC   D2B15841   1.902   0.899  13.887 -0.2103  0.1860 -0.0176
12125DOPC   C3B15842   1.606   0.939  14.265  0.1217  0.0391 -0.0306
12125DOPC   C4B15843   1.726   0.878  14.734  0.2951 -0.1977 -0.1430
12126DOPC   NC315844  11.826   7.566  16.941  0.0376  0.1385 -0.1061
12126DOPC   PO415845  12.182   7.523  16.851  0.1311 -0.2106  0.1660
12126DOPC   GL115846  12.443   7.283  17.051  0.0799 -0.2791 -0.2172
12126DOPC   GL215847  12.579   7.231  16.910  0.1061 -0.2133  0.2229
12126DOPC   C1A15848  12.616   7.147  17.470  0.0050  0.2648  0.2485
12126DOPC   D2A15849  12.992   7.063  17.699  0.0478 -0.0614  0.0073
12126DOPC   C3A15850  13.449   7.079  17.696  0.2851  0.1985  0.1868
12126DOPC   C4A15851  13.793   6.969  17.980 -0.2606  0.1989 -0.2118
12126DOPC   C1B15852  12.899   6.944  17.053 -0.1590  0.3170  0.1120
12126DOPC   D2B15853  13.237   6.771  17.370  0.4217  0.1321  0.0169
12126DOPC   C3B15854  13.624   6.629  17.619  0.1178  0.1623 -0.0559
12126DOPC   C4B15855  13.816   6.295  17.884 -0.0629 -0.0514  0.0199
12127DOPC   NC315856  22.838   6.909   9.998  0.4411  0.0672  0.1637
12127DOPC   PO415857  22.647   7.047  10.381 -0.0355  0.0372  0.1132
12127DOPC   GL115858  22.331   6.869  10.569  0.0973 -0.0562 -0.2146
12127DOPC   GL215859  22.272   6.584  10.502 -0.0698  0.0756 -0.5793
12127DOPC   C1A15860  22.223   6.864  10.949  0.2612 -0.1399 -0.1872
12127DOPC   D2A15861  22.205   6.636  11.421  0.3553 -0.0372  0.1662
12127DOPC   C3A15862  22.096   6.575  11.802 -0.1854 -0.1657 -0.0475
12127DOPC   C4A15863  22.170   6.383  12.312 -0.1009 -0.0546  0.0276
12127DOPC   C1B15864  22.399   6.412  10.904  0.1595  0.2053 -0.1493
12127DOPC   D2B15865  22.550   6.245  11.326  0.0466  0.0012  0.3265
12127DOPC   C3B15866  22.418   6.139  11.743 -0.2044  0.0110 -0.1031
12127DOPC   C4B15867  22.240   5.907  12.100 -0.0584  0.0334  0.0558
12128DOPC   NC315868  18.489   7.470  10.312  0.0300 -0.1642  0.0307
12128DOPC   PO415869  18.736   7.591  10.590 -0.4251  0.0384 -0.1169
12128DOPC   GL115870  18.744   7.709  10.986  0.0685 -0.2137  0.0082
12128DOPC   GL215871  18.705   7.459  11.119  0.1202 -0.0159 -0.0178
12128DOPC   C1A15872  19.002   7.954  11.255  0.3136  0.1865  0.2272
12128DOPC   D2A15873  19.417   8.199  11.402 -0.0082 -0.0928 -0.0490
12128DOPC   C3A15874  19.394   8.117  11.833  0.2542  0.2178  0.0076
12128DOPC   C4A15875  19.447   8.047  12.313  0.1623  0.0396  0.0505
12128DOPC   C1B15876  19.094   7.340  11.323  0.0960  0.0223  0.2976
12128DOPC   D2B15877  19.517   7.296  11.591 -0.0819 -0.1080  0.1208
12128DOPC   C3B15878  19.713   7.179  12.005 -0.0314  0.1813 -0.0231
12128DOPC   C4B15879  19.946   6.989  12.434  0.2482 -0.1239 -0.1148
12129DOPC   NC315880  23.342   6.448  10.621 -0.2001  0.0553 -0.0285
12129DOPC   PO415881  23.221   6.201  10.379  0.1132  0.0500 -0.0770
12129DOPC   GL115882  23.192   5.758  10.523 -0.2059 -0.0928 -0.1252
12129DOPC   GL215883  22.949   5.945  10.625  0.3172  0.1430  0.2798
12129DOPC   C1A15884  23.257   5.580  10.957  0.0073  0.3556  0.0221
12129DOPC   D2A15885  23.404   5.539  11.391  0.1290 -0.4841 -0.2762
12129DOPC   C3A15886  23.153   5.397  11.768 -0.1709  0.0876 -0.0699
12129DOPC   C4A15887  23.116   5.005  12.042  0.0807 -0.3170  0.1742
12129DOPC   C1B15888  22.563   5.978  10.774  0.1257 -0.0180 -0.0300
12129DOPC   D2B15889  22.093   6.016  10.976 -0.0463  0.0158 -0.0569
12129DOPC   C3B15890  22.031   6.188  11.408 -0.2611  0.0110  0.0097
12129DOPC   C4B15891  21.880   6.173  11.865 -0.0706  0.3307 -0.0956
12130DOPC   NC315892   9.696   6.681  19.311  0.2460  0.0611  0.0463
12130DOPC   PO415893   9.420   6.837  19.100 -0.0293 -0.0665 -0.1038
12130DOPC   GL115894   9.386   7.122  19.414 -0.1048  0.0008 -0.2597
12130DOPC   GL215895   9.682   7.092  19.483  0.2711  0.1101 -0.3441
12130DOPC   C1A15896   9.136   7.058  19.807 -0.1789 -0.0997 -0.0109
12130DOPC   D2A15897   8.855   7.015  20.248 -0.2047 -0.0847  0.2035
12130DOPC   C3A15898   8.651   7.395  20.412 -0.3810  0.1229  0.2255
12130DOPC   C4A15899   8.511   7.831  20.568 -0.3251 -0.0148 -0.2255
12130DOPC   C1B15900   9.564   7.236  19.858  0.1170 -0.0854 -0.0271
12130DOPC   D2B15901   9.675   7.369  20.310  0.2146  0.3254 -0.0259
12130DOPC   C3B15902   9.829   7.025  20.584 -0.0618 -0.0731  0.3362
12130DOPC   C4B15903  10.021   6.591  20.776 -0.1057  0.0069  0.2640
12131DOPC   NC315904  11.543   5.195  17.162  0.1088  0.1623 -0.0756
12131DOPC   PO415905  11.705   5.572  17.179 -0.1334  0.3386  0.2403
12131DOPC   GL115906  11.872   5.620  17.488  0.1760 -0.0673  0.1159
12131DOPC   GL215907  11.734   5.624  17.706 -0.0358 -0.0915 -0.0986
12131DOPC   C1A15908  12.281   5.786  17.389  0.0434  0.0620  0.1159
12131DOPC   D2A15909  12.531   6.152  17.642 -0.1236  0.3266  0.0394
12131DOPC   C3A15910  12.892   6.000  17.941 -0.0981 -0.3876 -0.1903
12131DOPC   C4A15911  13.167   5.771  18.248  0.1347 -0.1874 -0.1500
12131DOPC   C1B15912  11.966   5.429  18.016 -0.2192  0.2921  0.0220
12131DOPC   D2B15913  12.326   5.234  18.329  0.0174  0.1036 -0.1536
12131DOPC   C3B15914  12.587   4.892  18.386 -0.4284  0.1280 -0.1511
12131DOPC   C4B15915  12.813   4.447  18.456  0.0800  0.0545  0.1586
12132DOPC   NC315916   5.603   2.927  17.751 -0.2064 -0.1388  0.1707
12132DOPC   PO415917   5.681   2.619  17.504  0.1032  0.0062  0.1140
12132DOPC   GL115918   5.430   2.273  17.563  0.1387 -0.1818 -0.3413
12132DOPC   GL215919   5.241   2.278  17.413  0.1811 -0.0223 -0.0582
12132DOPC   C1A15920   5.475   1.995  17.889 -0.0487 -0.2651  0.3710
12132DOPC   D2A15921   5.256   1.518  18.022  0.0971 -0.1096  0.1896
12132DOPC   C3A15922   4.897   1.400  18.276  0.0895  0.1556 -0.0838
12132DOPC   C4A15923   4.640   1.463  18.689  0.1942  0.1307 -0.3727
12132DOPC   C1B15924   4.828   2.195  17.557  0.2784  0.0923  0.1193
12132DOPC   D2B15925   4.375   1.970  17.706 -0.2261  0.0003  0.0534
12132DOPC   C3B15926   4.134   1.946  18.116 -0.1725 -0.0990  0.0159
12132DOPC   C4B15927   3.700   1.861  18.000 -0.3543 -0.1437 -0.0263
12133DOPC   NC315928   4.464   0.202  15.144 -0.1542  0.3958  0.0321
12133DOPC   PO415929   4.335   0.159  15.509 -0.1828  0.1992 -0.3567
12133DOPC   GL115930   4.106   0.313  15.831 -0.0184  0.0216 -0.0395
12133DOPC   GL215931   3.923   0.417  15.683  0.2823  0.0447  0.2953
12133DOPC   C1A15932   3.996   0.062  16.197 -0.1698 -0.1400  0.3389
12133DOPC   D2A15933   3.858  -0.035  16.639  0.0074  0.0880 -0.1128
12133DOPC   C3A15934   3.736   0.321  16.968  0.1321 -0.0702  0.0138
12133DOPC   C4A15935   3.662   0.650  17.295 -0.0524  0.0141 -0.3156
12133DOPC   C1B15936   3.703   0.786  15.813  0.3143  0.1045 -0.3806
12133DOPC   D2B15937   3.407   1.145  15.929 -0.0506 -0.0381  0.2490
12133DOPC   C3B15938   3.064   1.278  15.616 -0.1496  0.0715  0.2052
12133DOPC   C4B15939   2.677   1.472  15.503 -0.2277  0.1280 -0.0627
12134DOPC   NC315940  12.191   1.911  16.550 -0.0300 -0.0450 -0.3764
12134DOPC   PO415941  12.307   1.937  16.919 -0.0897  0.1931 -0.2277
12134DOPC   GL115942  12.656   1.885  17.198 -0.0482 -0.0650  0.1581
12134DOPC   GL215943  12.729   2.203  17.118  0.1791  0.1664 -0.0609
12134DOPC   C1A15944  12.694   1.837  17.627  0.0920 -0.0582  0.1937
12134DOPC   D2A15945  12.656   1.727  18.108 -0.1853 -0.0581  0.3064
12134DOPC   C3A15946  12.878   1.633  18.460 -0.1652 -0.0030 -0.2452
12134DOPC   C4A15947  13.196   1.670  18.877  0.1371 -0.0181  0.1065
12134DOPC   C1B15948  12.670   2.366  17.527 -0.1138 -0.2492 -0.1364
12134DOPC   D2B15949  12.575   2.298  17.954  0.0215  0.1697 -0.1319
12134DOPC   C3B15950  12.856   2.128  18.341 -0.1220  0.2880 -0.0381
12134DOPC   C4B15951  12.892   2.115  18.795 -0.1851  0.0350 -0.0504
12135DOPC   NC315952  20.012   5.287  10.295  0.0977  0.1864 -0.3480
12135DOPC   PO415953  20.371   5.249  10.146 -0.0651 -0.0828  0.2331
12135DOPC   GL115954  20.674   5.213  10.551 -0.3711  0.1832  0.0189
12135DOPC   GL215955  20.396   5.126  10.660  0.1304 -0.1970  0.3898
12135DOPC   C1A15956  20.915   5.534  10.763 -0.1453 -0.2969 -0.1528
12135DOPC   D2A15957  21.271   5.678  11.153  0.3456 -0.1868 -0.1181
12135DOPC   C3A15958  21.028   5.778  11.592  0.0899  0.0023  0.1820
12135DOPC   C4A15959  20.922   5.767  12.076 -0.0327 -0.1620  0.2326
12135DOPC   C1B15960  20.470   5.088  11.058  0.0251  0.3806  0.0990
12135DOPC   D2B15961  20.472   5.043  11.544 -0.0191  0.0240  0.1482
12135DOPC   C3B15962  20.116   5.227  11.809 -0.3683  0.0534 -0.1673
12135DOPC   C4B15963  20.015   5.756  11.842  0.0300  0.1915  0.0422
12136DOPC   NC315964  10.572   7.631  18.166 -0.0781 -0.0490  0.0270
12136DOPC   PO415965  10.324   7.944  18.238 -0.2227  0.0378 -0.1007
12136DOPC   GL115966  10.386   8.131  18.597  0.1241 -0.2079 -0.3502
12136DOPC   GL215967  10.704   8.180  18.515 -0.2138  0.0625  0.1239
12136DOPC   C1A15968  10.226   8.117  18.996 -0.2705  0.1864 -0.0791
12136DOPC   D2A15969  10.029   7.944  19.490 -0.1188 -0.0865  0.2079
12136DOPC   C3A15970   9.913   8.163  19.864 -0.2042  0.2678  0.1500
12136DOPC   C4A15971   9.544   8.266  20.137 -0.1554 -0.1336 -0.0558
12136DOPC   C1B15972  10.996   8.373  18.720  0.2158 -0.1335  0.1614
12136DOPC   D2B15973  11.240   8.665  19.004  0.0171  0.1943 -0.2957
12136DOPC   C3B15974  11.325   8.834  19.478  0.0708 -0.2028 -0.2294
12136DOPC   C4B15975  11.223   8.845  19.930  0.0109 -0.2017  0.0205
12137DOPC   NC315976  16.363   5.849  11.214  0.2110 -0.1945  0.0907
12137DOPC   PO415977  16.228   5.726  11.541  0.1390 -0.1454 -0.2330
12137DOPC   GL115978  16.414   5.615  11.954 -0.0419  0.2554 -0.2636
12137DOPC   GL215979  16.247   5.795  12.021 -0.1636 -0.0233  0.2318
12137DOPC   C1A15980  16.748   5.559  12.145  0.1698 -0.3144 -0.4738
12137DOPC   D2A15981  17.151   5.542  12.512  0.1720 -0.1519  0.0535
12137DOPC   C3A15982  17.517   5.534  12.719 -0.1933  0.1784 -0.0306
12137DOPC   C4A15983  17.938   5.501  12.947 -0.0532  0.0053  0.1779
12137DOPC   C1B15984  16.408   5.894  12.432 -0.0395 -0.2518 -0.2689
12137DOPC   D2B15985  16.377   6.077  12.903 -0.1097 -0.0296  0.0584
12137DOPC   C3B15986  16.719   5.734  13.091  0.3171 -0.0100 -0.3174
12137DOPC   C4B15987  16.938   5.335  13.202  0.0492 -0.1115  0.0132
12138DOPC   NC315988  22.347   3.267  10.390  0.2551 -0.0226  0.0742
12138DOPC   PO415989  22.076   2.953  10.364 -0.0468 -0.0128 -0.0914
12138DOPC   GL115990  21.945   2.798  10.708  0.7056 -0.1426  0.4413
12138DOPC   GL215991  22.228   2.773  10.791  0.2473 -0.1160 -0.1591
12138DOPC   C1A15992  21.914   2.792  11.174  0.1441 -0.0158 -0.0830
12138DOPC   D2A15993  22.083   2.728  11.625  0.1128  0.3239 -0.4020
12138DOPC   C3A15994  21.908   2.711  11.995  0.2383  0.0694 -0.1403
12138DOPC   C4A15995  21.749   3.117  12.242  0.1389 -0.0198  0.2041
12138DOPC   C1B15996  22.446   2.730  11.147 -0.0564 -0.2527  0.2911
12138DOPC   D2B15997  22.572   2.814  11.607  0.0579 -0.2192  0.0876
12138DOPC   C3B15998  22.437   2.842  12.032  0.1036 -0.1850  0.0802
12138DOPC   C4B15999  22.336   3.244  12.285 -0.1325 -0.1597 -0.4360
12139DOPC   NC316000   1.805   4.678  12.148  0.1721 -0.3156  0.0965
12139DOPC   PO416001   1.602   4.982  12.278 -0.2161 -0.0598 -0.1600
12139DOPC   GL116002   1.542   5.100  12.730 -0.1235 -0.1388  0.0502
12139DOPC   GL216003   1.662   5.306  12.777 -0.0610 -0.0699 -0.2938
12139DOPC   C1A16004   1.102   5.080  12.957 -0.0509 -0.3375 -0.2416
12139DOPC   D2A16005   0.649   5.056  13.206  0.0793  0.4089 -0.0352
12139DOPC   C3A16006   0.368   5.447  13.120 -0.0610  0.2837 -0.0561
12139DOPC   C4A16007   0.086   5.786  12.923 -0.0881 -0.1153  0.2193
12139DOPC   C1B16008   1.369   5.556  12.856 -0.1926  0.1792  0.0705
12139DOPC   D2B16009   1.027   5.878  12.787 -0.0090 -0.1957 -0.1161
12139DOPC   C3B16010   0.583   5.794  12.820  0.0577  0.1000 -0.2602
12139DOPC   C4B16011   0.298   5.546  12.510 -0.0375 -0.2583  0.1575
12140DOPC   NC316012  12.810   6.252  15.220 -0.1703 -0.0388  0.0961
12140DOPC   PO416013  13.211   6.239  15.110  0.0139 -0.2346  0.2820
12140DOPC   GL116014  13.422   6.434  15.371 -0.2128  0.0824 -0.0757
12140DOPC   GL216015  13.529   6.196  15.505 -0.0799  0.0654 -0.2642
12140DOPC   C1A16016  13.735   6.538  15.683  0.2598 -0.1480 -0.1375
12140DOPC   D2A16017  13.851   7.065  15.786 -0.1263  0.0085 -0.2099
12140DOPC   C3A16018  14.120   7.046  16.133 -0.4147 -0.4387 -0.2486
12140DOPC   C4A16019  14.584   7.227  16.322  0.0856  0.1325 -0.0678
12140DOPC   C1B16020  13.494   6.094  15.921 -0.1272  0.0949  0.0276
12140DOPC   D2B16021  13.716   5.921  16.322 -0.1423 -0.1885  0.0787
12140DOPC   C3B16022  14.120   5.847  16.434 -0.0970 -0.1040  0.2375
12140DOPC   C4B16023  14.534   6.165  16.504  0.1344  0.0314  0.0623
12141DOPC   NC316024  20.497   4.364   9.933 -0.3983 -0.1186  0.0615
12141DOPC   PO416025  20.742   4.166  10.160 -0.1603  0.2982 -0.3301
12141DOPC   GL116026  20.992   4.283  10.480 -0.0912  0.3648 -0.2949
12141DOPC   GL216027  20.727   4.204  10.684  0.0238 -0.2101  0.1063
12141DOPC   C1A16028  21.361   4.297  10.588  0.0675 -0.0219  0.2449
12141DOPC   D2A16029  21.754   4.466  10.919 -0.0480  0.2253 -0.0589
12141DOPC   C3A16030  21.865   4.513  11.384  0.2133  0.0020 -0.0572
12141DOPC   C4A16031  21.566   4.543  11.794  0.2098 -0.1434 -0.2120
12141DOPC   C1B16032  20.827   4.109  11.081 -0.1443 -0.1931 -0.0784
12141DOPC   D2B16033  20.762   4.329  11.523 -0.1839 -0.0989  0.0127
12141DOPC   C3B16034  20.965   4.300  11.961 -0.1109 -0.1778  0.1994
12141DOPC   C4B16035  21.411   4.359  12.285 -0.1983  0.2416  0.0880
12142DOPC   NC316036  14.557   7.456  13.775 -0.0717  0.0934  0.0792
12142DOPC   PO416037  14.834   7.229  13.650  0.0636  0.0622  0.1172
12142DOPC   GL116038  15.099   7.480  13.799  0.2515  0.0059  0.3907
12142DOPC   GL216039  15.316   7.292  13.668  0.1817 -0.0755 -0.1664
12142DOPC   C1A16040  15.294   7.727  14.123  0.0460 -0.0499  0.0365
12142DOPC   D2A16041  15.570   7.838  14.533 -0.1423  0.0148  0.1873
12142DOPC   C3A16042  15.959   8.057  14.771 -0.0875  0.0801 -0.1538
12142DOPC   C4A16043  16.338   8.236  14.982 -0.2167  0.1542  0.0229
12142DOPC   C1B16044  15.692   7.080  13.762 -0.3460 -0.0754 -0.0229
12142DOPC   D2B16045  15.992   6.873  14.060 -0.0645 -0.0028 -0.1316
12142DOPC   C3B16046  16.201   6.556  13.727  0.2017  0.0862  0.0792
12142DOPC   C4B16047  16.314   6.460  13.285 -0.0053 -0.1971 -0.1360
12143DOPC   NC316048  14.120   6.375  13.386 -0.1606 -0.0225  0.0916
12143DOPC   PO416049  14.482   6.336  13.598  0.2082 -0.0141 -0.0635
12143DOPC   GL116050  14.640   6.495  13.948  0.2242  0.1315 -0.0585
12143DOPC   GL216051  14.620   6.220  14.136 -0.0839 -0.1700 -0.0420
12143DOPC   C1A16052  15.080   6.402  13.943  0.3564  0.3687 -0.0519
12143DOPC   D2A16053  15.454   6.205  14.196 -0.2820  0.1447 -0.0567
12143DOPC   C3A16054  15.380   6.032  14.589 -0.2112  0.0907  0.0017
12143DOPC   C4A16055  15.326   5.669  14.950  0.0554 -0.3124  0.1847
12143DOPC   C1B16056  14.958   6.298  14.448 -0.2557  0.1582 -0.0432
12143DOPC   D2B16057  15.316   6.588  14.716 -0.3408  0.0328  0.0438
12143DOPC   C3B16058  15.633   6.724  15.024  0.1190 -0.0827  0.0279
12143DOPC   C4B16059  15.622   7.015  15.436  0.0520  0.0982 -0.0516
12144DOPC   NC316060  23.167   3.367  10.296 -0.0364 -0.0153 -0.1953
12144DOPC   PO416061  23.340   3.119  10.507 -0.1126  0.2200  0.0661
12144DOPC   GL116062  23.205   3.130  10.895  0.2622 -0.1042 -0.0268
12144DOPC   GL216063  23.417   3.226  11.012 -0.0389  0.1149  0.0137
12144DOPC   C1A16064  22.833   3.112  11.143  0.0700  0.0057 -0.0771
12144DOPC   D2A16065  22.652   3.330  11.541  0.1263  0.1461  0.0210
12144DOPC   C3A16066  22.723   3.417  11.973 -0.0916 -0.0161 -0.3093
12144DOPC   C4A16067  22.808   3.178  12.359  0.1894  0.0020 -0.1838
12144DOPC   C1B16068  23.301   2.997  11.356  0.0914 -0.1493  0.0574
12144DOPC   D2B16069  23.076   2.739  11.735  0.2070 -0.2258  0.1698
12144DOPC   C3B16070  22.953   2.766  12.176  0.0292 -0.0028 -0.2137
12144DOPC   C4B16071  23.037   2.785  12.621 -0.0514  0.1191 -0.0978
12145DOPC   NC316072  10.947   6.345  18.009 -0.3778 -0.0291  0.0935
12145DOPC   PO416073  11.289   6.167  17.882 -0.0031 -0.0945  0.0089
12145DOPC   GL116074  11.525   5.910  17.959  0.2329  0.0236  0.3221
12145DOPC   GL216075  11.743   6.034  17.776 -0.1241  0.0847 -0.3418
12145DOPC   C1A16076  11.806   5.843  18.287  0.2193 -0.1450 -0.1389
12145DOPC   D2A16077  12.093   5.706  18.717  0.0262 -0.0865  0.0836
12145DOPC   C3A16078  12.433   5.582  18.966  0.2040 -0.0091 -0.4135
12145DOPC   C4A16079  12.797   5.233  18.903 -0.2624  0.0505 -0.1219
12145DOPC   C1B16080  12.135   5.891  17.875  0.1722 -0.0236 -0.1425
12145DOPC   D2B16081  12.357   5.741  18.284  0.0418  0.4497  0.1932
12145DOPC   C3B16082  12.704   5.633  18.594  0.1320  0.0672 -0.0460
12145DOPC   C4B16083  13.162   5.808  18.793  0.2791  0.4595 -0.2222
12146DOPC   NC316084   2.150   3.758  12.523  0.3734 -0.0097 -0.0283
12146DOPC   PO416085   1.873   3.497  12.367  0.2658  0.2523  0.1458
12146DOPC   GL116086   1.790   3.291  12.646  0.0302  0.2935 -0.0332
12146DOPC   GL216087   2.015   3.404  12.795 -0.1223 -0.1235  0.1643
12146DOPC   C1A16088   1.458   2.992  12.660 -0.1315 -0.1098  0.1837
12146DOPC   D2A16089   1.431   2.475  12.766 -0.1811 -0.2157 -0.0312
12146DOPC   C3A16090   1.288   2.109  13.034 -0.0033 -0.0215 -0.0347
12146DOPC   C4A16091   1.060   1.762  13.343  0.2050 -0.1649 -0.1185
12146DOPC   C1B16092   1.879   3.735  13.085 -0.1168  0.0172 -0.1224
12146DOPC   D2B16093   1.838   3.930  13.532  0.1372  0.2126 -0.0545
12146DOPC   C3B16094   1.359   3.774  13.736  0.2584 -0.1892 -0.0505
12146DOPC   C4B16095   0.872   3.864  13.681  0.1073  0.1427  0.1111
12147DOPC   NC316096  15.499   6.679  12.759  0.0815  0.2100  0.0853
12147DOPC   PO416097  15.729   6.597  12.461  0.1256  0.0808 -0.0145
12147DOPC   GL116098  16.043   6.549  12.652 -0.0305 -0.1548  0.0043
12147DOPC   GL216099  16.229   6.388  12.462 -0.4568  0.1733 -0.0688
12147DOPC   C1A16100  16.356   6.763  12.874  0.3553 -0.0675 -0.0178
12147DOPC   D2A16101  16.627   6.842  13.224  0.0645 -0.0314 -0.0917
12147DOPC   C3A16102  16.744   6.583  13.561  0.2625  0.1699  0.2052
12147DOPC   C4A16103  16.809   6.247  13.924 -0.1003 -0.2017 -0.0037
12147DOPC   C1B16104  16.615   6.369  12.619  0.0984  0.1138  0.0261
12147DOPC   D2B16105  17.010   6.026  12.610 -0.2039  0.3061  0.0699
12147DOPC   C3B16106  17.173   5.909  13.001  0.0069  0.1208  0.1146
12147DOPC   C4B16107  17.356   5.615  13.344  0.4812  0.4808  0.1758
12148DOPC   NC316108  18.547   5.530  10.464 -0.0647 -0.0713  0.2137
12148DOPC   PO416109  18.802   5.784  10.206 -0.1987  0.0224  0.2368
12148DOPC   GL116110  18.957   5.986  10.533  0.0326 -0.0483 -0.1657
12148DOPC   GL216111  18.739   5.960  10.747  0.0431 -0.1082 -0.2182
12148DOPC   C1A16112  19.359   6.171  10.602  0.1362 -0.0057 -0.0958
12148DOPC   D2A16113  19.820   6.256  10.879  0.1868 -0.1827 -0.2686
12148DOPC   C3A16114  20.003   5.880  11.075 -0.0406 -0.1726  0.0400
12148DOPC   C4A16115  20.195   5.548  11.441  0.0217  0.1105  0.0264
12148DOPC   C1B16116  18.704   5.805  11.121 -0.0343  0.2413 -0.4374
12148DOPC   D2B16117  18.718   5.826  11.643  0.0217  0.0783 -0.1371
12148DOPC   C3B16118  19.081   5.868  12.021  0.3570 -0.1915 -0.3572
12148DOPC   C4B16119  19.431   5.890  12.319  0.0904  0.1809  0.0121
12149DOPC   NC316120  11.010   4.714  18.168 -0.2678 -0.0632 -0.0171
12149DOPC   PO416121  11.178   5.071  18.076  0.0240  0.0967  0.0015
12149DOPC   GL116122  11.362   5.414  18.374  0.0307  0.1661  0.3933
12149DOPC   GL216123  11.578   5.319  18.176 -0.0690  0.2615 -0.0028
12149DOPC   C1A16124  11.535   5.586  18.778  0.1556 -0.1207  0.1240
12149DOPC   D2A16125  11.861   5.674  19.160  0.1687  0.0497  0.0087
12149DOPC   C3A16126  12.202   5.518  19.408  0.0837  0.1252 -0.1229
12149DOPC   C4A16127  12.380   5.407  19.825  0.0874  0.1126  0.1206
12149DOPC   C1B16128  11.887   5.297  18.498 -0.0430  0.0690  0.0827
12149DOPC   D2B16129  12.062   5.226  18.940 -0.4315 -0.1131 -0.2222
12149DOPC   C3B16130  12.091   4.753  19.134  0.0069 -0.1107  0.0722
12149DOPC   C4B16131  12.072   4.285  19.349 -0.2514 -0.0827 -0.3343
12150DOPC   NC316132   7.443   1.252  18.399 -0.3381 -0.3246 -0.0252
12150DOPC   PO416133   7.770   1.026  18.221  0.0555 -0.0323  0.0172
12150DOPC   GL116134   7.804   0.930  18.587  0.2498  0.1196  0.0243
12150DOPC   GL216135   7.603   0.854  18.723 -0.0604  0.1793  0.2806
12150DOPC   C1A16136   7.959   1.041  18.945 -0.1150 -0.1068 -0.0377
12150DOPC   D2A16137   8.387   1.167  19.238 -0.1020 -0.0789  0.1802
12150DOPC   C3A16138   8.635   1.183  19.627  0.4209  0.0513 -0.1194
12150DOPC   C4A16139   8.554   1.597  19.894  0.2565 -0.0658 -0.0495
12150DOPC   C1B16140   7.463   1.273  18.904 -0.0590  0.0408  0.2774
12150DOPC   D2B16141   7.369   1.745  19.141  0.2742 -0.0289  0.0041
12150DOPC   C3B16142   7.209   1.576  19.584  0.0909 -0.0110  0.1283
12150DOPC   C4B16143   6.991   1.702  19.984  0.0078 -0.2644  0.1576
12151DOPC   NC316144   1.655   1.663  12.323 -0.0239  0.0539  0.0494
12151DOPC   PO416145   2.016   1.588  12.473 -0.1181 -0.1015 -0.1433
12151DOPC   GL116146   1.758   1.532  12.797 -0.3692  0.1760 -0.2259
12151DOPC   GL216147   1.829   1.247  12.835  0.1141 -0.0475 -0.1559
12151DOPC   C1A16148   1.714   1.803  13.125 -0.2821 -0.0090 -0.3831
12151DOPC   D2A16149   1.490   1.885  13.612  0.1113  0.0923  0.0954
12151DOPC   C3A16150   1.094   2.025  13.809  0.1137  0.0043  0.2155
12151DOPC   C4A16151   0.654   1.848  13.755  0.0421 -0.2507 -0.0826
12151DOPC   C1B16152   1.540   0.974  13.140 -0.2615 -0.1542 -0.0554
12151DOPC   D2B16153   1.541   0.805  13.541  0.1526  0.1047  0.2850
12151DOPC   C3B16154   1.369   1.124  13.781 -0.1490 -0.0537  0.0794
12151DOPC   C4B16155   1.096   1.531  13.759 -0.0510 -0.0747  0.0801
12152DOPC   NC316156  17.173   2.506  11.412 -0.0317 -0.3476  0.1026
12152DOPC   PO416157  17.017   2.158  11.520  0.1867  0.1021  0.1600
12152DOPC   GL116158  17.291   1.824  11.853 -0.1379  0.2836 -0.1043
12152DOPC   GL216159  17.521   2.014  11.646 -0.0936 -0.3568  0.0463
12152DOPC   C1A16160  17.375   1.720  12.256  0.2284 -0.0366 -0.1600
12152DOPC   D2A16161  17.576   1.500  12.627 -0.0087 -0.3574  0.0088
12152DOPC   C3A16162  17.477   1.537  12.987  0.1085  0.1752 -0.1325
12152DOPC   C4A16163  17.333   1.514  13.513 -0.0430  0.0751 -0.0054
12152DOPC   C1B16164  17.919   1.867  11.566 -0.0641 -0.0742 -0.1461
12152DOPC   D2B16165  18.062   1.446  11.741 -0.0644 -0.0322  0.1105
12152DOPC   C3B16166  18.418   1.392  12.023  0.2826 -0.3028  0.0289
12152DOPC   C4B16167  18.622   1.313  12.435  0.0403 -0.0277  0.3793
12153DOPC   NC316168  18.577   4.074  10.417 -0.2474  0.1558  0.0765
12153DOPC   PO416169  18.373   3.754  10.518 -0.2812 -0.2526  0.1313
12153DOPC   GL116170  18.516   3.657  10.974 -0.2510 -0.0278 -0.1245
12153DOPC   GL216171  18.668   3.919  10.873 -0.3012  0.0378  0.1342
12153DOPC   C1A16172  18.838   3.441  11.098 -0.2806 -0.1160  0.0595
12153DOPC   D2A16173  19.095   3.482  11.544  0.0072 -0.1105  0.1578
12153DOPC   C3A16174  19.025   3.564  12.011 -0.0169  0.4605  0.2326
12153DOPC   C4A16175  19.044   3.972  12.280  0.2627 -0.0958 -0.0586
12153DOPC   C1B16176  18.850   4.217  11.136 -0.0289 -0.0551  0.0564
12153DOPC   D2B16177  18.944   4.478  11.547  0.0714  0.0906  0.0035
12153DOPC   C3B16178  18.688   4.382  11.969 -0.2262 -0.2893  0.1389
12153DOPC   C4B16179  18.444   4.182  12.380  0.0478 -0.2686 -0.2124
12154DOPC   NC316180  17.606   4.633  11.008  0.0017  0.1278 -0.1253
12154DOPC   PO416181  17.672   4.259  10.907  0.2036 -0.1749 -0.1411
12154DOPC   GL116182  17.766   4.072  11.234 -0.0058 -0.0700  0.0068
12154DOPC   GL216183  17.557   3.850  11.215  0.0280 -0.1903  0.4069
12154DOPC   C1A16184  18.028   4.036  11.518 -0.0755 -0.2819  0.0422
12154DOPC   D2A16185  18.160   4.067  11.973 -0.0665  0.1198  0.3761
12154DOPC   C3A16186  17.947   4.338  12.263  0.0820  0.0556 -0.0579
12154DOPC   C4A16187  17.615   4.472  12.512  0.0410 -0.2260  0.0161
12154DOPC   C1B16188  17.655   3.533  11.480 -0.1392  0.1317 -0.0259
12154DOPC   D2B16189  17.554   3.415  11.960  0.2563  0.1850  0.0626
12154DOPC   C3B16190  17.736   3.419  12.427  0.0958 -0.2471  0.0428
12154DOPC   C4B16191  17.996   3.479  12.846 -0.0286  0.1738 -0.0919
12155DOPC   NC316192   9.859   2.443  18.639  0.0107  0.2745 -0.1060
12155DOPC   PO416193  10.135   2.278  18.396  0.1862  0.0513  0.1468
12155DOPC   GL116194  10.551   2.482  18.427 -0.2108 -0.5118  0.0656
12155DOPC   GL216195  10.430   2.609  18.700  0.4405  0.0212 -0.1719
12155DOPC   C1A16196  10.988   2.525  18.578  0.0890  0.0173 -0.1638
12155DOPC   D2A16197  11.252   2.624  18.952  0.3890  0.1360  0.1186
12155DOPC   C3A16198  11.367   2.755  19.407  0.1271 -0.2167  0.0958
12155DOPC   C4A16199  11.735   2.781  19.764 -0.1315  0.1966  0.1682
12155DOPC   C1B16200  10.534   2.572  19.142 -0.0400 -0.3198 -0.2330
12155DOPC   D2B16201  10.580   2.784  19.589  0.1165 -0.0500 -0.0493
12155DOPC   C3B16202  11.054   2.809  19.740  0.1309  0.0744 -0.0709
12155DOPC   C4B16203  11.401   3.120  19.735 -0.1432  0.3098  0.2286
12156DOPC   NC316204  12.059   3.337  15.978 -0.1752 -0.0068  0.2123
12156DOPC   PO416205  12.442   3.517  15.837 -0.2003 -0.0989  0.2127
12156DOPC   GL116206  12.873   3.456  15.927 -0.2744 -0.2019 -0.1562
12156DOPC   GL216207  12.863   3.704  16.033  0.5541  0.0017  0.0458
12156DOPC   C1A16208  13.286   3.362  15.973 -0.1573  0.0124 -0.2158
12156DOPC   D2A16209  13.778   3.234  15.949  0.3067 -0.5454 -0.0678
12156DOPC   C3A16210  14.239   3.308  16.030  0.0923 -0.1324  0.0475
12156DOPC   C4A16211  14.377   3.579  16.465 -0.0073  0.1970 -0.1043
12156DOPC   C1B16212  13.141   3.788  16.330  0.4176 -0.2273 -0.2314
12156DOPC   D2B16213  13.502   3.907  16.715 -0.0149  0.0404  0.0392
12156DOPC   C3B16214  13.947   3.885  16.880 -0.1235  0.1563  0.2042
12156DOPC   C4B16215  14.383   4.079  17.164 -0.0113  0.1439 -0.2318
12157DOPC   NC316216  10.551   2.493  17.989  0.0510  0.1047 -0.1044
12157DOPC   PO416217  10.897   2.293  17.899 -0.0186  0.1316  0.2629
12157DOPC   GL116218  11.003   2.024  18.263 -0.1017 -0.0659  0.1406
12157DOPC   GL216219  11.271   2.182  18.222 -0.0293 -0.1407  0.0115
12157DOPC   C1A16220  10.895   1.910  18.646 -0.3182  0.1432  0.1781
12157DOPC   D2A16221  10.915   1.732  19.124  0.1083  0.0161  0.0632
12157DOPC   C3A16222  10.911   1.829  19.641  0.1393 -0.2790  0.2852
12157DOPC   C4A16223  10.584   1.936  19.971 -0.2410  0.2213 -0.0970
12157DOPC   C1B16224  11.318   2.164  18.660 -0.1040 -0.0696 -0.0514
12157DOPC   D2B16225  11.466   1.887  19.036  0.0234 -0.1944 -0.3111
12157DOPC   C3B16226  11.605   1.810  19.452 -0.0215  0.0346 -0.1788
12157DOPC   C4B16227  11.688   1.448  19.771  0.0216  0.1430 -0.2650
12158DOPC   NC316228   5.222   0.580  16.577 -0.1381  0.1381 -0.1551
12158DOPC   PO416229   4.920   0.546  16.394  0.1758 -0.1385  0.3508
12158DOPC   GL116230   4.505   0.771  16.539  0.0188  0.4068 -0.1889
12158DOPC   GL216231   4.467   0.726  16.264 -0.4071  0.0207  0.1393
12158DOPC   C1A16232   4.186   1.035  16.663  0.3196 -0.1622  0.2491
12158DOPC   D2A16233   3.998   1.512  16.825  0.1493  0.0963  0.0052
12158DOPC   C3A16234   3.565   1.549  16.695  0.2170  0.1165  0.0845
12158DOPC   C4A16235   3.314   1.910  16.481  0.0601  0.0170 -0.2075
12158DOPC   C1B16236   4.012   0.638  16.208 -0.5852 -0.0260 -0.1016
12158DOPC   D2B16237   3.683   0.384  16.442  0.0173  0.0629  0.0151
12158DOPC   C3B16238   3.356   0.089  16.660  0.1574  0.1085  0.1203
12158DOPC   C4B16239   2.911  -0.174  16.823 -0.2712  0.0291 -0.0797
12159DOPC   NC316240  15.859   7.392  12.259 -0.0348  0.2657  0.0404
12159DOPC   PO416241  16.240   7.541  12.242  0.1585  0.0603  0.0918
12159DOPC   GL116242  16.454   7.386  12.544 -0.1063  0.0257 -0.1328
12159DOPC   GL216243  16.771   7.359  12.431  0.2420 -0.1331 -0.1343
12159DOPC   C1A16244  16.397   7.412  12.971 -0.1588 -0.0702 -0.1456
12159DOPC   D2A16245  16.563   7.438  13.436 -0.0337 -0.0660  0.0451
12159DOPC   C3A16246  16.842   7.090  13.675  0.0163 -0.1050  0.0818
12159DOPC   C4A16247  16.952   6.711  14.004 -0.1445 -0.1834 -0.2524
12159DOPC   C1B16248  17.140   7.399  12.646  0.1301  0.2502 -0.1014
12159DOPC   D2B16249  17.478   7.587  12.867  0.1498  0.2568 -0.2591
12159DOPC   C3B16250  17.731   7.453  13.231  0.1874  0.1308 -0.1318
12159DOPC   C4B16251  18.075   7.276  13.549  0.1663  0.2221  0.2012
12160DOPC   NC316252   6.370   4.110  18.119  0.4340  0.1656 -0.1507
12160DOPC   PO416253   6.172   4.436  17.994 -0.1857  0.1943 -0.0645
12160DOPC   GL116254   5.877   4.641  18.184 -0.3839 -0.1343 -0.0872
12160DOPC   GL216255   6.061   4.859  18.285  0.0967  0.2898 -0.1396
12160DOPC   C1A16256   5.542   4.500  18.437 -0.1967 -0.1897 -0.0302
12160DOPC   D2A16257   5.216   4.543  18.747  0.0251  0.0109 -0.0867
12160DOPC   C3A16258   5.253   4.997  18.845 -0.1204 -0.0696 -0.2262
12160DOPC   C4A16259   4.942   5.320  19.036 -0.0766  0.1891 -0.1494
12160DOPC   C1B16260   5.868   4.777  18.653 -0.1559  0.2089 -0.2708
12160DOPC   D2B16261   5.679   4.689  19.093  0.0789  0.0132  0.1022
12160DOPC   C3B16262   5.507   4.853  19.505  0.0217 -0.0597  0.0350
12160DOPC   C4B16263   5.575   4.940  19.930  0.0549 -0.1640  0.1231
12161DOPC   NC316264  25.045   6.131  10.869 -0.3865 -0.3881 -0.0357
12161DOPC   PO416265  25.129   6.411  11.107  0.1324 -0.3145 -0.0322
12161DOPC   GL116266  24.855   6.374  11.440  0.0518  0.2592  0.2135
12161DOPC   GL216267  24.804   6.666  11.439  0.3498 -0.2312  0.3257
12161DOPC   C1A16268  24.571   6.026  11.607  0.0655  0.1470  0.3170
12161DOPC   D2A16269  24.268   5.814  11.981 -0.1238  0.0030  0.0385
12161DOPC   C3A16270  24.105   5.602  12.326 -0.2031 -0.0951  0.2377
12161DOPC   C4A16271  23.985   5.248  12.574 -0.0838 -0.4236 -0.2310
12161DOPC   C1B16272  24.452   6.769  11.768  0.0531 -0.3617  0.0151
12161DOPC   D2B16273  24.056   6.821  11.943 -0.1096  0.1006 -0.0068
12161DOPC   C3B16274  23.681   6.859  11.657 -0.1140 -0.1214  0.2090
12161DOPC   C4B16275  23.310   7.096  11.351  0.2791 -0.0075 -0.3307
12162DOPC   NC316276  24.847   2.393  11.004 -0.0398 -0.1367  0.0013
12162DOPC   PO416277  25.029   2.698  11.142 -0.0674  0.1486 -0.0923
12162DOPC   GL116278  24.705   2.653  11.393 -0.0407 -0.1126  0.2617
12162DOPC   GL216279  24.831   2.426  11.530  0.2535 -0.0668  0.0346
12162DOPC   C1A16280  24.575   2.877  11.742  0.1768  0.3153 -0.0382
12162DOPC   D2A16281  24.510   2.952  12.277  0.0844 -0.3409  0.2233
12162DOPC   C3A16282  24.916   2.813  12.469  0.2583  0.1303  0.1915
12162DOPC   C4A16283  25.396   2.999  12.599 -0.0947  0.0196 -0.2481
12162DOPC   C1B16284  24.837   2.481  11.921 -0.0627  0.0152  0.0619
12162DOPC   D2B16285  24.389   2.460  12.131 -0.4194 -0.3586 -0.2293
12162DOPC   C3B16286  24.307   2.562  12.597 -0.1068  0.2099 -0.0649
12162DOPC   C4B16287  24.028   2.771  12.896 -0.1152 -0.0455 -0.0330
12163DOPS   CNO16288  10.328   2.991  17.745 -0.2076 -0.0358 -0.0333
12163DOPS   PO416289  10.679   3.020  17.831  0.0680 -0.0719  0.0695
12163DOPS   GL116290  10.796   2.951  18.239  0.0071  0.0247  0.1305
12163DOPS   GL216291  11.011   2.741  18.131  0.1398  0.0125 -0.3011
12163DOPS   C1A16292  10.763   2.964  18.748 -0.3020 -0.0978  0.0046
12163DOPS   D2A16293  10.913   2.896  19.237 -0.2285 -0.1099  0.0362
12163DOPS   C3A16294  11.183   3.235  19.281 -0.2040 -0.1323 -0.0649
12163DOPS   C4A16295  11.584   3.399  19.373  0.0656  0.0412 -0.2214
12163DOPS   C1B16296  11.413   2.615  18.335  0.0021  0.0698 -0.1915
12163DOPS   D2B16297  11.735   2.411  18.636  0.0904  0.1366  0.1863
12163DOPS   C3B16298  12.217   2.397  18.576 -0.3871  0.1165 -0.0963
12163DOPS   C4B16299  12.670   2.518  18.637  0.2212 -0.1206  0.1327
12164DOPS   CNO16300  16.517   0.167  11.687 -0.0771  0.0541  0.3523
12164DOPS   PO416301  16.463   0.161  12.087 -0.1802 -0.1351 -0.1957
12164DOPS   GL116302  16.741   0.087  12.328  0.1244  0.1817 -0.2527
12164DOPS   GL216303  16.738   0.347  12.380  0.4108 -0.2650 -0.2372
12164DOPS   C1A16304  16.767  -0.127  12.779 -0.0026  0.2328  0.0402
12164DOPS   D2A16305  16.950  -0.071  13.284 -0.2071 -0.2457  0.2259
12164DOPS   C3A16306  17.073  -0.164  13.695 -0.0198  0.0686 -0.0885
12164DOPS   C4A16307  17.310  -0.231  14.146 -0.1231 -0.2003  0.1582
12164DOPS   C1B16308  16.589   0.641  12.717 -0.2438  0.1734  0.2755
12164DOPS   D2B16309  16.577   0.883  13.134  0.2757 -0.4414 -0.1934
12164DOPS   C3B16310  16.970   0.827  13.374  0.0521  0.2288 -0.0074
12164DOPS   C4B16311  17.320   0.658  13.688 -0.1215 -0.1521  0.0658
12165DOPS   CNO16312   8.217   3.317  18.611 -0.2971  0.0085 -0.3390
12165DOPS   PO416313   8.184   2.977  18.500 -0.1283 -0.1243 -0.0561
12165DOPS   GL116314   7.917   2.764  18.802  0.1937  0.3234  0.2182
12165DOPS   GL216315   7.740   3.002  18.816 -0.3960 -0.0160  0.2063
12165DOPS   C1A16316   8.029   2.459  19.119  0.2032  0.1753 -0.1376
12165DOPS   D2A16317   8.201   2.388  19.649  0.1018 -0.0554  0.1511
12165DOPS   C3A16318   8.023   1.971  19.887 -0.0009  0.1590 -0.1183
12165DOPS   C4A16319   8.105   1.571  20.148  0.0091 -0.1368 -0.1427
12165DOPS   C1B16320   7.375   2.915  19.121 -0.1955  0.4078 -0.0085
12165DOPS   D2B16321   7.077   3.011  19.527 -0.3513 -0.3561  0.3092
12165DOPS   C3B16322   6.725   3.246  19.792 -0.0347 -0.1397 -0.3021
12165DOPS   C4B16323   6.297   3.360  20.026  0.0790  0.0299 -0.3088
12166DOPS   CNO16324  11.969   3.800  16.187  0.0559  0.2595  0.2023
12166DOPS   PO416325  11.915   4.172  16.306 -0.2951  0.0874 -0.3529
12166DOPS   GL116326  12.053   4.224  16.722  0.1480  0.3263  0.0514
12166DOPS   GL216327  11.970   3.970  16.830  0.3067  0.0532  0.1240
12166DOPS   C1A16328  12.487   4.175  16.823  0.0559  0.1605  0.0010
12166DOPS   D2A16329  12.887   4.358  17.128 -0.0804  0.1118 -0.0945
12166DOPS   C3A16330  13.220   4.646  17.240 -0.4336 -0.0250  0.0220
12166DOPS   C4A16331  13.685   4.783  17.112 -0.1089  0.1953  0.1881
12166DOPS   C1B16332  12.110   4.010  17.258 -0.0931 -0.3236 -0.0084
12166DOPS   D2B16333  12.237   4.196  17.731  0.1961  0.0123  0.2945
12166DOPS   C3B16334  12.183   4.001  18.119 -0.1563  0.1061  0.0813
12166DOPS   C4B16335  12.485   4.081  18.471 -0.0532  0.0931  0.0563
12167DOPS   CNO16336  11.207   6.317  17.402 -0.0385  0.0159 -0.1531
12167DOPS   PO416337  11.150   6.675  17.526 -0.4561 -0.1069  0.2796
12167DOPS   GL116338  11.378   6.878  17.806  0.2617  0.1241  0.0412
12167DOPS   GL216339  11.392   6.628  18.070  0.3069  0.1113 -0.2985
12167DOPS   C1A16340  11.704   7.125  17.935 -0.0691  0.0556  0.0664
12167DOPS   D2A16341  11.986   7.112  18.268 -0.0221  0.0436 -0.0869
12167DOPS   C3A16342  11.809   7.241  18.718 -0.0225 -0.0375 -0.1677
12167DOPS   C4A16343  11.766   7.262  19.191 -0.1233  0.1487  0.0423
12167DOPS   C1B16344  11.850   6.675  18.118 -0.0928  0.2030  0.1593
12167DOPS   D2B16345  12.331   6.729  18.344  0.0468 -0.2622 -0.4280
12167DOPS   C3B16346  12.805   6.664  18.369 -0.0364 -0.1659  0.1627
12167DOPS   C4B16347  13.223   6.915  18.190  0.1120 -0.1442  0.0582
12168DOPS   CNO16348  16.885   7.634  11.568 -0.2129 -0.1558 -0.0741
12168DOPS   PO416349  16.969   7.322  11.800 -0.1557  0.0035  0.1119
12168DOPS   GL116350  17.230   7.323  12.153  0.5381 -0.6724  0.0824
12168DOPS   GL216351  17.089   7.589  12.220  0.3896  0.0789 -0.2433
12168DOPS   C1A16352  17.470   7.104  12.412 -0.1874  0.1872  0.0650
12168DOPS   D2A16353  17.381   7.035  12.909 -0.2230  0.1257 -0.1153
12168DOPS   C3A16354  17.073   6.754  13.019 -0.0739  0.0207  0.1727
12168DOPS   C4A16355  16.867   6.315  13.099 -0.2036 -0.1408 -0.1556
12168DOPS   C1B16356  17.116   7.893  12.497 -0.2137  0.0857 -0.0141
12168DOPS   D2B16357  17.294   8.036  12.940  0.2969  0.1405 -0.2587
12168DOPS   C3B16358  17.384   8.381  13.229 -0.1247  0.1236 -0.0008
12168DOPS   C4B16359  17.427   8.824  13.243 -0.0445  0.1079 -0.3443
12169DOPS   CNO16360  24.517   0.054  10.947  0.0077  0.0448 -0.0057
12169DOPS   PO416361  24.412   0.363  10.749  0.2128  0.0768 -0.4340
12169DOPS   GL116362  24.194   0.395  11.066  0.1077 -0.0631 -0.0305
12169DOPS   GL216363  24.366   0.331  11.293  0.3238 -0.1813  0.0108
12169DOPS   C1A16364  23.869   0.570  11.137  0.2061 -0.2650  0.1736
12169DOPS   D2A16365  23.367   0.535  11.387 -0.0810 -0.1028  0.0428
12169DOPS   C3A16366  23.201   0.454  11.778  0.0439  0.2590 -0.0681
12169DOPS   C4A16367  23.319   0.159  12.098  0.0570 -0.0912 -0.0247
12169DOPS   C1B16368  24.344   0.389  11.694  0.1019  0.3045  0.2802
12169DOPS   D2B16369  24.414   0.038  12.047  0.1375 -0.1473 -0.0334
12169DOPS   C3B16370  24.514  -0.278  12.350  0.1786 -0.0718 -0.2584
12169DOPS   C4B16371  24.682  -0.758  12.593 -0.0557 -0.3592  0.0192
12170DOPS   CNO16372   6.025   5.938  17.494 -0.0415  0.2799 -0.4784
12170DOPS   PO416373   5.766   6.071  17.673  0.1715 -0.1502 -0.0421
12170DOPS   GL116374   5.683   6.045  18.067  0.0401  0.0651  0.3208
12170DOPS   GL216375   5.694   5.764  18.088  0.1364  0.0426  0.2586
12170DOPS   C1A16376   5.442   6.180  18.419  0.1552  0.0885 -0.0481
12170DOPS   D2A16377   5.219   6.079  18.832 -0.0966 -0.0663  0.1475
12170DOPS   C3A16378   4.962   6.338  19.155 -0.1658 -0.5056 -0.1658
12170DOPS   C4A16379   4.977   6.601  19.535 -0.1294 -0.2899 -0.1209
12170DOPS   C1B16380   5.526   5.672  18.440  0.2291  0.2474 -0.1447
12170DOPS   D2B16381   5.312   5.619  18.903  0.1176  0.0684  0.0635
12170DOPS   C3B16382   5.269   5.776  19.312 -0.0042 -0.0268  0.0449
12170DOPS   C4B16383   4.967   6.013  19.533  0.4801 -0.0035 -0.1544
12171DOPS   CNO16384  15.262   1.420  12.092  0.1939  0.0267 -0.0788
12171DOPS   PO416385  15.477   1.243  12.381  0.0857  0.1227  0.1524
12171DOPS   GL116386  15.769   1.535  12.555  0.1088 -0.1106  0.6086
12171DOPS   GL216387  15.573   1.528  12.834 -0.0865 -0.0883  0.3591
12171DOPS   C1A16388  16.087   1.343  12.780  0.1285 -0.0895 -0.0971
12171DOPS   D2A16389  16.498   1.395  13.101  0.0051 -0.0198 -0.1028
12171DOPS   C3A16390  16.785   1.329  13.480  0.2496  0.0174 -0.0225
12171DOPS   C4A16391  16.985   1.059  13.796 -0.1642  0.0457 -0.0462
12171DOPS   C1B16392  15.658   1.767  13.270  0.2825 -0.0061 -0.0852
12171DOPS   D2B16393  15.733   1.906  13.688  0.0101 -0.4385 -0.0597
12171DOPS   C3B16394  16.158   1.913  13.835  0.1317 -0.1240 -0.1455
12171DOPS   C4B16395  16.597   1.948  14.019 -0.0020 -0.0091  0.1291
12172DOPS   CNO16396  21.394   1.055  10.177 -0.2419 -0.0921 -0.0968
12172DOPS   PO416397  21.034   0.949  10.264 -0.0124 -0.1566  0.1256
12172DOPS   GL116398  20.914   0.824  10.716 -0.0616 -0.2900  0.3927
12172DOPS   GL216399  21.232   0.844  10.725 -0.0961 -0.3943 -0.4210
12172DOPS   C1A16400  20.821   0.562  11.046  0.1294 -0.1259 -0.1125
12172DOPS   D2A16401  20.811   0.204  11.384 -0.2441  0.0368 -0.2178
12172DOPS   C3A16402  21.152   0.132  11.683  0.3042  0.0280 -0.1651
12172DOPS   C4A16403  21.464   0.040  12.027  0.1301  0.2695 -0.1720
12172DOPS   C1B16404  21.461   0.926  11.105  0.0083 -0.2916 -0.0420
12172DOPS   D2B16405  21.798   0.878  11.433 -0.1356  0.3751  0.1624
12172DOPS   C3B16406  22.025   0.774  11.851  0.1230  0.0313  0.1328
12172DOPS   C4B16407  22.365   0.664  12.203 -0.0038  0.2480  0.0457
12173DOPS   CNO16408   8.513   2.223  18.251 -0.5429 -0.4417  0.1046
12173DOPS   PO416409   8.635   1.936  18.438 -0.0973  0.2917  0.0129
12173DOPS   GL116410   8.763   1.871  18.847  0.2191  0.1908  0.1403
12173DOPS   GL216411   8.867   2.081  18.958  0.3005 -0.0210 -0.3821
12173DOPS   C1A16412   8.394   1.845  19.046  0.3197  0.2862 -0.0236
12173DOPS   D2A16413   8.308   1.640  19.479  0.2167  0.0798 -0.0069
12173DOPS   C3A16414   8.159   1.251  19.703  0.0112  0.0863  0.2116
12173DOPS   C4A16415   7.906   1.026  20.038  0.0499  0.1540 -0.0820
12173DOPS   C1B16416   9.293   2.100  19.219 -0.3091 -0.0463  0.0012
12173DOPS   D2B16417   9.736   2.238  19.459 -0.1018  0.0022 -0.0936
12173DOPS   C3B16418  10.136   2.069  19.704  0.1452 -0.3299  0.0224
12173DOPS   C4B16419  10.118   2.076  20.209 -0.0566 -0.0985  0.0761
12174DOPS   CNO16420  12.511   2.130  15.567  0.1202 -0.0776  0.4537
12174DOPS   PO416421  12.843   2.099  15.722  0.2010 -0.1945  0.1601
12174DOPS   GL116422  13.120   2.169  16.057 -0.0896 -0.0679  0.0875
12174DOPS   GL216423  13.083   1.991  16.269 -0.1519 -0.0948  0.1885
12174DOPS   C1A16424  13.477   2.422  16.237  0.1857  0.1271  0.0990
12174DOPS   D2A16425  13.927   2.557  16.425 -0.1047  0.1744 -0.1119
12174DOPS   C3A16426  14.209   2.913  16.498 -0.3904 -0.0887 -0.1967
12174DOPS   C4A16427  14.661   3.132  16.406 -0.0321  0.0081 -0.0901
12174DOPS   C1B16428  13.391   2.083  16.550 -0.3088 -0.0226  0.2324
12174DOPS   D2B16429  13.666   2.285  16.888  0.0510  0.1221  0.0684
12174DOPS   C3B16430  14.050   2.027  16.880 -0.0935 -0.0507  0.2727
12174DOPS   C4B16431  14.107   1.600  17.004 -0.1047 -0.0224 -0.0588
12175DOPS   CNO16432   1.406   7.376  11.800 -0.1596  0.1621  0.1183
12175DOPS   PO416433   1.198   7.346  12.116  0.2329  0.0328 -0.1943
12175DOPS   GL116434   0.816   7.371  12.262 -0.2244  0.1185  0.1683
12175DOPS   GL216435   0.822   7.711  12.202 -0.1982  0.0562 -0.0596
12175DOPS   C1A16436   0.460   7.226  12.481  0.0026  0.0627 -0.0248
12175DOPS   D2A16437   0.141   7.095  12.786  0.0726 -0.0119 -0.0714
12175DOPS   C3A16438   0.021   6.752  13.105 -0.2223 -0.3377  0.0337
12175DOPS   C4A16439   0.049   6.442  13.523  0.0476  0.2717  0.0382
12175DOPS   C1B16440   0.643   7.744  12.614 -0.2638 -0.0018  0.1660
12175DOPS   D2B16441   0.188   7.741  12.811 -0.1197  0.1542 -0.1747
12175DOPS   C3B16442  -0.087   8.005  13.018  0.1878  0.1836 -0.0616
12175DOPS   C4B16443  -0.310   8.300  13.319 -0.2407 -0.3352  0.1815
12176DOPS   CNO16444  21.629   6.501   9.722  0.3470 -0.0587  0.1072
12176DOPS   PO416445  21.707   6.721  10.002 -0.3548  0.4436  0.4717
12176DOPS   GL116446  21.738   6.432  10.412  0.1672 -0.0402 -0.0623
12176DOPS   GL216447  21.631   6.743  10.561 -0.4482 -0.2506  0.3332
12176DOPS   C1A16448  21.675   6.091  10.653 -0.1584 -0.2524 -0.1633
12176DOPS   D2A16449  21.688   5.723  10.936 -0.0161  0.2038  0.2007
12176DOPS   C3A16450  21.915   5.542  11.332 -0.0057 -0.2742 -0.1480
12176DOPS   C4A16451  22.100   5.152  11.682  0.1233 -0.1389  0.0347
12176DOPS   C1B16452  21.201   6.923  10.702 -0.0419 -0.1688  0.1163
12176DOPS   D2B16453  20.966   7.182  10.980 -0.1553 -0.1785 -0.1684
12176DOPS   C3B16454  20.925   7.176  11.388  0.2552 -0.2476 -0.0237
12176DOPS   C4B16455  20.817   7.152  11.883 -0.1672  0.0448  0.3287
12177DOPS   CNO16456  14.540   6.390  13.086  0.1416 -0.0654  0.1075
12177DOPS   PO416457  14.811   6.193  13.192 -0.0768 -0.0647  0.0789
12177DOPS   GL116458  14.964   6.189  13.562 -0.0813 -0.0311  0.2045
12177DOPS   GL216459  15.157   6.304  13.532  0.1020  0.0298  0.1973
12177DOPS   C1A16460  15.057   5.942  13.967 -0.0235  0.2785 -0.1542
12177DOPS   D2A16461  15.377   5.631  14.263 -0.0822 -0.1374  0.1942
12177DOPS   C3A16462  15.678   5.652  14.562  0.4010 -0.0528 -0.1701
12177DOPS   C4A16463  16.033   5.317  14.732  0.0165 -0.2222  0.2040
12177DOPS   C1B16464  15.479   6.024  13.669 -0.1437  0.0242 -0.2744
12177DOPS   D2B16465  15.785   5.868  14.050  0.0275  0.1077  0.2034
12177DOPS   C3B16466  16.148   5.688  14.278  0.0212 -0.1115 -0.1399
12177DOPS   C4B16467  16.484   5.435  14.520 -0.2263 -0.1070 -0.0694
12178DOPS   CNO16468  20.294   5.852   9.542  0.2508 -0.0827  0.1689
12178DOPS   PO416469  20.377   5.672   9.889 -0.2908 -0.0581 -0.2607
12178DOPS   GL116470  20.420   5.783  10.334 -0.0059  0.2614 -0.1355
12178DOPS   GL216471  20.300   5.635  10.473  0.0830  0.0773  0.0503
12178DOPS   C1A16472  20.664   5.994  10.661 -0.1647 -0.2830 -0.1781
12178DOPS   D2A16473  20.802   5.927  11.131  0.0073 -0.0517  0.2012
12178DOPS   C3A16474  20.577   5.866  11.572  0.3361 -0.0199 -0.3851
12178DOPS   C4A16475  20.479   5.687  12.020  0.3667  0.0584 -0.1143
12178DOPS   C1B16476  20.455   5.579  10.883  0.1209 -0.0932 -0.0868
12178DOPS   D2B16477  20.727   5.425  11.341 -0.1723  0.2710 -0.0676
12178DOPS   C3B16478  20.813   5.301  11.855 -0.0708  0.0689  0.0418
12178DOPS   C4B16479  21.122   5.338  12.244  0.0427 -0.3748  0.1379
12179DOPS   CNO16480  24.850   7.143  11.381 -0.0893  0.1094 -0.1778
12179DOPS   PO416481  25.141   6.935  11.315  0.0142  0.3036  0.3587
12179DOPS   GL116482  25.275   6.916  11.714  0.2195  0.0128 -0.0905
12179DOPS   GL216483  25.033   7.161  11.790  0.0724  0.0255 -0.1234
12179DOPS   C1A16484  24.953   6.648  11.864  0.0407  0.1498  0.0630
12179DOPS   D2A16485  24.642   6.551  12.219 -0.3460 -0.0005  0.0332
12179DOPS   C3A16486  24.511   6.564  12.681 -0.0424 -0.1866  0.2517
12179DOPS   C4A16487  24.618   6.404  13.158  0.1690  0.0400 -0.0821
12179DOPS   C1B16488  24.681   7.062  12.059 -0.0066  0.2936  0.0637
12179DOPS   D2B16489  24.293   6.895  12.338  0.0872 -0.0327 -0.0339
12179DOPS   C3B16490  24.088   6.514  12.319 -0.3172  0.2012  0.2899
12179DOPS   C4B16491  23.871   6.084  12.247 -0.1430 -0.1666  0.0576
12180DOPS   CNO16492   1.313   0.766  11.789 -0.3707 -0.1529  0.0505
12180DOPS   PO416493   1.140   0.478  11.902  0.1470  0.1274 -0.1182
12180DOPS   GL116494   0.966   0.494  12.256  0.1818  0.1024 -0.0041
12180DOPS   GL216495   1.169   0.422  12.399  0.2267  0.2348 -0.0345
12180DOPS   C1A16496   0.592   0.527  12.459  0.0875  0.4305 -0.1545
12180DOPS   D2A16497   0.136   0.592  12.717 -0.0383 -0.0627 -0.0962
12180DOPS   C3A16498   0.313   0.651  13.146 -0.0172  0.3594  0.0214
12180DOPS   C4A16499   0.448   0.926  13.550 -0.1700  0.1112  0.2011
12180DOPS   C1B16500   0.991   0.304  12.794  0.0684 -0.2840  0.0212
12180DOPS   D2B16501   0.596   0.227  13.029 -0.1730  0.1351 -0.1455
12180DOPS   C3B16502   0.722   0.291  13.441  0.1162  0.3005 -0.0423
12180DOPS   C4B16503   0.812   0.372  13.914  0.1169  0.3765 -0.0400
12181DOPS   CNO16504  19.079   4.279  10.502 -0.0514 -0.1580 -0.1740
12181DOPS   PO416505  19.445   4.306  10.391  0.1182 -0.2377  0.0113
12181DOPS   GL116506  19.741   4.246  10.683  0.1883  0.1372 -0.4179
12181DOPS   GL216507  19.920   4.402  10.564  0.5155 -0.0837 -0.0346
12181DOPS   C1A16508  19.811   4.332  11.113  0.0668  0.1076 -0.2477
12181DOPS   D2A16509  19.932   4.526  11.567 -0.1701 -0.0178 -0.0792
12181DOPS   C3A16510  19.949   4.762  11.902 -0.1132 -0.0200 -0.2297
12181DOPS   C4A16511  19.937   4.995  12.317 -0.3750  0.0890  0.2527
12181DOPS   C1B16512  20.035   4.763  10.783 -0.1878  0.1317  0.2482
12181DOPS   D2B16513  20.020   4.986  11.219  0.4084 -0.1641  0.0336
12181DOPS   C3B16514  19.703   5.048  11.628  0.0932 -0.3531 -0.3337
12181DOPS   C4B16515  19.374   5.054  11.981  0.0111  0.2445  0.1257
12182DOPS   CNO16516   5.085   0.632  17.094 -0.0611 -0.3939  0.0871
12182DOPS   PO416517   5.347   0.562  17.393  0.1852 -0.0402 -0.1887
12182DOPS   GL116518   5.184   0.576  17.745 -0.3016 -0.1197  0.2774
12182DOPS   GL216519   5.384   0.557  17.979 -0.2532  0.0182 -0.0431
12182DOPS   C1A16520   4.822   0.292  17.807  0.1138 -0.2117 -0.1363
12182DOPS   D2A16521   4.372   0.067  17.876  0.2545  0.0478  0.1317
12182DOPS   C3A16522   4.186   0.119  18.324 -0.0584 -0.2912  0.3046
12182DOPS   C4A16523   3.939   0.198  18.717 -0.0033 -0.0752 -0.0356
12182DOPS   C1B16524   5.461   0.645  18.469  0.0939  0.0869  0.1761
12182DOPS   D2B16525   5.291   0.582  18.889 -0.1150 -0.1291  0.0679
12182DOPS   C3B16526   5.067   0.273  19.084 -0.0409 -0.0685 -0.2164
12182DOPS   C4B16527   4.759   0.095  19.405  0.1008 -0.2731 -0.2650
12183DOPS   CNO16528   8.618   2.652  18.480 -0.2108 -0.0784  0.1464
12183DOPS   PO416529   8.938   2.708  18.685  0.0421 -0.3679  0.1729
12183DOPS   GL116530   8.931   3.003  19.093  0.3678 -0.2741 -0.0315
12183DOPS   GL216531   8.911   2.634  19.131  0.1999 -0.3141  0.2251
12183DOPS   C1A16532   9.023   2.994  19.470 -0.2523 -0.1748  0.1747
12183DOPS   D2A16533   8.818   2.832  19.899 -0.2361  0.2469 -0.0395
12183DOPS   C3A16534   8.673   2.401  20.022 -0.0902  0.2286 -0.0930
12183DOPS   C4A16535   8.399   2.031  20.241  0.0044 -0.2890  0.0138
12183DOPS   C1B16536   9.020   2.428  19.511  0.0022  0.3557 -0.4726
12183DOPS   D2B16537   9.300   2.178  19.847 -0.3127  0.1893 -0.0404
12183DOPS   C3B16538   9.418   1.884  20.139 -0.0847 -0.1423  0.0725
12183DOPS   C4B16539   9.641   1.521  20.417  0.0376  0.0179 -0.1482
12184DOPS   CNO16540  15.676   3.556  11.247 -0.3024 -0.1834 -0.0995
12184DOPS   PO416541  15.561   3.641  11.577 -0.2243 -0.1344  0.0822
12184DOPS   GL116542  15.788   3.703  11.940  0.1818 -0.0880  0.0628
12184DOPS   GL216543  16.032   3.837  11.919 -0.0459 -0.1639  0.1271
12184DOPS   C1A16544  15.818   3.670  12.389  0.0917 -0.3169  0.1136
12184DOPS   D2A16545  15.876   3.635  12.861 -0.0582  0.3812 -0.3436
12184DOPS   C3A16546  15.881   3.370  13.239 -0.0165 -0.1784 -0.1027
12184DOPS   C4A16547  15.946   3.425  13.761 -0.1988  0.0743 -0.0937
12184DOPS   C1B16548  16.241   3.976  12.365 -0.1519 -0.1722  0.0584
12184DOPS   D2B16549  16.354   3.768  12.805  0.0732 -0.0209 -0.2560
12184DOPS   C3B16550  16.288   3.307  12.872  0.0140  0.0092 -0.1096
12184DOPS   C4B16551  16.070   2.867  12.913 -0.0542 -0.0323 -0.0021
12185DOPS   CNO16552   9.501   0.036  18.260  0.1414 -0.0162  0.1088
12185DOPS   PO416553   9.226   0.178  18.473 -0.1364  0.0954  0.0651
12185DOPS   GL116554   9.563   0.212  18.699 -0.1530 -0.2702 -0.0272
12185DOPS   GL216555   9.395   0.443  18.799 -0.1069 -0.0163  0.2522
12185DOPS   C1A16556   9.827   0.510  18.825 -0.3667 -0.1202 -0.2256
12185DOPS   D2A16557  10.098   0.868  18.988  0.1356 -0.0066 -0.2124
12185DOPS   C3A16558  10.489   0.944  19.187  0.2947  0.0094 -0.0737
12185DOPS   C4A16559  10.881   0.715  19.391  0.1443 -0.1873 -0.2897
12185DOPS   C1B16560   9.479   0.457  19.205 -0.0648 -0.0293  0.1464
12185DOPS   D2B16561   9.520   0.228  19.622 -0.1983  0.3984 -0.4941
12185DOPS   C3B16562   9.293   0.008  20.009  0.2500  0.0047 -0.2368
12185DOPS   C4B16563   9.184  -0.459  20.174  0.1087 -0.1914 -0.3014
12186DOPS   CNO16564   5.915   5.485  17.246  0.2398 -0.2113 -0.0608
12186DOPS   PO416565   5.616   5.490  17.002  0.0870  0.5220  0.2949
12186DOPS   GL116566   5.192   5.515  17.177 -0.4015  0.1557 -0.5812
12186DOPS   GL216567   5.002   5.498  17.095  0.0145 -0.2322  0.4952
12186DOPS   C1A16568   5.035   5.560  17.589 -0.0011 -0.2486 -0.3911
12186DOPS   D2A16569   4.721   5.692  17.911 -0.1511  0.0833 -0.0238
12186DOPS   C3A16570   4.300   5.859  18.046 -0.2858  0.0832 -0.0741
12186DOPS   C4A16571   4.062   5.703  18.458 -0.2471 -0.1595 -0.1197
12186DOPS   C1B16572   4.618   5.562  17.307  0.1717 -0.2062 -0.2209
12186DOPS   D2B16573   4.221   5.710  17.498 -0.0208 -0.1580  0.2294
12186DOPS   C3B16574   3.874   5.603  17.181 -0.2974  0.0731  0.2768
12186DOPS   C4B16575   3.414   5.468  17.188  0.1421  0.0529 -0.2260
12187DOPS   CNO16576  12.184   5.421  16.384  0.2187  0.4904  0.2087
12187DOPS   PO416577  12.316   5.271  16.715  0.1160 -0.3898 -0.1338
12187DOPS   GL116578  12.081   5.221  17.111  0.0814  0.2573  0.1588
12187DOPS   GL216579  12.165   5.447  17.068 -0.0331  0.2012 -0.3083
12187DOPS   C1A16580  12.407   4.961  17.360 -0.1241 -0.1596  0.2081
12187DOPS   D2A16581  12.813   4.712  17.515 -0.1880  0.0018 -0.2410
12187DOPS   C3A16582  12.542   4.528  17.834  0.0071 -0.1836  0.2034
12187DOPS   C4A16583  12.302   4.519  18.212  0.0131  0.2931  0.0384
12187DOPS   C1B16584  12.602   5.490  17.199 -0.1834  0.0277 -0.1571
12187DOPS   D2B16585  13.058   5.179  17.271 -0.1839 -0.2778  0.1171
12187DOPS   C3B16586  13.352   5.086  17.624 -0.0486 -0.0347 -0.0611
12187DOPS   C4B16587  13.669   4.830  17.869  0.1660  0.2428 -0.0799
12188W        W16588  10.251   1.513   6.427 -0.0191 -0.0736  0.3767
12189W        W16589   9.825   4.296  29.519  0.0457  0.0724 -0.0952
12190W        W16590   4.300   1.655  30.394  0.0656  0.0133 -0.0807
12191W        W16591   4.173   3.761  31.739  0.0722 -0.1708 -0.2254
12192W        W16592  22.827   5.333  18.448 -0.0723 -0.5621 -0.1369
12193W        W16593  24.477   6.157   5.320  0.1823 -0.0660 -0.1528
12194W        W16594   9.691   5.887  11.040 -0.0038 -0.0235 -0.0203
12195W        W16595  20.023   4.627  22.795 -0.2124 -0.0320  0.0073
12196W        W16596   6.460   6.647   9.950 -0.1853  0.1789 -0.0624
12197W        W16597   4.182   4.364   0.930  0.3033  0.4165  0.1403
12198W        W16598  10.698   6.148  31.627 -0.2768  0.1332  0.4815
12199W        W16599  14.420   3.267  23.561 -0.0910  0.1146  0.1363
12200W        W16600   7.062   6.135  16.817 -0.0624 -0.1288  0.0086
12201W        W16601  24.630   5.259   8.278 -0.0936 -0.4609  0.3705
12202W        W16602  21.970   1.613  29.923  0.1109  0.0791 -0.0049
12203W        W16603  24.118   0.054  31.660  0.0696  0.0737 -0.0312
12204W        W16604  22.182   3.052  25.572  0.0314 -0.0896 -0.0081
12205W        W16605   8.328   3.588  27.831 -0.1034 -0.0629 -0.1418
12206W        W16606  10.291   1.223  32.281 -0.1276 -0.0929  0.0150
12207W        W16607  13.213   6.535  10.355 -0.1233  0.0766  0.0013
12208W        W16608  11.688   2.825   5.083  0.3715 -0.0529 -0.1401
12209W        W16609  19.283   3.320  24.327 -0.1431  0.1078  0.0884
12210W        W16610   9.241   0.387  31.173  0.1537  0.0227 -0.0947
12211W        W16611  20.672   6.941   5.779  0.0752  0.2629  0.3003
12212W        W16612  12.823   0.068  11.824  0.0328 -0.3140  0.1141
12213W        W16613  24.354   2.767  16.761 -0.0931 -0.1926 -0.1789
12214W        W16614  23.484   4.152   0.909 -0.0780 -0.1335  0.0065
12215W        W16615  10.275   1.227  24.895 -0.1846 -0.0470  0.1237
12216W        W16616  21.668   2.230  16.968 -0.3196  0.0192 -0.0053
12217W        W16617   2.860   4.922  11.106 -0.0135 -0.2141  0.1282
12218W        W16618   3.019   7.404  25.686 -0.1129  0.0692 -0.0821
12219W        W16619  20.722   1.037  20.729  0.0208 -0.1162  0.1175
12220W        W16620  15.177   1.634   9.656  0.0120  0.1178 -0.1380
12221W        W16621  17.336   5.829   7.575 -0.2898  0.1237 -0.0844
12222W        W16622  12.080   0.493   7.432  0.0951 -0.5179  0.2131
12223W        W16623   4.420   3.173  21.737  0.1347  0.2107  0.2528
12224W        W16624   8.271   5.707   3.150 -0.1472 -0.0985 -0.0623
12225W        W16625   2.577   7.594   8.386 -0.1562  0.2748  0.0138
12226W        W16626  12.307   5.567   0.856 -0.3021 -0.0537  0.0334
12227W        W16627   3.707   0.229  31.435  0.1351 -0.0946 -0.4584
12228W        W16628   6.032   3.932   1.635  0.1283 -0.1423 -0.3251
12229W        W16629   7.251   1.811  14.043 -0.0808 -0.1559  0.0737
12230W        W16630   7.319   6.410  25.283  0.0194 -0.0488  0.0322
12231W        W16631   4.204   3.585   0.440  0.3124  0.2027  0.0235
12232W        W16632  18.471   4.219   3.277  0.0204  0.0680 -0.1254
12233W        W16633  11.721   3.289  32.604 -0.0378 -0.2947 -0.0073
12234W        W16634  15.345   2.168   7.690  0.0867  0.0935  0.3169
12235W        W16635  11.984   1.950  12.605  0.2924 -0.1222 -0.0713
12236W        W16636   4.391   0.036  13.941 -0.0498 -0.0665  0.0113
12237W        W16637  24.263   3.052   5.169 -0.2333  0.1767  0.2404
12238W        W16638   1.894   0.383  25.244 -0.3433  0.0418 -0.0689
12239W        W16639  11.668   2.160  16.269 -0.1423  0.1627 -0.1799
12240W        W16640  21.140   6.856  19.966 -0.1228  0.3455  0.3469
12241W        W16641  12.723   2.307   3.635 -0.0606 -0.0481 -0.1233
12242W        W16642   6.661   2.738   2.182  0.0520  0.0067  0.4128
12243W        W16643   5.934   0.193  12.483  0.0832  0.0004 -0.2416
12244W        W16644  19.743   6.452   6.658  0.2783  0.0554  0.0841
12245W        W16645   9.849   4.586   2.204  0.0433  0.0452  0.0147
12246W        W16646   6.821   7.099  29.857 -0.0219  0.1130  0.3070
12247W        W16647   8.521   5.370   7.681 -0.0957 -0.2064 -0.0660
12248W        W16648   1.781   3.539  10.111  0.1753 -0.2276 -0.0401
12249W        W16649   2.789   0.413  29.573 -0.0935  0.0208 -0.2846
12250W        W16650   0.719   3.696  27.922  0.1573  0.0464  0.0180
12251W        W16651  13.146   5.850   9.286  0.0790  0.1676  0.1493
12252W        W16652   8.633   5.847   5.954 -0.1371 -0.0078 -0.3369
12253W        W16653  24.046   3.812   8.755 -0.1041 -0.0417 -0.1308
12254W        W16654  18.854   7.296  28.588  0.0020  0.0764 -0.1243
12255W        W16655  23.106   2.049  29.150  0.1007  0.0984 -0.1046
12256W        W16656   0.128   5.727  31.141  0.3452 -0.2494  0.0933
12257W        W16657  19.624   4.149  15.172  0.0091  0.2747  0.0955
12258W        W16658  16.090   4.217  19.452  0.3491 -0.0660  0.1586
12259W        W16659   2.602   6.090   7.138 -0.1856 -0.1012 -0.2715
12260W        W16660  23.416   7.128  18.170 -0.2450 -0.1137 -0.2662
12261W        W16661   5.760   7.000   4.819 -0.0389  0.0485 -0.1345
12262W        W16662  12.410   6.797  11.569 -0.2280  0.1533  0.1018
12263W        W16663  24.936   1.485  27.100 -0.0204 -0.0837 -0.2669
12264W        W16664  22.423   7.150   6.870 -0.0379 -0.1038  0.1748
12265W        W16665   5.450   0.655  16.093  0.1573  0.1403  0.0568
12266W        W16666  10.511   4.930  11.479 -0.0325 -0.1727 -0.0813
12267W        W16667  16.533   6.257  29.189 -0.0359  0.0880  0.1074
12268W        W16668  18.207   1.702   3.353  0.2259  0.2081 -0.0139
12269W        W16669  14.978   2.089   9.798  0.0673  0.0574  0.0477
12270W        W16670  18.924   0.818  21.300 -0.1200  0.2681  0.0875
12271W        W16671  17.069   6.138  18.201  0.2455  0.0273 -0.0187
12272W        W16672   6.150   4.710   4.716 -0.0073  0.1506  0.1836
12273W        W16673   3.957   2.141  28.709 -0.0754 -0.0530 -0.5761
12274W        W16674   9.673   0.197  11.870 -0.1749 -0.1753 -0.3381
12275W        W16675   2.984   3.365   1.109 -0.2116  0.1216  0.1488
12276W        W16676  21.305   0.825  30.455 -0.1988  0.1416  0.1261
12277W        W16677  17.436   4.011  21.380  0.0288 -0.1067  0.1124
12278W        W16678  20.697   6.124  19.366  0.0717 -0.1120 -0.0655
12279W        W16679   5.483   0.811  12.099 -0.1906  0.1859 -0.0921
12280W        W16680  24.191   5.767  23.133 -0.0742  0.3124  0.0196
12281W        W16681  24.215   3.118   8.052  0.0066  0.0376  0.0319
12282W        W16682   4.817   1.678  10.724 -0.2432  0.0627  0.0693
12283W        W16683   8.553   1.805   2.310  0.1016  0.1692 -0.1998
12284W        W16684   4.031   0.545   4.938  0.1584  0.3999  0.0317
12285W        W16685  21.263   6.627   4.479 -0.0390  0.0353 -0.0017
12286W        W16686  14.970   3.971   4.957  0.4101  0.0148 -0.1233
12287W        W16687  13.658   5.591   9.337 -0.1369  0.0076  0.0599
12288W        W16688   7.946   2.612  12.645 -0.0327  0.0396  0.0846
12289W        W16689  13.154   1.953  24.165  0.1615  0.0582  0.1001
12290W        W16690  12.035   4.032  31.663  0.2869 -0.0083  0.0100
12291W        W16691   7.148   6.657  13.232 -0.2507 -0.1190  0.0817
12292W        W16692  14.870   2.405  11.296 -0.0361  0.1466  0.1448
12293W        W16693  13.926   1.526   7.798 -0.0829  0.1352 -0.0431
12294W        W16694  16.630   0.506  25.317  0.0862  0.0714 -0.2011
12295W        W16695   5.507   3.512  32.313 -0.0206 -0.0356 -0.1980
12296W        W16696   7.899   1.635  29.902  0.1657 -0.2451  0.0217
12297W        W16697  13.632   4.657  26.898  0.0101  0.0715  0.0674
12298W        W16698  12.835   5.124  21.547 -0.1744 -0.0229 -0.0961
12299W        W16699   3.836   6.998  13.318  0.2899  0.1064 -0.2240
12300W        W16700  18.933   4.975   5.590  0.0355  0.3328 -0.0898
12301W        W16701   8.258   2.824  26.826  0.1436 -0.1002 -0.1650
12302W        W16702  21.472   1.651  21.746 -0.0738 -0.1388  0.0588
12303W        W16703  13.966   5.955  12.469 -0.0171  0.0559  0.2449
12304W        W16704  10.940   6.928   9.911  0.1055  0.3173 -0.2294
12305W        W16705   8.492   7.241   4.194  0.0205  0.2520  0.0654
12306W        W16706   7.413   2.894  14.418 -0.0845  0.1337 -0.2071
12307W        W16707   9.033   5.325  18.123 -0.0024  0.2097 -0.0282
12308W        W16708  21.093   0.489  27.743  0.1921  0.2099 -0.0600
12309W        W16709   1.521   7.445  26.861  0.0872 -0.1583 -0.3279
12310W        W16710  22.921   0.657   0.703  0.0012 -0.3475  0.2654
12311W        W16711  13.074   7.607  25.517  0.0127 -0.3617  0.3918
12312W        W16712  20.632   2.681   6.414 -0.1200 -0.0692 -0.2342
12313W        W16713  11.125   6.827  23.203 -0.1021 -0.0475  0.0634
12314W        W16714   9.512   7.745  28.324  0.0377 -0.2938  0.0341
12315W        W16715  19.286   1.893   4.274 -0.0118 -0.0234  0.0285
12316W        W16716  11.219   1.568   6.267 -0.0442 -0.0517  0.2462
12317W        W16717   0.683   3.359   4.704  0.3733  0.0131  0.0664
12318W        W16718  17.147   5.198  22.247 -0.1154 -0.2176  0.1423
12319W        W16719   6.652   5.807   3.472  0.0702 -0.0012  0.1882
12320W        W16720  24.740   2.473  27.995 -0.0146  0.0497  0.0310
12321W        W16721  21.243   3.178  27.574 -0.0879 -0.3093  0.1204
12322W        W16722  14.003   6.441   9.116 -0.2081  0.2168  0.0345
12323W        W16723  12.192   6.903  25.480  0.0238 -0.0561  0.0030
12324W        W16724  13.172   6.037   9.726 -0.1668  0.0842 -0.2263
12325W        W16725  11.360   2.937  24.077 -0.3850  0.0694 -0.4059
12326W        W16726   1.926   0.521   6.735  0.0992 -0.1139  0.2393
12327W        W16727  10.502   0.365  17.675 -0.1539  0.0851 -0.0237
12328W        W16728  10.988   2.035  17.399  0.0607 -0.1949 -0.1419
12329W        W16729  19.278   2.761  26.150 -0.1178 -0.0586 -0.0041
12330W        W16730  10.273   3.714  26.458 -0.0427  0.3946  0.0454
12331W        W16731   8.038   6.941  12.691  0.0945  0.4797 -0.3292
12332W        W16732  12.087   0.009  11.235 -0.0272 -0.3733 -0.0334
12333W        W16733   1.508   5.537   2.215  0.0775 -0.0202  0.0088
12334W        W16734  17.930   0.092   4.500 -0.1791 -0.1845  0.2685
12335W        W16735  12.763   2.975  24.096  0.0320 -0.1278  0.3502
12336W        W16736   6.821   6.896   2.639  0.3066  0.0773  0.1267
12337W        W16737  13.980   4.739  28.465 -0.1751  0.2069 -0.0979
12338W        W16738  15.321   1.965   1.503 -0.1568  0.0424 -0.2068
12339W        W16739  23.521   6.071  15.138 -0.4857 -0.1445 -0.2052
12340W        W16740  18.385   5.714  22.780  0.0091  0.1996  0.2235
12341W        W16741  15.052   2.701   8.087  0.0932 -0.3690 -0.4075
12342W        W16742  20.531   0.470  17.864  0.0955 -0.1868 -0.2150
12343W        W16743  23.253   2.676   4.947  0.0321 -0.2815  0.2075
12344W        W16744  20.126   4.308  16.471  0.0323 -0.1510 -0.1666
12345W        W16745  12.317   4.180  26.933 -0.1427  0.1989 -0.2661
12346W        W16746  20.576   6.643  15.109 -0.0732  0.3083  0.0802
12347W        W16747  16.851   7.171   1.294  0.2036  0.0733 -0.1856
12348W        W16748  20.319   7.020  17.858 -0.0811 -0.0134 -0.0273
12349W        W16749   8.038   2.261   6.493  0.1665  0.0871 -0.0713
12350W        W16750  18.164   4.138  32.540  0.2057  0.2552  0.0371
12351W        W16751  11.015   5.899   1.233 -0.0094 -0.0496 -0.1723
12352W        W16752   4.364   3.870  27.809 -0.0186  0.0297 -0.1351
12353W        W16753  10.063   0.566  10.021 -0.5635 -0.1055  0.0003
12354W        W16754   5.527   4.268  10.336 -0.0395  0.0021 -0.1842
12355W        W16755   6.425   6.534  25.569  0.0555  0.0676  0.0539
12356W        W16756  11.056   3.966   9.504 -0.1369  0.1130 -0.1424
12357W        W16757  16.961   5.608   7.243 -0.0059 -0.3454  0.1309
12358W        W16758   9.438   4.067  32.631  0.2772  0.0510 -0.0841
12359W        W16759   7.054   0.797   3.081  0.0056 -0.1681 -0.0001
12360W        W16760  10.184   7.217  16.107 -0.1336 -0.1593  0.1676
12361W        W16761  11.074   2.090   3.524  0.2295  0.0833 -0.1038
12362W        W16762  15.717   5.474   2.045 -0.0157  0.0352  0.0733
12363W        W16763   9.571   6.575  27.327  0.0107 -0.2625  0.4514
12364W        W16764  11.792   1.481  29.706 -0.1079 -0.1819  0.0888
12365W        W16765  15.385   0.213   5.926  0.2594 -0.3077 -0.0116
12366W        W16766  22.531   5.940   0.145 -0.0566  0.2605  0.0314
12367W        W16767   8.847   2.774  27.619 -0.2960  0.2682  0.0713
12368W        W16768  10.009   4.548  22.990 -0.0586  0.0945  0.0887
12369W        W16769  13.383   0.414   7.595  0.2622  0.1253  0.1428
12370W        W16770   3.435   0.070  12.949 -0.1712  0.1946  0.0148
12371W        W16771  18.534   2.344  10.149  0.0136  0.2129  0.1516
12372W        W16772   9.066   7.035  13.412 -0.0635  0.0392 -0.0876
12373W        W16773  19.004   3.138  21.102 -0.2660 -0.3989  0.2228
12374W        W16774   3.731   2.750   9.499 -0.0723  0.1407  0.2639
12375W        W16775  23.460   1.250  24.348 -0.1291 -0.0634 -0.1171
12376W        W16776  16.803   7.276   8.800  0.0261  0.2886  0.0226
12377W        W16777  14.916   6.138  28.041 -0.1639 -0.3206  0.1662
12378W        W16778  17.907   3.578  24.565 -0.4194  0.2101 -0.0085
12379W        W16779   1.471   7.289  21.140  0.0438 -0.0303  0.0013
12380W        W16780   3.725   5.873  22.624 -0.0566  0.1620 -0.1866
12381W        W16781   4.129   6.542  24.846 -0.1429  0.0098  0.1791
12382W        W16782  17.406   3.099  22.903  0.0583 -0.3383  0.0822
12383W        W16783  16.074   2.342  11.195  0.1323 -0.0998  0.0815
12384W        W16784   3.635   6.677  32.055 -0.3553  0.3033 -0.5738
12385W        W16785   5.982   3.497   8.088  0.0264 -0.1668 -0.1406
12386W        W16786   3.210   4.457  23.367  0.0234  0.0210  0.0393
12387W        W16787  19.747   2.847  31.674 -0.0915 -0.1853  0.1644
12388W        W16788   6.030   7.742  25.203  0.0419  0.3022  0.2038
12389W        W16789  11.303   5.937   6.323 -0.1226  0.2095  0.1556
12390W        W16790   9.471   3.769   9.623 -0.0859  0.2422  0.2517
12391W        W16791   7.089   1.356   7.999  0.0934  0.1476  0.1805
12392W        W16792  18.214   0.023  17.526  0.0827 -0.4156 -0.2036
12393W        W16793  11.974   0.811  32.369  0.1375  0.0776  0.1497
12394W        W16794  23.347   7.046   8.555  0.3038  0.1085 -0.0020
12395W        W16795  17.143   1.347  31.702  0.0692 -0.0832  0.0616
12396W        W16796  16.314   2.628   8.024 -0.3348  0.0187 -0.1605
12397W        W16797   5.250   7.343  14.206  0.1919  0.1066  0.3277
12398W        W16798  17.965   3.849   8.959 -0.0834  0.0272 -0.3809
12399W        W16799   4.831   3.464   1.785  0.0208  0.4229  0.0855
12400W        W16800  19.487   3.590   0.149 -0.3096  0.4687  0.1392
12401W        W16801  15.042   6.880   1.482 -0.0090  0.1986 -0.2200
12402W        W16802  20.752   2.230  25.450 -0.0632 -0.2769  0.0710
12403W        W16803   3.175   4.080  24.519  0.0540  0.1343  0.0835
12404W        W16804  12.227   3.454  29.353 -0.1111  0.0910 -0.1325
12405W        W16805  18.257   6.627  25.892  0.0272  0.3130 -0.1420
12406W        W16806  10.324   2.418  27.540 -0.2688  0.0090  0.0882
12407W        W16807   0.600   4.342   9.504  0.1765  0.0800  0.1085
12408W        W16808   3.730   4.104   5.201  0.1463 -0.0454  0.2996
12409W        W16809  18.946   3.817   9.529 -0.0759 -0.2303  0.1707
12410W        W16810  15.998   6.490   4.252 -0.3767 -0.2061 -0.2101
12411W        W16811  23.240   3.361  19.434 -0.1310  0.0936 -0.1801
12412W        W16812   8.138   2.188   4.790 -0.0124 -0.1921 -0.0912
12413W        W16813   2.593   1.015   4.217 -0.3572 -0.0599 -0.0807
12414W        W16814  18.739   4.622   9.662  0.2932  0.0157 -0.0936
12415W        W16815   3.647   5.650  12.103  0.3323 -0.3044  0.0641
12416W        W16816  19.497   5.378  30.868 -0.2127  0.0476  0.1748
12417W        W16817  24.642   7.611  28.586 -0.1216  0.1331  0.1081
12418W        W16818   7.858   6.612   5.997 -0.2457  0.2380  0.2046
12419W        W16819  24.381   7.449  21.073  0.1152 -0.3934  0.2589
12420W        W16820  10.653   4.446  10.667 -0.4218  0.3110  0.0594
12421W        W16821   8.700   5.966   0.915 -0.0004 -0.1444 -0.0948
12422W        W16822  15.187   0.984   5.437 -0.1210 -0.2782 -0.0507
12423W        W16823   9.001   5.804  27.569 -0.1633 -0.3235 -0.1522
12424W        W16824  13.776   2.302  21.717  0.0728  0.0500 -0.1654
12425W        W16825   2.174   4.482  25.747  0.0761 -0.3165  0.0755
12426W        W16826  20.240   2.545  15.032 -0.2257  0.0517 -0.1240
12427W        W16827   5.112   0.604  24.350 -0.1617 -0.0004 -0.1183
12428W        W16828   3.288   4.623  31.119 -0.1501 -0.0315  0.2726
12429W        W16829   3.923   2.482  13.996 -0.2341  0.5723 -0.0518
12430W        W16830  24.666   5.566   9.604  0.1566 -0.0093  0.0287
12431W        W16831  10.393   3.176   2.966 -0.0387 -0.0101 -0.0773
12432W        W16832  24.766   6.119  17.374 -0.0395 -0.1469 -0.1663
12433W        W16833  24.371   6.711  16.746 -0.0410  0.4252  0.1939
12434W        W16834   0.995   0.957   5.174  0.0774  0.0391  0.2197
12435W        W16835  13.091   2.294  29.240 -0.0183  0.1778 -0.1879
12436W        W16836  20.224   4.511  31.603  0.0931  0.2189  0.1194
12437W        W16837  16.371   3.469  28.662 -0.1530 -0.2563 -0.1794
12438W        W16838  19.580   3.107   4.181 -0.1371 -0.0736 -0.1120
12439W        W16839  15.076   7.810   8.218 -0.1880 -0.1224  0.1170
12440W        W16840   4.899   7.664   8.023  0.0723  0.0566  0.0191
12441W        W16841  22.467   2.441   4.437  0.1530  0.1239 -0.0674
12442W        W16842  15.746   3.911   6.173  0.2131  0.2287  0.1372
12443W        W16843   1.671   1.886  21.770  0.2312 -0.0334 -0.0831
12444W        W16844   9.119   0.313  11.760  0.2706  0.1097  0.0659
12445W        W16845   6.469   0.493  23.019 -0.0926 -0.2827 -0.0830
12446W        W16846  11.393   0.971  18.094 -0.0398  0.1369 -0.0301
12447W        W16847   9.042   5.069  14.209 -0.1001 -0.0155 -0.0843
12448W        W16848   2.450   3.633  27.773 -0.1982 -0.3498  0.1727
12449W        W16849  15.251   1.141   6.800  0.0656 -0.0212  0.4658
12450W        W16850  20.818   2.427   3.654 -0.3536  0.1268 -0.0309
12451W        W16851   3.805   2.813  27.372  0.0101  0.0271  0.2854
12452W        W16852  12.091   7.732   5.978 -0.1223  0.0612  0.2331
12453W        W16853  14.174   4.923  31.508  0.3054 -0.0369 -0.1583
12454W        W16854  17.716   1.736  28.457 -0.1635  0.2231  0.1509
12455W        W16855  20.933   5.820  15.755  0.2482  0.2188  0.3294
12456W        W16856  22.629   1.089   7.853  0.1882 -0.0585 -0.2960
12457W        W16857  23.225   1.361   0.996  0.2405 -0.2262  0.2315
12458W        W16858  24.951   3.861  19.507  0.0734  0.0471  0.1545
12459W        W16859  24.226   1.431  23.139 -0.0595 -0.0003 -0.1860
12460W        W16860   4.043   3.304  23.000  0.0205  0.1076 -0.0774
12461W        W16861   9.933   0.665   7.574  0.1515 -0.1522  0.5004
12462W        W16862  19.371   4.845   0.962  0.1753  0.1430  0.1375
12463W        W16863  21.644   4.594  26.334 -0.0779  0.0511  0.0696
12464W        W16864  23.939   1.114   6.195  0.2500  0.0159  0.0622
12465W        W16865  19.245   3.038  21.571  0.5443  0.0212  0.1660
12466W        W16866  22.965   4.592  26.449 -0.2246 -0.1558 -0.0252
12467W        W16867   6.213   3.339  11.403  0.1496  0.1634 -0.0007
12468W        W16868   1.387   4.591   7.298 -0.3259 -0.0333 -0.0762
12469W        W16869  11.819   2.958   7.856 -0.1126  0.0782  0.3802
12470W        W16870  17.467   4.881   9.178 -0.0780 -0.1512  0.0868
12471W        W16871   2.273   3.181   2.026  0.2415  0.0878  0.3029
12472W        W16872   5.780   5.963  25.324 -0.1164  0.3732  0.0491
12473W        W16873   6.493   4.392  15.258 -0.2729  0.2987  0.1417
12474W        W16874  24.227   3.698  21.691 -0.3051  0.1728 -0.0496
12475W        W16875  20.752   4.969  28.862 -0.1082 -0.0840 -0.0004
12476W        W16876  14.048   2.655  12.122 -0.1414 -0.0621 -0.0958
12477W        W16877  19.906   4.783   9.856  0.3545 -0.7415 -0.1134
12478W        W16878   8.610   5.197  24.736  0.2057 -0.1174  0.1902
12479W        W16879  21.985   5.910  20.879  0.0117  0.0398  0.0331
12480W        W16880   0.452   0.772  30.229  0.5668 -0.0018  0.1236
12481W        W16881   5.035   7.460  23.841  0.0726 -0.0338  0.2021
12482W        W16882  20.407   7.401  29.244 -0.1480 -0.0453  0.1207
12483W        W16883   6.853   0.904  15.061  0.3855  0.1389  0.1146
12484W        W16884  13.212   5.517  13.453  0.0139 -0.1402  0.0755
12485W        W16885   4.890   4.490   6.465 -0.3132  0.1855 -0.3387
12486W        W16886  12.454   3.517  32.616 -0.0944  0.2029  0.3984
12487W        W16887  17.604   5.430  25.916 -0.3317 -0.1717 -0.0030
12488W        W16888  24.955   2.032  27.836  0.0403 -0.0214  0.2956
12489W        W16889  19.333   3.625   2.490 -0.1763  0.3692 -0.0523
12490W        W16890  23.815   4.171  29.016  0.0474  0.4369  0.0709
12491W        W16891  13.104   7.427  11.227  0.1065  0.3008 -0.0097
12492W        W16892   3.425   0.729  24.604  0.0167 -0.0824 -0.0227
12493W        W16893  20.243   2.381  17.953 -0.0136  0.1179 -0.1594
12494W        W16894   1.411   2.356   6.828  0.0742  0.0717 -0.2172
12495W        W16895  19.368   4.627  23.276 -0.4005 -0.1475 -0.1565
12496W        W16896   0.366   2.927  21.099 -0.1590  0.0630 -0.0397
12497W        W16897   5.678   1.847   5.727 -0.1911 -0.2191 -0.2600
12498W        W16898   3.779   3.771  23.661 -0.0918 -0.2863 -0.1992
12499W        W16899  17.664   7.825   5.906  0.1928 -0.1165 -0.1874
12500W        W16900  10.980   2.895   0.533 -0.1081  0.0514  0.0612
12501W        W16901  10.782   5.639  26.109  0.0358 -0.1162  0.1825
12502W        W16902   1.264   1.815  30.252  0.0918  0.1071  0.1105
12503W        W16903   5.055   2.287   1.098  0.0890 -0.2899  0.1053
12504W        W16904  14.168   3.115  28.065  0.1422 -0.1371 -0.2837
12505W        W16905  18.180   6.330  10.210 -0.4551 -0.1644  0.0321
12506W        W16906  20.822   0.882  26.896 -0.0420  0.0452  0.1215
12507W        W16907  12.806   0.978  28.383  0.0995  0.1377 -0.0090
12508W        W16908  18.987   0.046  30.229 -0.1999 -0.1598  0.0941
12509W        W16909  23.021   3.717   9.876 -0.0618  0.0516 -0.1019
12510W        W16910  12.899   1.575  12.450 -0.3595  0.1465 -0.1347
12511W        W16911   3.993   2.046  26.740 -0.1620  0.2394 -0.0843
12512W        W16912   1.522   0.220  11.688  0.1317 -0.0474 -0.1043
12513W        W16913   5.290   3.999   5.920 -0.3384 -0.0168 -0.1848
12514W        W16914  20.748   2.299  21.970 -0.0506 -0.0327  0.2201
12515W        W16915   1.240   0.224   4.457 -0.0823 -0.0742 -0.0940
12516W        W16916  12.729   5.148  23.063  0.0727 -0.0983 -0.1407
12517W        W16917   7.099   2.057  26.563 -0.0246 -0.1006  0.2644
12518W        W16918  24.563   2.530   8.597 -0.0869 -0.3342  0.1975
12519W        W16919  23.150   6.483  30.072  0.3729  0.1481  0.0304
12520W        W16920   8.072   5.452  11.752 -0.1034  0.1961 -0.3264
12521W        W16921   1.468   6.707  23.751 -0.0170  0.0902  0.0536
12522W        W16922  10.311   6.058  30.214  0.2823 -0.1770 -0.2731
12523W        W16923  14.821   0.069  13.875 -0.2938  0.1813 -0.0406
12524W        W16924   2.876   7.466   8.009 -0.1620 -0.0734  0.0733
12525W        W16925   9.886   7.079   0.437 -0.0690  0.1026  0.0526
12526W        W16926   4.693   5.891   2.544 -0.0055 -0.0401  0.1071
12527W        W16927   8.842   5.255  30.487 -0.0468  0.2611  0.0628
12528W        W16928   5.209   5.974   2.578 -0.0751  0.2654  0.3272
12529W        W16929   4.922   0.871   2.435  0.0726  0.1316 -0.0342
12530W        W16930  18.548   6.186  24.150  0.3856 -0.2844 -0.0537
12531W        W16931  12.323   6.894   4.914 -0.2226  0.0026 -0.0984
12532W        W16932   6.607   4.430   9.561 -0.3092 -0.1453  0.0699
12533W        W16933  24.112   4.680  18.899  0.1121  0.0762  0.1630
12534W        W16934  18.303   4.388  15.959 -0.1952  0.1130  0.2465
12535W        W16935  21.118   3.482  25.406  0.0152 -0.3128  0.0784
12536W        W16936  20.645   6.741  25.365  0.0540 -0.0618  0.1369
12537W        W16937  11.118   1.504  26.335 -0.0906 -0.1284  0.5055
12538W        W16938  23.418   5.279  16.475 -0.1001 -0.3374  0.3060
12539W        W16939  15.530   4.443  22.562  0.1391 -0.0729 -0.0586
12540W        W16940  20.176   6.158  10.460 -0.0060  0.3270 -0.1217
12541W        W16941   6.222   3.784   9.749  0.1396  0.1176  0.0267
12542W        W16942  15.368   4.365   1.352 -0.1458 -0.0530  0.1712
12543W        W16943   8.898   5.534   4.462 -0.0904  0.2685  0.1472
12544W        W16944   3.594   5.755   5.644  0.1874 -0.1720 -0.1407
12545W        W16945   0.660   0.076   5.051 -0.4027  0.1141 -0.0097
12546W        W16946   7.028   5.430  26.144  0.1148 -0.0520 -0.0502
12547W        W16947  22.157   1.111  31.119 -0.1147 -0.1618 -0.1160
12548W        W16948   2.730   7.167   0.102 -0.2292  0.0613 -0.1407
12549W        W16949  12.543   5.306  13.459 -0.0560  0.1290  0.1543
12550W        W16950  16.935   2.590  11.859 -0.0439  0.1961 -0.0675
12551W        W16951  16.445   7.135  22.227  0.2774 -0.1498  0.2102
12552W        W16952   7.217   0.426   5.464 -0.2920  0.0940 -0.1060
12553W        W16953   1.999   5.014   5.293  0.0281  0.0078  0.1583
12554W        W16954   2.189   3.474  26.939 -0.2108  0.0449  0.2121
12555W        W16955  22.818   2.030  16.063  0.1225 -0.2948  0.0675
12556W        W16956   3.498   0.189   3.208 -0.0644 -0.1776 -0.2308
12557W        W16957   5.704   5.173  32.366 -0.1624 -0.1331  0.3261
12558W        W16958   0.603   4.019   2.462  0.0160 -0.2595 -0.1919
12559W        W16959   2.226   5.503   0.694 -0.2526  0.3079  0.1297
12560W        W16960   7.191   7.181   1.880 -0.1091  0.2524 -0.1295
12561W        W16961  11.546   2.244   2.656  0.2327 -0.1382  0.0512
12562W        W16962   9.393   6.766  26.063 -0.0277 -0.1516 -0.0835
12563W        W16963  22.536   7.702  32.254 -0.0192  0.1595 -0.1128
12564W        W16964   7.919   1.738  23.556  0.0747 -0.0800  0.0086
12565W        W16965  10.142   6.086  16.239 -0.1699  0.1620 -0.2671
12566W        W16966   4.501   2.314   8.052  0.2049  0.1382  0.0675
12567W        W16967  15.801   3.988  26.132 -0.0411 -0.1284 -0.0092
12568W        W16968   7.179   5.575   0.508  0.1615 -0.0128 -0.3632
12569W        W16969   2.605   1.701  30.357  0.2734 -0.1894  0.1728
12570W        W16970  22.871   0.946   7.411 -0.1778  0.2468  0.3441
12571W        W16971  19.862   1.128  27.637 -0.0868  0.1295 -0.0482
12572W        W16972  10.050   0.228   6.458  0.0366 -0.0091  0.1593
12573W        W16973   9.995   5.530  30.562 -0.2823  0.0849 -0.1422
12574W        W16974  12.300   0.151  25.367 -0.1782 -0.2394  0.0408
12575W        W16975  24.766   0.378   5.191 -0.1311 -0.0296  0.1129
12576W        W16976   2.614   5.112  10.097  0.0130  0.0623 -0.0565
12577W        W16977   2.611   6.410  24.807 -0.2570  0.0213  0.0368
12578W        W16978  23.343   6.239  18.081  0.0019 -0.0073  0.2180
12579W        W16979  21.541   7.073   9.365  0.0896  0.1937 -0.0179
12580W        W16980  18.253   2.267  23.499  0.0920  0.0382 -0.1658
12581W        W16981  11.451   1.043  31.639  0.0894  0.2321 -0.0171
12582W        W16982   4.370   4.254  22.733  0.1187 -0.2156 -0.2333
12583W        W16983   9.140   2.167  14.399 -0.0980 -0.0805 -0.0957
12584W        W16984  16.550   5.014  17.819  0.0868  0.1123  0.2772
12585W        W16985   9.764   0.792  32.151  0.0205 -0.0847  0.1906
12586W        W16986  19.840   2.474  19.185 -0.1386  0.1011  0.0689
12587W        W16987   6.511   3.490   3.563  0.2367 -0.3685 -0.1381
12588W        W16988   4.290   0.197   7.979 -0.5123 -0.0347  0.0859
12589W        W16989  21.441   6.962   1.584  0.0833  0.1445  0.0662
12590W        W16990  15.481   2.076  25.030  0.3192  0.0463  0.2893
12591W        W16991  14.179   5.091  12.768  0.3197  0.1295  0.2583
12592W        W16992  22.982   3.193  27.668  0.1937  0.0837  0.1886
12593W        W16993  14.365   4.007  25.115 -0.0040  0.1579 -0.3232
12594W        W16994  20.662   6.740   9.567  0.1671  0.0613 -0.0455
12595W        W16995  14.261   7.013   2.517 -0.0966 -0.0920 -0.0314
12596W        W16996  17.655   5.725   8.954 -0.2018 -0.0740 -0.3154
12597W        W16997   7.790   5.979   2.962  0.1490  0.0305  0.3359
12598W        W16998  22.992   4.454   8.235  0.1678  0.0236  0.3898
12599W        W16999  15.887   2.703   3.947  0.0519  0.4167 -0.0508
12600W        W17000  20.704   4.382  19.799 -0.0522 -0.1764  0.0592
12601W        W17001  22.730   4.094  26.627  0.1639  0.1226 -0.1452
12602W        W17002  20.973   7.261   4.799 -0.0724  0.2208  0.1944
12603W        W17003   7.601   1.234  17.012 -0.0720  0.0530  0.2450
12604W        W17004  12.290   2.305   8.103 -0.1237  0.1910 -0.0592
12605W        W17005   2.829   1.430  20.693 -0.0604 -0.1331  0.6009
12606W        W17006   2.489   3.121  27.057  0.1149  0.0961  0.0847
12607W        W17007  17.777   1.048   5.471  0.1023 -0.0791  0.0266
12608W        W17008  21.421   7.815   3.387  0.0352  0.0412  0.2510
12609W        W17009  17.215   6.493  30.813 -0.1051  0.0646  0.2166
12610W        W17010  13.446   5.140   0.431  0.0858 -0.0678  0.0291
12611W        W17011  22.395   0.720  19.567 -0.0470  0.3657  0.4021
12612W        W17012  24.614   0.426  25.928  0.2553  0.3131 -0.0079
12613W        W17013  23.919   4.184   0.668  0.1764  0.0206  0.6269
12614W        W17014  20.752   4.532   6.784 -0.1218 -0.0500  0.2277
12615W        W17015  14.147   6.505  26.037  0.2101  0.0447  0.2407
12616W        W17016  14.291   7.437   5.143 -0.1083  0.1724 -0.1334
12617W        W17017   8.307   4.002  23.544 -0.0876 -0.1044  0.1123
12618W        W17018  19.527   4.304  24.149 -0.2059  0.0221  0.3526
12619W        W17019  15.184   4.504   5.085 -0.0450  0.2375  0.3064
12620W        W17020  17.588   3.975  23.058  0.0092 -0.1164  0.1199
12621W        W17021  17.967   6.981  29.515  0.0721 -0.1562 -0.1381
12622W        W17022  14.138   5.556   9.828  0.0875 -0.0276  0.0285
12623W        W17023  21.254   5.717  30.208 -0.0698 -0.1357  0.3508
12624W        W17024  18.789   4.215   0.300  0.0792  0.2688  0.1146
12625W        W17025   8.915   3.970  14.982  0.0543 -0.2988 -0.0949
12626W        W17026   7.841   5.937  30.948  0.1796 -0.3345  0.0482
12627W        W17027   8.187   3.809  25.551  0.2363 -0.0977 -0.2006
12628W        W17028  17.459   0.408  25.729  0.2172 -0.5347 -0.1935
12629W        W17029   3.370   2.531  23.151 -0.0689  0.2065  0.5029
12630W        W17030   2.543   5.653  31.410 -0.1294 -0.0879  0.3575
12631W        W17031  23.442   1.269  17.110 -0.1801  0.2419  0.2569
12632W        W17032   8.665   2.039  12.145 -0.1054 -0.1199  0.1583
12633W        W17033   5.537   0.033  28.615  0.3455  0.1195  0.1090
12634W        W17034   1.442   2.169  30.555 -0.2506 -0.2782  0.3264
12635W        W17035   5.385   6.809  22.024 -0.1999 -0.1573  0.1355
12636W        W17036   0.372   5.511  10.259 -0.3219 -0.1220  0.0461
12637W        W17037  16.742   1.974   4.788 -0.0112  0.0570 -0.1482
12638W        W17038  22.671   4.213  19.843  0.2751  0.1677 -0.1805
12639W        W17039  20.173   3.199   8.289  0.0909 -0.1947  0.0406
12640W        W17040   9.804   6.017  14.142  0.0313 -0.0042  0.1355
12641W        W17041  10.631   7.738   2.272 -0.2071  0.1357 -0.4334
12642W        W17042  12.233   6.157  29.919 -0.0431 -0.1230  0.0532
12643W        W17043  24.280   1.248   9.291 -0.0047  0.2826  0.2820
12644W        W17044  18.960   6.737  25.409  0.0560  0.1788 -0.0355
12645W        W17045  13.539   3.132  20.386  0.2276 -0.3255 -0.1016
12646W        W17046  16.660   1.957   2.343  0.0845  0.0912  0.0032
12647W        W17047  20.526   6.955   7.613 -0.0672  0.0033 -0.1470
12648W        W17048  18.071   0.151  22.683 -0.2510 -0.2572  0.1493
12649W        W17049   7.256   5.740  29.027 -0.0754  0.1349 -0.0208
12650W        W17050  24.994   3.768   4.257 -0.3147 -0.1211  0.2530
12651W        W17051   4.463   2.572  32.369  0.1914  0.2003  0.1716
12652W        W17052  20.238   2.130  16.549 -0.0237 -0.0133  0.0392
12653W        W17053  22.751   0.291   8.549 -0.1913 -0.0100 -0.0251
12654W        W17054   2.477   1.844   6.369 -0.1022  0.0878  0.0278
12655W        W17055  15.087   1.663   3.999 -0.0942 -0.3609  0.1079
12656W        W17056  24.123   4.267  22.468  0.1832  0.4302  0.2559
12657W        W17057   7.898   6.345  31.408 -0.2541  0.1226  0.2240
12658W        W17058  22.276   6.296  28.776 -0.0997  0.1180 -0.1153
12659W        W17059   1.476   0.917   7.562  0.0612 -0.2392 -0.1750
12660W        W17060  15.208   6.185  29.752  0.1878  0.0903  0.0965
12661W        W17061   4.175   1.781   5.503  0.1087 -0.0854  0.0085
12662W        W17062  15.339   6.398  19.553 -0.1142 -0.0831  0.1912
12663W        W17063   6.965   3.241   1.983  0.1494  0.0937  0.2741
12664W        W17064   1.426   4.923  27.620  0.5813  0.0825 -0.0794
12665W        W17065  11.836   4.875  10.765 -0.0519 -0.2385  0.0566
12666W        W17066   3.864   6.693  23.542  0.2841  0.3321 -0.0765
12667W        W17067  13.457   3.381  10.522 -0.0047  0.1439  0.3464
12668W        W17068  25.027   1.208  21.045 -0.2205  0.1329 -0.0447
12669W        W17069  20.755   4.606  15.209 -0.3344  0.2017 -0.1041
12670W        W17070   6.472   3.129  16.337  0.1639  0.0078 -0.0042
12671W        W17071  23.404   1.432  27.403 -0.0584 -0.0694  0.2150
12672W        W17072   8.567   1.201  14.308  0.1917 -0.2501  0.0300
12673W        W17073  18.978   3.929   5.034 -0.0062 -0.1351  0.2576
12674W        W17074  13.238   4.261  10.309  0.1398  0.0862 -0.0988
12675W        W17075   5.780   1.199  32.110  0.2074  0.0648 -0.0423
12676W        W17076   4.615   4.290  27.709  0.0553  0.2309 -0.0507
12677W        W17077   5.569   2.147   8.310 -0.1072 -0.0961 -0.3362
12678W        W17078  20.841   4.818   0.586 -0.0870 -0.0077  0.1372
12679W        W17079  23.666   5.746  27.219 -0.0933  0.3788  0.1452
12680W        W17080   8.342   5.107  31.322  0.0848  0.0219  0.1155
12681W        W17081  15.328   6.001  31.422  0.2010 -0.0713 -0.0697
12682W        W17082   0.233   3.124  16.972 -0.0939  0.0116 -0.0832
12683W        W17083   4.447   2.154   9.128 -0.3579  0.0390  0.0811
12684W        W17084   4.418   3.374  27.967 -0.5671 -0.0288  0.0326
12685W        W17085  17.806   6.622   9.283  0.1475  0.1939 -0.2420
12686W        W17086  23.488   2.465   4.618  0.0514  0.2801  0.2002
12687W        W17087   3.194   1.335  13.252  0.1121  0.0210 -0.1543
12688W        W17088  18.989   7.647   5.624 -0.0263 -0.1699 -0.0867
12689W        W17089  14.923   7.043   0.259 -0.1812  0.0412  0.1475
12690W        W17090  21.151   3.084  30.229 -0.2534  0.0246 -0.0499
12691W        W17091  10.415   0.696  12.912 -0.0131  0.1142 -0.1508
12692W        W17092  20.605   7.685  16.293  0.0493 -0.1364 -0.0236
12693W        W17093   7.629   6.612  18.661  0.2654  0.1374 -0.1643
12694W        W17094   3.368   6.634   9.368 -0.0701  0.0519  0.2542
12695W        W17095  14.727   0.541   0.417 -0.0552  0.0419  0.1459
12696W        W17096  13.584   7.430  30.397  0.0017 -0.2011 -0.0406
12697W        W17097   6.219   3.339  26.730  0.1368 -0.0405  0.0810
12698W        W17098  19.551   2.835  27.143 -0.2209  0.2795 -0.2769
12699W        W17099  15.209   6.501  29.384 -0.1790 -0.1435  0.1271
12700W        W17100  17.539   6.357  25.456 -0.0394  0.3184 -0.1408
12701W        W17101   8.066   0.581  13.947  0.2409  0.2426  0.1650
12702W        W17102  21.951   6.409  14.420  0.4445 -0.3152 -0.0069
12703W        W17103  17.976   4.091  27.228 -0.0296 -0.2593 -0.0743
12704W        W17104  15.945   0.266  30.937 -0.1758 -0.2753 -0.2839
12705W        W17105   2.891   7.310  12.447 -0.2615 -0.1374  0.1075
12706W        W17106  17.188   2.242   7.326 -0.1936  0.1905 -0.1232
12707W        W17107   1.790   0.335   8.829  0.0217  0.1360  0.0116
12708W        W17108  14.989   0.865  25.246 -0.1259  0.0900 -0.0934
12709W        W17109  17.882   4.234  20.080  0.1236 -0.1069 -0.1166
12710W        W17110   6.864   2.173   2.909  0.2283  0.2400  0.0004
12711W        W17111  24.573   1.353   2.212 -0.2631  0.5308  0.1387
12712W        W17112  21.660   1.165  27.021  0.0450  0.0761 -0.0421
12713W        W17113  18.322   3.490   5.066 -0.0862 -0.1109 -0.0536
12714W        W17114  13.212   6.290  31.894  0.1677  0.3312 -0.0078
12715W        W17115   9.987   2.206  27.986 -0.0322 -0.0502 -0.4617
12716W        W17116  15.865   6.933   7.075  0.0050 -0.0062  0.0005
12717W        W17117   6.282   4.296   5.797  0.1124 -0.2448 -0.1250
12718W        W17118  16.676   1.199  22.011 -0.2848 -0.0555 -0.3186
12719W        W17119  16.712   1.205  19.259  0.3196 -0.0238 -0.0722
12720W        W17120  20.168   4.202  17.184 -0.0763  0.2286 -0.1973
12721W        W17121  19.046   7.728  15.334 -0.0704  0.2175 -0.3068
12722W        W17122   5.228   6.305  22.959 -0.0431  0.3503 -0.0020
12723W        W17123  19.730   5.501  29.886  0.1128 -0.1202 -0.0317
12724W        W17124  20.790   7.139  26.502 -0.2412  0.1326 -0.0508
12725W        W17125   3.532   0.411   1.844  0.0632 -0.2392  0.0014
12726W        W17126  23.316   6.929   6.876  0.1019 -0.2091  0.1047
12727W        W17127   9.909   4.845  28.206 -0.0538  0.3748  0.0240
12728W        W17128   8.570   2.188  28.828 -0.1942  0.2665  0.1840
12729W        W17129   4.125   4.775   0.026  0.0103  0.0745 -0.0028
12730W        W17130   6.005   3.553   7.542 -0.0417 -0.0438 -0.1825
12731W        W17131   2.808   5.823   8.282 -0.0669  0.1274  0.3872
12732W        W17132   4.286   5.768  22.106 -0.1110 -0.0561 -0.0473
12733W        W17133   8.809   1.707  31.925  0.1298  0.2431  0.0073
12734W        W17134   3.582   4.936   9.029  0.0057  0.0202 -0.2652
12735W        W17135  11.907   3.739   9.246 -0.1155 -0.0571  0.1183
12736W        W17136  18.492   3.399   5.871  0.0410  0.1701  0.0152
12737W        W17137  15.303   5.712   8.103 -0.2689 -0.0642  0.0388
12738W        W17138   4.922   6.128   7.200  0.0473  0.2696  0.0478
12739W        W17139  16.942   2.657  21.580 -0.2334 -0.1061 -0.2023
12740W        W17140  12.158   7.122  32.455  0.0758 -0.0809 -0.1970
12741W        W17141  10.610   4.428  10.167  0.0044 -0.0359  0.1064
12742W        W17142   6.623   1.550  29.048 -0.1344 -0.0346 -0.0946
12743W        W17143  24.415   4.750  29.922 -0.0287 -0.1449  0.1643
12744W        W17144   6.558   3.885  22.003 -0.1686  0.0440 -0.0718
12745W        W17145   4.246   5.403  23.653  0.1187  0.0222  0.3917
12746W        W17146  20.411   5.987  31.478 -0.1157 -0.4045 -0.1596
12747W        W17147   7.495   1.926  24.354  0.0673  0.2205 -0.2438
12748W        W17148   6.163   4.368  13.338  0.2948  0.1028  0.0068
12749W        W17149  23.499   1.949  32.459 -0.0240 -0.0544  0.1678
12750W        W17150   7.740   1.727  12.191  0.1733  0.2527  0.1032
12751W        W17151  10.539   5.062  14.531  0.0538 -0.1316  0.0957
12752W        W17152  24.595   4.474  31.752 -0.2736 -0.0053 -0.0511
12753W        W17153   0.236   6.127  22.166  0.1089  0.0630 -0.0355
12754W        W17154   7.064   1.166  14.554 -0.0334 -0.0774  0.2720
12755W        W17155   4.651   4.142   3.588 -0.0150  0.0095  0.2932
12756W        W17156  10.923   2.878  26.741 -0.3595  0.0893 -0.0708
12757W        W17157  13.798   5.552  30.231  0.1214  0.1998 -0.0108
12758W        W17158  23.841   2.307  32.199  0.1176  0.0143  0.2748
12759W        W17159   4.022   1.272  14.546  0.0906 -0.0532 -0.0231
12760W        W17160  16.136   3.806  30.220  0.1530  0.0324 -0.4367
12761W        W17161   4.261   0.732  15.809  0.0641 -0.1331 -0.1686
12762W        W17162  17.848   4.755   6.483  0.1088  0.4237  0.1406
12763W        W17163   1.030   3.272  18.058  0.4190  0.0260  0.1180
12764W        W17164  13.891   7.291  20.724  0.0968  0.0179  0.0832
12765W        W17165  20.299   5.625  28.129  0.2627 -0.3163  0.0810
12766W        W17166   9.818   6.046   6.315 -0.2474  0.1631  0.2190
12767W        W17167   4.924   0.208  27.748 -0.2621  0.0151 -0.0040
12768W        W17168  18.638   6.363   0.604  0.3205 -0.0302  0.0534
12769W        W17169  24.159   0.940  10.938  0.1313  0.2054 -0.0003
12770W        W17170  16.957   7.354  10.283  0.2622 -0.2888  0.1758
12771W        W17171  12.198   2.464  30.774 -0.1356 -0.0184  0.2156
12772W        W17172   4.296   2.553  12.318 -0.0020 -0.3449 -0.0761
12773W        W17173  20.169   7.775  15.123  0.0059 -0.0170  0.2130
12774W        W17174  24.463   3.724  18.743  0.0123 -0.1212 -0.1934
12775W        W17175  15.864   7.708  25.346  0.0564  0.0316 -0.0550
12776W        W17176  10.218   5.893  26.807  0.1614  0.0111 -0.1268
12777W        W17177  12.836   3.170  30.383 -0.0851 -0.2676 -0.2395
12778W        W17178  13.959   5.547   8.069 -0.2819 -0.3013  0.2558
12779W        W17179  12.023   5.738   4.402  0.0322 -0.2687  0.0501
12780W        W17180  14.703   6.088   4.664 -0.0257  0.1198  0.0978
12781W        W17181   6.125   0.983   6.207 -0.1169 -0.3594 -0.2510
12782W        W17182   8.308   2.164  15.743 -0.1625 -0.1201 -0.1917
12783W        W17183   7.525   1.814   1.856 -0.0677  0.1827 -0.0856
12784W        W17184  17.539   1.225   8.309  0.1555  0.1347 -0.4245
12785W        W17185   9.515   1.981  29.074 -0.0864 -0.0481 -0.2471
12786W        W17186  22.085   6.326   4.097 -0.0160  0.2280  0.0593
12787W        W17187   7.526   1.219  15.476 -0.0030 -0.0642  0.3084
12788W        W17188   9.727   0.084  19.096 -0.2676  0.0998  0.1115
12789W        W17189  16.835   2.454  26.505 -0.1938  0.0099  0.0215
12790W        W17190   7.536   1.318  26.703  0.0331  0.1299 -0.4479
12791W        W17191  16.701   3.509  24.929 -0.3330  0.4278  0.0836
12792W        W17192  17.257   6.015   2.113  0.2264 -0.4827  0.2738
12793W        W17193   0.641   3.365  11.121 -0.0088  0.0964 -0.0786
12794W        W17194   8.592   6.143   2.360  0.1597 -0.4059 -0.2065
12795W        W17195   5.394   5.933  24.565  0.2910 -0.0591  0.0720
12796W        W17196   5.005   5.854   9.818  0.2253 -0.1523 -0.0354
12797W        W17197  24.075   0.489  17.008  0.0237  0.1607  0.0006
12798W        W17198   4.795   4.052  30.794  0.1752 -0.1729 -0.3049
12799W        W17199  24.554   7.449   0.727  0.0743 -0.0094 -0.1462
12800W        W17200  10.416   5.883  16.608  0.1255  0.0773  0.2282
12801W        W17201  18.969   3.592  16.991 -0.2005 -0.0277 -0.1949
12802W        W17202   4.672   6.717  12.943 -0.3562 -0.0083 -0.2292
12803W        W17203   7.062   1.863   8.618 -0.5221 -0.0984 -0.0816
12804W        W17204   4.649   0.307  26.952 -0.1653  0.3393 -0.0142
12805W        W17205  20.469   6.251   0.886 -0.1161 -0.1327  0.0339
12806W        W17206  17.316   3.175  20.801  0.0774  0.1063 -0.0052
12807W        W17207  18.874   1.987   4.050 -0.3333 -0.1587 -0.1157
12808W        W17208  18.872   7.333   6.645 -0.1261 -0.1930 -0.0491
12809W        W17209  22.162   6.671  26.008  0.0108  0.3161 -0.1901
12810W        W17210  23.552   2.806  30.381  0.0773  0.1118 -0.0701
12811W        W17211  12.500   7.629  25.629 -0.0328  0.1072  0.1170
12812W        W17212  23.465   2.519  21.435  0.0156  0.1797 -0.1427
12813W        W17213   1.047   3.240  26.304  0.1299  0.1396  0.0881
12814W        W17214  18.736   2.579  29.855  0.1050  0.1089  0.0694
12815W        W17215  10.838   6.622  29.403  0.0846 -0.0589 -0.1503
12816W        W17216  20.184   1.293  24.813  0.1499 -0.1743  0.1660
12817W        W17217  12.022   0.212  13.042  0.1052  0.2182  0.1264
12818W        W17218  11.077   5.821  14.580 -0.2010 -0.0252 -0.1247
12819W        W17219   9.305   6.282  28.330  0.1293  0.1639  0.3996
12820W        W17220   3.327   3.151  30.442 -0.0422  0.1290 -0.0028
12821W        W17221   0.946   7.366  28.278 -0.1061  0.0146  0.1942
12822W        W17222   3.587   2.860  11.445 -0.1076 -0.2154 -0.0975
12823W        W17223   6.789   4.003   2.809 -0.5271  0.1131 -0.1106
12824W        W17224  17.805   1.132  21.892 -0.1489  0.0413 -0.0736
12825W        W17225  20.070   1.477  32.228  0.3350 -0.0972  0.0906
12826W        W17226  22.616   7.432   2.950  0.2148  0.1347 -0.0127
12827W        W17227  21.110   0.635   0.278  0.3071  0.0731 -0.0249
12828W        W17228  21.505   5.898   7.216 -0.2938  0.1592 -0.0773
12829W        W17229  11.703   1.614  30.844 -0.0078 -0.1207 -0.0702
12830W        W17230  14.333   1.382  25.264 -0.1710  0.3067 -0.0894
12831W        W17231  12.188   4.887   2.687 -0.1379 -0.1635 -0.4132
12832W        W17232   5.521   1.087   7.661  0.0636  0.1204 -0.3414
12833W        W17233   3.163   0.259   6.322 -0.1482  0.0467  0.3370
12834W        W17234   4.117   1.525   3.173 -0.1669 -0.3436 -0.0127
12835W        W17235  13.504   2.107   1.978  0.1372 -0.3106 -0.2829
12836W        W17236  24.760   3.597   3.873  0.1290 -0.2421 -0.0814
12837W        W17237   5.857   0.786   3.427 -0.3584  0.2691  0.3029
12838W        W17238  14.896   6.410   6.293 -0.1056 -0.0732  0.2558
12839W        W17239  15.102   0.093  30.206  0.3369 -0.1244  0.1783
12840W        W17240   7.801   0.965  23.349 -0.1866 -0.1258  0.1406
12841W        W17241  18.347   3.121   3.419 -0.1209  0.2002  0.1772
12842W        W17242   3.236   5.469  21.854 -0.1208 -0.1425 -0.0544
12843W        W17243  13.977   1.384  28.942  0.0247 -0.1270  0.0343
12844W        W17244   4.781   5.205  27.966 -0.0394  0.3340  0.2024
12845W        W17245  21.400   3.318  19.582  0.1254 -0.0609  0.1624
12846W        W17246  24.757   7.488  26.194 -0.2726 -0.2499 -0.0838
12847W        W17247  22.277   0.629  16.255 -0.0161 -0.0762 -0.0467
12848W        W17248   2.301   0.665   3.996  0.0615 -0.0534  0.0354
12849W        W17249  15.013   3.544  28.944 -0.2370 -0.0315  0.1271
12850W        W17250  10.805   3.423   7.829 -0.0862 -0.2523  0.2685
12851W        W17251   9.225   4.177   4.191  0.1527 -0.0222  0.1096
12852W        W17252   1.791   2.113  12.149 -0.0777  0.0838  0.1801
12853W        W17253  23.293   1.771  20.674  0.0313 -0.0125  0.2144
12854W        W17254  21.626   1.288   6.684 -0.2818  0.0545 -0.2569
12855W        W17255  11.137   1.637   4.388  0.2992  0.0042 -0.0331
12856W        W17256  10.342   3.584   7.812  0.2905 -0.0976  0.1786
12857W        W17257   5.494   2.653   8.456 -0.2145 -0.1007 -0.0864
12858W        W17258   1.622   3.153   3.504  0.0163 -0.0593  0.1254
12859W        W17259  17.171   5.185   6.440 -0.0143  0.3453  0.2391
12860W        W17260  19.267   4.952  18.309  0.0253  0.0516  0.0008
12861W        W17261  22.036   1.609   0.696  0.1582 -0.0369 -0.1831
12862W        W17262  12.238   1.676  14.477 -0.2715 -0.0139  0.0746
12863W        W17263  21.891   2.888  24.176  0.2007  0.1944 -0.1248
12864W        W17264   2.517   7.825   4.413  0.0543  0.0822 -0.0367
12865W        W17265   3.273   4.115  30.213  0.0570  0.0434  0.1297
12866W        W17266  14.254   6.790  13.102 -0.0634 -0.2740  0.0444
12867W        W17267  12.279   7.037   8.577 -0.1490 -0.2136  0.0105
12868W        W17268  23.028   4.158  32.480  0.2584 -0.1040 -0.1831
12869W        W17269   9.296   2.533   9.522  0.2006 -0.1012  0.0021
12870W        W17270  24.933   7.776   1.630  0.0299  0.0489  0.2652
12871W        W17271  10.493   5.510   2.356  0.2788 -0.2038  0.1006
12872W        W17272  19.536   5.639   9.144 -0.0307  0.0483 -0.2093
12873W        W17273   6.663   7.275  11.778 -0.0775  0.0262 -0.0806
12874W        W17274   4.535   6.160  25.653 -0.0926  0.2531 -0.0848
12875W        W17275  13.220   5.609  14.818  0.0647  0.0440 -0.0524
12876W        W17276  20.814   7.271  21.698 -0.0631 -0.1610 -0.1049
12877W        W17277   0.585   2.114  17.405  0.1909  0.0754  0.3554
12878W        W17278   7.884   6.380   3.775 -0.0343 -0.1120 -0.0370
12879W        W17279  18.313   2.270  24.456 -0.2141 -0.3147 -0.0882
12880W        W17280  14.546   4.694  23.165 -0.1905 -0.3867 -0.1690
12881W        W17281  19.551   3.883   1.025 -0.0894  0.2774  0.0074
12882W        W17282  16.999   4.258   3.528 -0.0590  0.2081 -0.1223
12883W        W17283   4.919   5.293   8.578  0.1290 -0.2311  0.1603
12884W        W17284   3.934   1.268   3.733  0.1517 -0.0798 -0.0464
12885W        W17285  24.664   0.477   7.362  0.0481 -0.0886  0.1741
12886W        W17286   0.818   6.356   9.828  0.0567  0.0896 -0.4297
12887W        W17287   4.703   3.270  13.518  0.0475  0.2980 -0.4083
12888W        W17288   0.676   3.820  29.276  0.0873  0.1741 -0.0846
12889W        W17289  11.396   4.809  24.704 -0.0597 -0.0776 -0.0542
12890W        W17290  19.933   5.324  29.034 -0.1627 -0.1007  0.1826
12891W        W17291   2.663   2.908   8.287 -0.0489 -0.2635 -0.0754
12892W        W17292   4.567   2.452   6.907  0.1957  0.2218 -0.0265
12893W        W17293  13.639   6.064  29.154  0.5015  0.4485 -0.0656
12894W        W17294  21.617   2.017  29.908 -0.0662  0.0602 -0.1384
12895W        W17295   7.703   7.642  28.019 -0.2203  0.0190 -0.1122
12896W        W17296  13.359   5.834   7.258  0.0965 -0.1106  0.0239
12897W        W17297  10.845   3.696   4.797  0.1955  0.2862  0.0242
12898W        W17298  22.031   0.812  15.272 -0.1736 -0.1203 -0.0374
12899W        W17299  14.973   4.950  31.321  0.0938 -0.0901 -0.1965
12900W        W17300   0.747   3.325  24.329 -0.2498 -0.1053 -0.2481
12901W        W17301  17.480   4.732   3.759 -0.2127  0.1942 -0.0436
12902W        W17302   8.076   2.605  23.501  0.0298  0.1172 -0.1488
12903W        W17303  12.343   4.033   4.824  0.2751  0.0858 -0.0509
12904W        W17304  10.630   4.258  22.387  0.1505 -0.2022 -0.0787
12905W        W17305   9.399   4.215  25.477  0.1503  0.0160 -0.1236
12906W        W17306   2.550   7.132  26.878 -0.0215  0.1513  0.3412
12907W        W17307  11.367   6.139  14.257  0.0107 -0.0477 -0.0070
12908W        W17308  24.601   6.789  24.284  0.0838 -0.0190  0.0356
12909W        W17309   5.028   6.396  25.646  0.0213  0.1679 -0.0542
12910W        W17310  21.172   6.079  26.955  0.0461  0.1530  0.1032
12911W        W17311  12.850   0.465   8.500 -0.3445  0.0407  0.0938
12912W        W17312  22.503   7.172  32.399  0.0568  0.0720  0.0787
12913W        W17313  16.750   4.293  29.761  0.0003 -0.0606  0.1488
12914W        W17314  13.898   4.101  21.732  0.1855 -0.1142 -0.0420
12915W        W17315  18.203   0.589  16.446 -0.1560  0.4771 -0.1835
12916W        W17316  17.141   7.491   8.269  0.2526  0.0908 -0.0518
12917W        W17317  14.335   0.609  26.232  0.2167 -0.0303  0.0549
12918W        W17318  11.915   5.177  11.645 -0.1423  0.2181 -0.1960
12919W        W17319   6.323   5.957   1.469  0.1009 -0.0234 -0.1200
12920W        W17320   9.679   5.508  23.349 -0.0616 -0.1026 -0.0783
12921W        W17321   7.660   1.673  14.376  0.2184  0.0734 -0.1039
12922W        W17322   6.291   6.338  15.975 -0.3975 -0.1324  0.0698
12923W        W17323  18.517   7.524   0.156 -0.0841  0.0437 -0.0849
12924W        W17324  21.473   4.955  22.407 -0.0855  0.0231 -0.0316
12925W        W17325  17.040   2.105  27.688  0.0150  0.1919 -0.1291
12926W        W17326   6.849   1.472   5.962 -0.0173 -0.0537  0.2395
12927W        W17327  24.991   1.110   2.191 -0.0973  0.0880 -0.1243
12928W        W17328  12.455   2.007  10.845  0.2071 -0.3733 -0.0821
12929W        W17329   1.629   4.666  25.272  0.2196 -0.6266  0.0899
12930W        W17330   9.151   7.403  27.530 -0.1557  0.0885  0.1082
12931W        W17331   7.618   6.647  24.892  0.0944 -0.4718  0.3102
12932W        W17332   1.960   5.861  27.607 -0.0540 -0.1825 -0.1032
12933W        W17333  17.965   1.153  31.453  0.3278 -0.0390  0.1795
12934W        W17334   3.360   0.597  24.069 -0.0363 -0.1937  0.3892
12935W        W17335  20.275   5.061  17.249  0.1091  0.0864  0.1669
12936W        W17336   4.654   1.780   6.714  0.1466  0.0605  0.0147
12937W        W17337  22.828   1.528  23.786 -0.2251  0.0348 -0.0855
12938W        W17338  11.078   6.813  28.129 -0.0838 -0.1043  0.1734
12939W        W17339   0.717   5.533   5.390  0.0668 -0.3919 -0.3071
12940W        W17340  16.906   4.057  11.267  0.2146  0.2575 -0.3321
12941W        W17341  22.046   6.775  16.323 -0.0933  0.1323  0.1081
12942W        W17342  10.645   3.894  10.465 -0.0355 -0.3504  0.2129
12943W        W17343  11.762   6.297   9.439  0.0725 -0.0865  0.0641
12944W        W17344  23.473   7.230  22.312  0.3234  0.0427  0.1516
12945W        W17345   8.433   2.223   1.489  0.1662  0.0009 -0.0730
12946W        W17346   7.127   1.423   1.720  0.0096  0.1588  0.1054
12947W        W17347  13.102   7.347   0.035  0.1522  0.1820 -0.0786
12948W        W17348  10.181   1.205  23.662  0.0130 -0.1209 -0.1731
12949W        W17349   7.869   4.108   6.459 -0.1677  0.1645 -0.1335
12950W        W17350  23.780   6.814   8.363 -0.0090 -0.2794 -0.1651
12951W        W17351  22.797   5.909  27.546  0.0599  0.2638 -0.0085
12952W        W17352  22.107   6.854  18.364 -0.1891 -0.0461  0.5530
12953W        W17353  24.216   0.216  29.010  0.0848  0.0861  0.3550
12954W        W17354  10.472   1.767  10.622  0.0266 -0.2124 -0.0475
12955W        W17355  14.320   2.979  13.240 -0.1180  0.2565  0.0725
12956W        W17356   9.424   7.296   1.906  0.3441  0.1905  0.0756
12957W        W17357  20.696   0.521  26.433  0.0632  0.0817  0.0897
12958W        W17358  16.422   5.154  26.912  0.0916 -0.0959 -0.0117
12959W        W17359  20.631   4.271   1.191 -0.1016  0.1604  0.1233
12960W        W17360   7.955   1.093   9.116  0.0126 -0.2752  0.1375
12961W        W17361   1.845   6.804  21.660  0.2233 -0.1618  0.1715
12962W        W17362   2.842   4.427  31.957  0.0357  0.1720 -0.3822
12963W        W17363   0.420   4.667  17.344  0.1384  0.0027  0.3669
12964W        W17364  19.855   5.573  28.579  0.0383  0.1763  0.0425
12965W        W17365  14.957   7.704  29.124 -0.1324  0.3162 -0.2026
12966W        W17366   7.330   2.398  30.403  0.0815 -0.2652 -0.2961
12967W        W17367  19.668   1.755   5.772  0.0304 -0.1102  0.0221
12968W        W17368  10.915   5.085  30.442 -0.0528 -0.2300  0.0848
12969W        W17369  21.782   0.339   7.051 -0.0402  0.0434  0.1112
12970W        W17370  21.133   6.132  14.791 -0.1903  0.0276  0.2034
12971W        W17371   8.154   1.123  24.294 -0.2506 -0.0768 -0.1544
12972W        W17372  20.048   6.473  28.232  0.0322  0.1732  0.0882
12973W        W17373   3.168   1.173  28.719  0.0980  0.1572  0.1382
12974W        W17374   5.744   5.046   3.878 -0.0132 -0.0472  0.1880
12975W        W17375   5.960   1.394  24.961 -0.1560  0.3038  0.1861
12976W        W17376  11.020   5.444  10.938 -0.0548  0.1615  0.1476
12977W        W17377   2.938   5.874   2.898 -0.2371  0.0605  0.0056
12978W        W17378   4.866   6.223  28.133 -0.2654  0.0920 -0.1890
12979W        W17379  20.141   0.597  26.330 -0.0325 -0.2482 -0.2981
12980W        W17380   6.161   3.060  31.860 -0.1213 -0.0370  0.1501
12981W        W17381  13.234   7.600  12.659 -0.2835 -0.2337  0.0904
12982W        W17382  24.441   5.622   8.670 -0.1241  0.0788  0.3014
12983W        W17383  18.047   0.976   8.879  0.0752 -0.3146 -0.3206
12984W        W17384  21.537   4.037  14.072  0.1560  0.0131  0.0139
12985W        W17385   4.606   4.567   6.907  0.1250 -0.3861 -0.2476
12986W        W17386   1.723   4.782   4.742  0.0554 -0.1776 -0.0136
12987W        W17387   6.842   0.628  13.541 -0.1331 -0.0422 -0.0975
12988W        W17388  16.559   1.169   7.334 -0.0341 -0.0249 -0.0140
12989W        W17389  18.262   7.273  21.025 -0.1315 -0.2102 -0.0082
12990W        W17390  20.525   5.005  20.216 -0.2153 -0.0079 -0.1160
12991W        W17391  21.354   6.121  20.227 -0.2747 -0.3334 -0.1596
12992W        W17392   2.029   1.873  27.019 -0.0625  0.1790  0.1575
12993W        W17393   8.510   5.928  16.813  0.2287  0.4291  0.1439
12994W        W17394  17.448   4.701  19.827  0.1234 -0.0590 -0.1454
12995W        W17395  23.500   1.972  29.472  0.3413  0.0644  0.0312
12996W        W17396   8.338   7.289  10.728  0.1469  0.0134 -0.0566
12997W        W17397   5.786   0.087  27.753  0.4900  0.1320  0.2340
12998W        W17398   6.048   1.209   4.305  0.0044 -0.2146 -0.2540
12999W        W17399  14.502   5.717  25.297  0.0666 -0.3150  0.0061
13000W        W17400   3.837   4.714  26.364 -0.1636  0.1430 -0.3912
13001W        W17401  16.279   3.117   8.292  0.1720 -0.1163  0.0384
13002W        W17402   4.573   4.778  27.616  0.1896 -0.1295 -0.1770
13003W        W17403  10.427   0.054  29.431 -0.0563 -0.2300 -0.2742
13004W        W17404  12.811   1.353   8.249 -0.3006 -0.0388 -0.2237
13005W        W17405   6.597   4.215  30.707  0.2375 -0.1593 -0.2307
13006W        W17406   1.536   2.183  27.521 -0.1971  0.0495 -0.0403
13007W        W17407   3.475   7.623  11.090  0.0467  0.0164  0.1195
13008W        W17408   7.974   5.211  23.136  0.2274  0.2325  0.2056
13009W        W17409   0.157   3.914  32.082 -0.0355  0.0879  0.0294
13010W        W17410   1.054   5.217   6.845  0.0152 -0.1504  0.2468
13011W        W17411  16.985   5.046   2.348 -0.1450  0.2496 -0.3484
13012W        W17412  19.779   2.704  24.984  0.0772  0.1134  0.0995
13013W        W17413   6.793   4.020  24.041 -0.1425  0.2838 -0.1138
13014W        W17414  23.310   6.239  28.301 -0.0925  0.2213  0.2994
13015W        W17415  12.147   1.004   2.939  0.0488 -0.1813  0.1927
13016W        W17416   3.175   0.799  22.115  0.0616  0.1195 -0.3268
13017W        W17417  12.938   5.250   1.837 -0.5812  0.1633 -0.1577
13018W        W17418   6.293   2.781   0.490  0.1959 -0.2301 -0.1265
13019W        W17419  17.734   5.318   3.829 -0.0292  0.0189  0.0258
13020W        W17420  23.176   3.695  28.026 -0.0035  0.1961 -0.0260
13021W        W17421   3.038   0.302  21.277 -0.2632  0.3200  0.0608
13022W        W17422  12.763   2.184   8.246  0.1441  0.0191  0.0029
13023W        W17423   6.303   0.190   0.626 -0.0108  0.3271  0.2934
13024W        W17424  13.847   0.002   5.763 -0.0973 -0.0321  0.1774
13025W        W17425   0.996   4.134  32.345 -0.2555  0.0019  0.2387
13026W        W17426   1.178   4.726   8.342 -0.1380 -0.1736 -0.0762
13027W        W17427   4.762   5.926  27.266  0.0233 -0.2557 -0.2010
13028W        W17428  22.955   7.586  31.328 -0.0784  0.0039  0.0776
13029W        W17429  13.704   6.817   2.373 -0.2427  0.1293 -0.1470
13030W        W17430  17.818   0.910  17.688  0.1607 -0.3182  0.2239
13031W        W17431   8.118   1.638  17.668  0.0966 -0.1360 -0.0222
13032W        W17432  11.166   2.969  11.187  0.3788  0.0092  0.1917
13033W        W17433   3.864   3.494   3.131 -0.2679  0.0125  0.2138
13034W        W17434  22.390   6.112  17.772 -0.0413  0.1027 -0.2252
13035W        W17435  24.649   1.288  18.571 -0.0310  0.2105 -0.0620
13036W        W17436   2.891   5.202  25.555  0.0628  0.0331  0.2415
13037W        W17437  22.215   0.210  28.676 -0.0531 -0.1540  0.0021
13038W        W17438   6.493   4.181  24.603 -0.2039 -0.1591 -0.0651
13039W        W17439   5.666   7.580  14.781 -0.2784 -0.0078  0.3576
13040W        W17440   8.861   2.625   1.854 -0.3508 -0.0029 -0.0615
13041W        W17441  16.640   2.756  29.399 -0.1680  0.1146  0.0767
13042W        W17442  15.435   4.373  29.876 -0.0999 -0.0160  0.1984
13043W        W17443  23.662   5.114  19.682  0.1442 -0.0542 -0.1732
13044W        W17444   6.562   0.652  32.469  0.0055 -0.0249 -0.1811
13045W        W17445   0.346   5.316  10.705  0.2294  0.3592  0.2736
13046W        W17446  11.175   7.321  30.535 -0.1650 -0.0274 -0.2417
13047W        W17447   2.834   3.692   9.395  0.0994  0.0416  0.4870
13048W        W17448   1.307   6.482   8.425  0.2571 -0.0074  0.0782
13049W        W17449  22.645   5.672  21.325 -0.0643  0.1857 -0.0863
13050W        W17450  15.260   1.638  12.592 -0.1123  0.2009  0.1181
13051W        W17451   1.337   5.151  31.425  0.2081  0.1185  0.1031
13052W        W17452  24.557   4.162   6.056  0.4210 -0.0049 -0.3402
13053W        W17453  23.114   5.540  21.247 -0.3515 -0.1587 -0.0385
13054W        W17454   3.834   0.168   0.923  0.4266 -0.1056  0.1730
13055W        W17455  18.744   6.651  29.606 -0.0991 -0.0533 -0.2577
13056W        W17456  18.753   7.101  32.398  0.0073 -0.1096 -0.0702
13057W        W17457  11.230   3.010   6.591 -0.0300  0.4871 -0.2240
13058W        W17458  12.686   7.160  16.234 -0.2475 -0.2209 -0.2689
13059W        W17459   9.902   7.787  22.550  0.1412 -0.0166  0.3163
13060W        W17460  16.874   5.019  27.134 -0.1376  0.0064 -0.1859
13061W        W17461  20.882   1.667  31.012 -0.3421 -0.4084 -0.1711
13062W        W17462   5.203   6.797  11.872  0.2887  0.0814  0.0294
13063W        W17463  14.177   3.563   5.281 -0.1054  0.0198  0.1874
13064W        W17464  16.667   3.845  26.234 -0.0388  0.0862 -0.2228
13065W        W17465  21.609   6.348  29.355  0.1096  0.0697  0.0988
13066W        W17466   0.052   3.051  20.739 -0.0906  0.2481  0.2440
13067W        W17467   4.229   1.949   5.972  0.2414  0.3655  0.1686
13068W        W17468   1.046   5.955  17.312 -0.1762 -0.1077 -0.3182
13069W        W17469  22.794   0.944   3.188  0.4196 -0.0168  0.0844
13070W        W17470  12.066   2.491  29.462 -0.1508  0.0599 -0.1779
13071W        W17471   1.734   0.497  26.213 -0.1974 -0.3054 -0.1206
13072W        W17472  21.560   6.693   6.580  0.1249  0.0298 -0.2817
13073W        W17473   8.668   2.928  29.448 -0.0117  0.0152  0.3162
13074W        W17474   4.283   5.416   9.315  0.1207 -0.1656 -0.1882
13075W        W17475  23.989   7.397   8.631  0.0944  0.1191 -0.0010
13076W        W17476  11.681   4.961  23.796  0.0911  0.2269  0.2715
13077W        W17477   0.611   3.093   2.371  0.3361  0.0743 -0.3472
13078W        W17478  14.684   4.721  26.713  0.0437  0.0899 -0.0074
13079W        W17479  10.034   5.602  13.912  0.1098 -0.1091 -0.3532
13080W        W17480   1.421   7.824  29.421  0.4044  0.6141 -0.1284
13081W        W17481  17.552   6.243  27.799 -0.3338 -0.0464 -0.0725
13082W        W17482  19.157   1.500  17.499 -0.2474 -0.1663  0.0267
13083W        W17483   7.906   4.030   5.936 -0.2342 -0.0484  0.0959
13084W        W17484  15.969   0.517   1.754 -0.3282  0.1801  0.2663
13085W        W17485  11.061   2.432  26.456  0.2198  0.2150  0.3631
13086W        W17486   3.541   1.762   0.405 -0.0990  0.1491  0.0967
13087W        W17487  19.879   5.505  17.637 -0.3394 -0.0298  0.0930
13088W        W17488   9.443   1.417  22.597  0.2178  0.0062 -0.0054
13089W        W17489  21.350   7.443   8.506  0.0542 -0.0384 -0.3721
13090W        W17490  19.582   4.051  30.095 -0.3485 -0.0918  0.3278
13091W        W17491  10.383   5.679  22.977  0.0641 -0.4121 -0.2056
13092W        W17492   4.101   2.542  24.755  0.0752  0.2082  0.1954
13093W        W17493  20.188   2.104  21.596  0.1488  0.3951 -0.1072
13094W        W17494  10.077   4.837  29.199  0.1864 -0.1632 -0.0348
13095W        W17495   0.752   1.161  28.201 -0.1321 -0.3538 -0.2142
13096W        W17496  16.994   5.285   1.472 -0.0249  0.1682 -0.1254
13097W        W17497  18.920   4.309   6.372  0.0038 -0.2652 -0.2532
13098W        W17498  22.012   0.930  14.811  0.0903 -0.0717  0.0971
13099W        W17499  14.413   1.920   3.206  0.2482 -0.0188  0.0576
13100W        W17500  25.036   7.247  21.181  0.1752 -0.2796 -0.3865
13101W        W17501  13.825   0.462   5.513  0.0956 -0.0803  0.4059
13102W        W17502  14.858   0.516   5.510 -0.1408  0.0651 -0.1569
13103W        W17503  18.458   0.802  26.858  0.4090  0.0011  0.1151
13104W        W17504  11.655   7.319  14.761  0.0358  0.1081  0.0133
13105W        W17505   0.354   1.402   2.443 -0.2448  0.1142 -0.0526
13106W        W17506   0.356   2.571  15.973 -0.2945 -0.1360  0.1376
13107W        W17507  10.219   6.458  25.025 -0.0130  0.2108 -0.2949
13108W        W17508  22.399   3.189  18.955  0.2995  0.0853 -0.2005
13109W        W17509   8.801   0.864  13.063  0.1376 -0.2359 -0.1962
13110W        W17510   5.678   7.092   0.855 -0.3352 -0.2178 -0.0111
13111W        W17511   2.969   1.532   8.428  0.0058 -0.0926  0.2618
13112W        W17512   1.786   1.225  30.662 -0.1475  0.2125 -0.1228
13113W        W17513  12.476   3.189  27.473  0.1950  0.1614 -0.0868
13114W        W17514  21.679   0.588   4.706 -0.1940 -0.2004  0.0412
13115W        W17515   4.251   3.777  26.471 -0.0181  0.0771 -0.1161
13116W        W17516   1.343   3.842   9.978 -0.1005  0.2298 -0.3156
13117W        W17517   3.354   5.385  23.185  0.2463 -0.2365  0.0650
13118W        W17518   8.057   2.915  32.140 -0.0536  0.1010 -0.1572
13119W        W17519  10.359   5.227  14.989  0.1552 -0.0257  0.0400
13120W        W17520  23.888   6.133   6.811 -0.0362  0.1035 -0.0829
13121W        W17521  17.923   2.455  30.965  0.0242 -0.3152  0.0746
13122W        W17522  13.317   1.130   9.413  0.1432 -0.0132 -0.0350
13123W        W17523  16.107   3.184  30.238 -0.0352 -0.3462  0.0098
13124W        W17524   8.177   5.506   9.348  0.2986  0.0271 -0.0248
13125W        W17525  14.191   5.748  31.753 -0.2201  0.2222  0.1663
13126W        W17526   7.984   6.002  12.386  0.2296  0.2999 -0.0476
13127W        W17527   4.530   6.005   9.708  0.0700 -0.3007 -0.2056
13128W        W17528  22.948   7.255   0.959  0.1165  0.0381 -0.1069
13129W        W17529  23.838   0.388  31.422  0.4328 -0.1234 -0.2574
13130W        W17530   3.632   5.907   1.003  0.0072 -0.0495  0.1106
13131W        W17531  12.296   0.946  22.255 -0.0283  0.1267  0.0029
13132W        W17532   4.517   7.630  22.839  0.4146  0.1317  0.1404
13133W        W17533  21.594   6.518   4.081  0.1374 -0.3228  0.2439
13134W        W17534  22.255   5.934  32.356  0.0849 -0.1141 -0.2539
13135W        W17535   6.847   4.123  17.987 -0.2609  0.1567  0.1963
13136W        W17536  18.512   4.991  20.408 -0.0616  0.4482  0.2733
13137W        W17537   7.749   1.982  10.792  0.1453  0.2718  0.0166
13138W        W17538  18.126   4.421  24.184 -0.1257 -0.2447 -0.0381
13139W        W17539   7.007   6.565   0.347  0.2545  0.2566  0.1089
13140W        W17540   1.915   1.174   9.187 -0.0817  0.0311  0.1760
13141W        W17541  22.202   4.446  14.793  0.4865  0.3024 -0.3724
13142W        W17542  10.862   4.516  26.215  0.0188  0.4703  0.0339
13143W        W17543  23.756   1.961  27.433  0.3267 -0.0867 -0.0002
13144W        W17544  11.282   6.644  22.203 -0.0937 -0.3790  0.1858
13145W        W17545   7.477   1.352   2.055  0.0194 -0.0727 -0.0236
13146W        W17546   0.551   3.058  17.356 -0.1132 -0.1927 -0.3495
13147W        W17547   5.153   1.973   7.001 -0.2171 -0.0365  0.0082
13148W        W17548   0.325   0.646  29.589  0.1281 -0.1397  0.4068
13149W        W17549  11.776   4.125  29.196 -0.0302 -0.0712 -0.1136
13150W        W17550   5.101   4.479  23.456  0.0868  0.0432  0.0344
13151W        W17551   9.620   4.128  14.212 -0.0803  0.0821 -0.2428
13152W        W17552   4.489   2.780  21.335  0.1460  0.3396  0.2252
13153W        W17553  15.317   6.072  25.504 -0.2100  0.1777  0.2234
13154W        W17554   1.672   1.400   3.675 -0.1217  0.3171  0.0197
13155W        W17555  12.004   3.875  22.683 -0.2689 -0.1926  0.1338
13156W        W17556  12.746   7.499  29.815 -0.1155 -0.1922 -0.0004
13157W        W17557  20.099   4.968   8.179  0.0012  0.0605 -0.1321
13158W        W17558  11.018   2.831  31.465 -0.0695  0.1077  0.0309
13159W        W17559   1.910   4.854   3.750  0.0706  0.0385 -0.2021
13160W        W17560  13.382   6.183   2.077 -0.0070 -0.1864 -0.0701
13161W        W17561   4.474   4.382  23.552 -0.2093 -0.1568  0.0308
13162W        W17562  16.550   3.543   8.394 -0.0533  0.3263  0.0971
13163W        W17563  23.899   6.353  26.447  0.2986 -0.0373 -0.3725
13164W        W17564   7.763   3.941  23.399  0.1035 -0.0048 -0.5146
13165W        W17565  18.055   6.862   8.908  0.2124  0.1080  0.1899
13166W        W17566   1.419   0.439   1.593  0.2974  0.0957  0.0762
13167W        W17567   1.725   2.510  21.428  0.0657  0.0514  0.0368
13168W        W17568  16.814   7.732   2.878  0.1165 -0.1421  0.1516
13169W        W17569  18.048   5.365   9.804  0.0014 -0.1528  0.2907
13170W        W17570   7.470   5.782   2.574  0.1374  0.0944  0.1391
13171W        W17571  15.269   6.692  32.169  0.2631 -0.0930 -0.0053
13172W        W17572  12.527   7.228  15.080  0.1638  0.2799  0.0547
13173W        W17573  18.451   6.706  24.362  0.0784 -0.0661 -0.1169
13174W        W17574  17.983   0.117   8.726  0.3027  0.0333  0.0541
13175W        W17575  23.337   1.494  32.396  0.2642  0.2325  0.0896
13176W        W17576   9.096   4.122  10.528 -0.1728  0.2324  0.0269
13177W        W17577   6.400   3.473  31.872 -0.2118  0.0806  0.0124
13178W        W17578   5.265   6.786  22.803 -0.1444 -0.1683  0.3233
13179W        W17579   8.784   0.852   5.349  0.0220 -0.1836  0.0202
13180W        W17580  12.807   3.347  26.632 -0.1302  0.1216  0.0267
13181W        W17581  21.074   6.479  24.569  0.1761 -0.2068 -0.1748
13182W        W17582  22.179   4.588  17.519  0.3329  0.0712  0.0930
13183W        W17583  21.874   6.814  29.589  0.2258  0.0302  0.1000
13184W        W17584  23.463   2.540  29.409 -0.0530 -0.2567  0.1169
13185W        W17585  21.834   0.963  23.941  0.0894  0.1750 -0.0679
13186W        W17586   1.748   1.050  23.959  0.1165 -0.0887  0.0644
13187W        W17587  24.413   5.223  23.199  0.1742  0.0692 -0.0501
13188W        W17588  12.499   4.862   7.362 -0.3520  0.2046  0.0265
13189W        W17589  13.751   0.110   9.024  0.1757 -0.2471  0.3724
13190W        W17590  15.940   3.213  21.077  0.2805  0.0442  0.2634
13191W        W17591   6.200   6.642   4.848 -0.0439  0.1022 -0.0023
13192W        W17592   5.570   5.684   1.754  0.1940 -0.6266 -0.1587
13193W        W17593   3.749   1.521  29.720 -0.0067  0.3028 -0.0021
13194W        W17594  23.164   2.674  10.656 -0.0198  0.1463 -0.1757
13195W        W17595   1.815   3.894  21.139 -0.3029  0.1781 -0.3353
13196W        W17596  12.076   2.159  28.014 -0.0679 -0.0584  0.4403
13197W        W17597  15.995   5.496  20.580 -0.1639 -0.0481  0.3811
13198W        W17598  12.081   3.719   3.515  0.1334  0.0080 -0.2805
13199W        W17599   5.723   3.909  25.322 -0.2414  0.1235  0.4792
13200W        W17600   9.466   5.727   6.573 -0.2981 -0.1079  0.0258
13201W        W17601   6.494   4.349  17.196 -0.1372  0.1853  0.0799
13202W        W17602  14.332   7.499  21.971  0.4747  0.0474 -0.1832
13203W        W17603  13.687   0.872   0.518 -0.1541 -0.0103 -0.1939
13204W        W17604  12.420   4.603  32.429 -0.1486 -0.3312  0.2672
13205W        W17605  16.345   2.759  25.128  0.0986 -0.0445 -0.0460
13206W        W17606   3.442   0.058  25.997  0.0810 -0.2137  0.0587
13207W        W17607  20.577   1.063  29.365 -0.0030 -0.0854  0.0042
13208W        W17608   6.730   6.161  27.528 -0.0955 -0.0173  0.0521
13209W        W17609  10.523   5.782  17.454  0.0447 -0.1087  0.1315
13210W        W17610   9.142   0.140   0.942  0.0354  0.1390  0.0100
13211W        W17611  15.422   5.505  29.161  0.3463  0.4254  0.4287
13212W        W17612  19.185   0.946  26.952  0.1286  0.1930 -0.1559
13213W        W17613  19.849   1.926  30.780  0.1314 -0.1206  0.2481
13214W        W17614  22.921   3.256  17.650 -0.1763 -0.1802  0.1610
13215W        W17615   6.684   1.858  28.448 -0.0751 -0.0205  0.2554
13216W        W17616  20.852   1.638  18.257 -0.1994 -0.0703  0.4445
13217W        W17617  23.814   3.869  31.967  0.1038  0.3679  0.0592
13218W        W17618  11.653   0.608   5.687 -0.2452  0.1248 -0.0925
13219W        W17619   6.162   4.598   5.212  0.3013 -0.2413 -0.0377
13220W        W17620  15.573   6.549   7.792  0.0837 -0.3009  0.0816
13221W        W17621  16.652   6.668  24.769  0.1515  0.0245 -0.1682
13222W        W17622  20.737   5.602  18.076 -0.0360  0.0387  0.0729
13223W        W17623  18.875   5.694  25.489 -0.1327 -0.0960  0.0488
13224W        W17624  13.069   2.156   2.951  0.1149 -0.1183  0.2191
13225W        W17625   9.270   2.405   8.980  0.3108 -0.0167  0.1300
13226W        W17626  12.071   0.056  23.816 -0.1365 -0.1402  0.1616
13227W        W17627   8.450   1.010  24.680 -0.3078  0.0835  0.1885
13228W        W17628  18.150   6.157   5.650  0.0039 -0.0715  0.3385
13229W        W17629  12.118   6.877  24.205 -0.2883 -0.3510 -0.2155
13230W        W17630  10.491   3.824   1.886  0.1899 -0.0188  0.0003
13231W        W17631  23.980   0.152   5.262  0.1297 -0.1198 -0.1852
13232W        W17632  20.495   1.113  23.463  0.0546  0.0067 -0.1206
13233W        W17633   3.499   1.388  21.669  0.3537  0.1169  0.3875
13234W        W17634  19.294   3.246  19.557  0.1818  0.1495  0.2037
13235W        W17635  19.049   5.216  18.797  0.0461 -0.2160  0.0471
13236W        W17636  12.803   7.425  28.129 -0.4268  0.0156 -0.0349
13237W        W17637  16.887   5.599  26.359  0.2483  0.0887  0.0084
13238W        W17638  22.977   7.029   7.766  0.0287 -0.1388 -0.1252
13239W        W17639  13.873   4.417  28.074  0.0763  0.2025 -0.2432
13240W        W17640   4.730   5.442  22.870  0.1370 -0.0612 -0.0709
13241W        W17641   2.914   4.387  29.394 -0.0288 -0.1775 -0.0882
13242W        W17642  21.508   6.098  26.615 -0.2392 -0.2787 -0.0817
13243W        W17643  20.064   2.720   6.907 -0.0005  0.0768 -0.0920
13244W        W17644  18.382   7.040  26.564 -0.0092 -0.0107  0.2313
13245W        W17645   7.481   5.387   1.391  0.0453  0.1168  0.1101
13246W        W17646  24.383   7.793  26.097  0.1159 -0.1215 -0.1172
13247W        W17647   4.133   4.296  27.826 -0.0078  0.0428  0.0463
13248W        W17648  17.937   7.725   1.029  0.3250 -0.0359  0.2922
13249W        W17649   4.825   3.536  30.145 -0.0927 -0.1587 -0.1986
13250W        W17650  15.576   1.803   2.833  0.1080 -0.3355  0.2000
13251W        W17651  25.017   2.678  21.291 -0.1629  0.3505 -0.0042
13252W        W17652  21.264   2.490  15.757  0.1495 -0.1633  0.2688
13253W        W17653   3.799   5.555   9.640  0.0875 -0.1401  0.3920
13254W        W17654   6.183   5.369  12.352  0.1157  0.0958  0.1053
13255W        W17655  18.373   7.327   2.138 -0.2441  0.4999 -0.0031
13256W        W17656   9.092   0.919  16.940 -0.1785 -0.0301 -0.2563
13257W        W17657  13.437   6.067  10.306 -0.1888 -0.0258 -0.1281
13258W        W17658   5.611   0.446  28.352  0.1465 -0.1681  0.0591
13259W        W17659  10.617   1.762  28.986 -0.0045 -0.0349  0.1314
13260W        W17660   3.971   6.256  32.192  0.4013 -0.1241 -0.0699
13261W        W17661  23.258   2.067  22.183 -0.1207  0.1457 -0.1887
13262W        W17662  16.526   4.425  19.291 -0.0599 -0.0063  0.1691
13263W        W17663   4.179   1.597  26.415 -0.0687 -0.2277 -0.0036
13264W        W17664  23.971   5.798  21.952 -0.1186  0.0223  0.0501
13265W        W17665  18.364   4.553  30.939  0.0580 -0.4024  0.0854
13266W        W17666   8.848   7.373   7.192  0.0062  0.0954  0.2557
13267W        W17667  24.766   0.695  24.007 -0.0544  0.0823  0.3663
13268W        W17668  15.332   5.178   7.148  0.2416  0.0427  0.1754
13269W        W17669  21.846   0.321  19.238  0.1628 -0.1031  0.0818
13270W        W17670  20.864   2.371  30.028  0.2439  0.1127  0.0925
13271W        W17671   2.209   4.179  21.631  0.0862 -0.0137  0.0578
13272W        W17672   6.824   5.244  10.292 -0.1397  0.2050 -0.1805
13273W        W17673  15.490   1.033   7.271  0.0584  0.2238  0.0419
13274W        W17674  17.567   5.628   3.497 -0.2454 -0.0657  0.1331
13275W        W17675  14.107   1.499  13.393  0.1288 -0.0767  0.2160
13276W        W17676   1.137   2.220   6.371 -0.0892  0.4662 -0.1795
13277W        W17677   9.685   0.180  16.398  0.1341  0.3721  0.4542
13278W        W17678   0.863   2.862  23.713  0.0916  0.2918 -0.1989
13279W        W17679  23.066   7.205  28.564  0.2227 -0.1111 -0.0878
13280W        W17680   8.938   1.080  32.338 -0.2507  0.2913 -0.2715
13281W        W17681   8.203   1.202   2.785 -0.0969  0.0262 -0.0186
13282W        W17682   7.980   1.464   2.060  0.0654  0.1084  0.2160
13283W        W17683  18.166   0.366  21.286 -0.0464 -0.2434  0.2364
13284W        W17684   3.720   2.165  25.631 -0.1645 -0.4057 -0.0676
13285W        W17685  19.983   2.970   1.145  0.1591 -0.2394  0.1783
13286W        W17686   8.770   1.749  13.105  0.0306 -0.1689 -0.1125
13287W        W17687  23.757   4.744   6.087  0.2089  0.2132 -0.2243
13288W        W17688  12.490   4.548   4.768 -0.3187  0.3696 -0.0844
13289W        W17689  10.586   2.079   3.864  0.0861  0.2183  0.1527
13290W        W17690  12.683   7.051   3.276 -0.3625 -0.1578 -0.1063
13291W        W17691  23.407   6.501  20.235  0.2488 -0.0581  0.1839
13292W        W17692  19.296   3.385  28.791 -0.1185 -0.1066  0.5149
13293W        W17693  14.483   3.283  22.204  0.0165 -0.2007 -0.1636
13294W        W17694  24.507   3.910  28.300  0.2272  0.0874  0.0792
13295W        W17695  19.625   4.555   9.429 -0.1258 -0.1586 -0.0802
13296W        W17696   5.938   3.885  29.248  0.1981  0.2283 -0.0621
13297W        W17697  23.273   6.103  32.349  0.0450 -0.1676  0.1385
13298W        W17698   7.807   3.926  22.849  0.0524  0.3678 -0.0457
13299W        W17699  18.505   4.912  32.411 -0.1499  0.2094  0.1917
13300W        W17700  20.666   2.273  31.920 -0.0037 -0.0816  0.3260
13301W        W17701   1.089   5.253   4.062 -0.0233  0.0645 -0.0545
13302W        W17702  15.843   6.689  24.054 -0.1734  0.0161  0.0587
13303W        W17703  16.068   2.435  23.614 -0.0966  0.0554 -0.0772
13304W        W17704  16.638   2.562  28.608 -0.0143 -0.1890 -0.0237
13305W        W17705  16.007   6.328  22.133  0.1674 -0.0608  0.0260
13306W        W17706  14.280   4.097  22.559  0.1663 -0.0337 -0.5710
13307W        W17707  22.853   7.080  26.279  0.0837 -0.0141 -0.0977
13308W        W17708  14.954   2.492   7.564 -0.1478 -0.2163 -0.0915
13309W        W17709  22.064   5.480  20.469 -0.0622  0.1635  0.0153
13310W        W17710   2.892   3.274   6.022  0.1502  0.1751 -0.0859
13311W        W17711  10.080   7.655   5.811 -0.1274 -0.0798 -0.0609
13312W        W17712   4.884   0.434   0.615  0.1361 -0.0208  0.0667
13313W        W17713   6.465   6.231   4.571  0.0380  0.1886  0.1501
13314W        W17714   4.648   7.187  16.592 -0.0052 -0.1353 -0.0629
13315W        W17715   9.182   0.287  25.213 -0.5514  0.1372 -0.0451
13316W        W17716  13.263   1.914   1.404 -0.0380  0.3281  0.0800
13317W        W17717  10.180   3.413  13.655 -0.0499 -0.0817  0.1517
13318W        W17718  23.792   1.757  18.190 -0.3770  0.0895 -0.0115
13319W        W17719  19.289   4.019  20.600 -0.1317 -0.0774  0.1069
13320W        W17720   1.534   6.829   9.762  0.0214 -0.0880 -0.2904
13321W        W17721  20.443   3.122  10.189  0.1163  0.1381  0.1302
13322W        W17722  22.165   6.448  17.437  0.2097  0.1327  0.0956
13323W        W17723  12.575   4.191  12.657 -0.1467  0.2673  0.3023
13324W        W17724  24.534   5.421   4.497 -0.2652  0.0452 -0.1104
13325W        W17725  21.322   1.363  25.539  0.0411 -0.2718 -0.2001
13326W        W17726   9.960   6.822  17.035 -0.2104  0.0291  0.0123
13327W        W17727  16.384   6.527   3.872  0.0627  0.0592  0.2084
13328W        W17728   7.096   0.841  27.695  0.0650 -0.1344 -0.1281
13329W        W17729  22.079   5.837   5.949 -0.1583 -0.0515 -0.1909
13330W        W17730   4.590   2.741   9.857 -0.1740 -0.2405  0.4470
13331W        W17731   0.353   4.652  25.428 -0.2901 -0.0604  0.1825
13332W        W17732  12.794   3.073  13.293 -0.0432  0.3306 -0.1249
13333W        W17733  12.363   1.735   0.359  0.1593  0.0352  0.0626
13334W        W17734  13.312   4.820  30.373 -0.1734  0.2167 -0.2352
13335W        W17735   4.919   0.770   1.516 -0.0391  0.0961 -0.2520
13336W        W17736  15.057   7.789  20.019  0.1073  0.1605 -0.0501
13337W        W17737  12.116   1.706  27.632  0.3420  0.0160  0.4775
13338W        W17738   4.654   3.425   5.339 -0.1707 -0.2196  0.2257
13339W        W17739   8.263   2.255   6.055  0.3196 -0.1310  0.1259
13340W        W17740  22.356   4.805  26.270  0.1798 -0.4831  0.2878
13341W        W17741   8.478   4.027  16.512  0.1346 -0.1839 -0.1307
13342W        W17742   5.271   4.767  25.043 -0.0878 -0.0292 -0.0483
13343W        W17743   9.430   7.041  17.788  0.0228  0.1379 -0.1401
13344W        W17744   5.715   0.002  16.093 -0.1917 -0.3868 -0.2546
13345W        W17745  16.402   1.745  32.280  0.0648 -0.3262  0.0879
13346W        W17746   9.721   3.294  25.977 -0.1208 -0.1636 -0.2303
13347W        W17747   2.354   5.770  26.378  0.1137  0.0463  0.0964
13348W        W17748  11.366   2.465   4.294 -0.0062 -0.4317  0.0257
13349W        W17749  13.061   1.056   6.717 -0.0859 -0.1364 -0.0790
13350W        W17750  24.025   4.363  17.005  0.1188 -0.1835 -0.0867
13351W        W17751  10.791   1.860  27.677  0.1507 -0.1128  0.0753
13352W        W17752   5.045   0.072  26.657 -0.0855  0.3042  0.1415
13353W        W17753  24.024   5.440  26.533  0.0639  0.1269 -0.2476
13354W        W17754  22.050   2.307  22.703 -0.3926  0.1068  0.0782
13355W        W17755  11.996   1.552   5.236 -0.4687  0.1264 -0.0860
13356W        W17756   6.593   4.564   8.682 -0.0917 -0.1982 -0.4022
13357W        W17757  20.678   7.087  16.146  0.4921 -0.0696  0.0285
13358W        W17758  23.955   3.920  18.418 -0.1327 -0.1480  0.0909
13359W        W17759   5.383   2.956  16.306  0.4815 -0.0387 -0.0925
13360W        W17760   4.333   3.588  23.336 -0.0430 -0.0919 -0.1222
13361W        W17761  12.028   0.657   4.398  0.1387 -0.0212  0.1306
13362W        W17762  22.923   0.130  19.140 -0.1997 -0.3874  0.1240
13363W        W17763  14.044   0.002   1.046  0.1578 -0.0831  0.0257
13364W        W17764  24.276   1.612  24.160 -0.1082  0.1742 -0.0642
13365W        W17765   8.361   3.777   3.702  0.0902  0.4274  0.1076
13366W        W17766  10.602   4.288   5.582  0.1682 -0.0200 -0.0643
13367W        W17767   1.095   3.902  22.954 -0.1287  0.0452 -0.1695
13368W        W17768  10.210   2.046   7.721  0.2996  0.1372 -0.0099
13369W        W17769  13.374   6.340  25.675 -0.3195  0.1330  0.3514
13370W        W17770  19.662   3.638   2.057  0.0903  0.1676  0.0121
13371W        W17771  18.843   0.527  22.668  0.3101  0.0560 -0.1391
13372W        W17772  17.920   2.199   9.772  0.1069  0.1127 -0.0762
13373W        W17773  16.221   3.466  29.809  0.2655 -0.0640 -0.0067
13374W        W17774  11.824   5.103  30.048 -0.2691  0.0258 -0.3015
13375W        W17775  23.431   0.597  27.507 -0.0408  0.1464  0.0987
13376W        W17776  21.135   2.327   4.369 -0.2547 -0.2798  0.0313
13377W        W17777   3.339   4.427   5.436  0.1541  0.2916  0.2392
13378W        W17778  14.426   0.827  12.351 -0.1964  0.1290 -0.0239
13379W        W17779   4.751   1.032   5.025  0.3685  0.0275 -0.2378
13380W        W17780  23.251   3.083  29.615  0.0050  0.2834  0.2978
13381W        W17781  19.524   1.504  30.867  0.0054  0.2026 -0.0246
13382W        W17782   8.419   1.460  15.051 -0.3013 -0.1199 -0.2641
13383W        W17783  13.130   1.787  14.454  0.4421 -0.1382 -0.3047
13384W        W17784   0.947   1.234   0.370 -0.1276 -0.0092  0.1207
13385W        W17785   7.547   5.721   3.810 -0.0785 -0.2105 -0.0760
13386W        W17786   9.727   3.618  30.629 -0.0474  0.0054  0.0734
13387W        W17787   4.697   1.691   5.258  0.0784  0.4112 -0.2159
13388W        W17788   6.580   5.469  23.372 -0.1071 -0.3721 -0.1277
13389W        W17789   1.405   6.218  32.617 -0.0038  0.1444  0.0065
13390W        W17790   7.759   5.256  31.635 -0.0200  0.2088 -0.3062
13391W        W17791  11.168   1.603  25.827  0.4728 -0.0910  0.1358
13392W        W17792  22.634   1.483  23.261 -0.6969 -0.3085  0.1216
13393W        W17793  20.577   5.102  14.072  0.1183 -0.0047 -0.2774
13394W        W17794   4.324   3.856  25.044 -0.1919  0.0237  0.1050
13395W        W17795  10.201   5.929  17.894  0.0257  0.1083  0.1793
13396W        W17796   4.593   2.919  27.313 -0.1474  0.2698  0.2837
13397W        W17797  22.794   5.518   8.751  0.0564 -0.0807  0.0870
13398W        W17798  22.503   5.663  17.587  0.0077  0.0101 -0.0651
13399W        W17799   3.270   0.861  12.932  0.1467  0.4161  0.2366
13400W        W17800  23.267   1.942  26.606  0.2864  0.1338 -0.0537
13401W        W17801  22.758   0.435  15.533 -0.2285  0.0065  0.2388
13402W        W17802  17.467   0.340  10.499 -0.1757 -0.3436 -0.0805
13403W        W17803   2.939   5.944   8.814 -0.1482 -0.0145  0.1754
13404W        W17804  10.818   5.328   1.473 -0.1173  0.1729  0.0741
13405W        W17805  10.855   1.027  14.696 -0.1334 -0.1152 -0.1801
13406W        W17806   3.448   3.886   3.397 -0.0248 -0.0156  0.0560
13407W        W17807   3.636   4.113  10.915  0.0216 -0.2418 -0.1474
13408W        W17808  19.094   7.791  17.873  0.4390 -0.0319 -0.0016
13409W        W17809   3.673   0.291   6.971  0.2799  0.0430 -0.1532
13410W        W17810  20.059   0.361  32.300 -0.0061 -0.0487 -0.1153
13411W        W17811  16.203   3.351  26.722 -0.1814  0.1283 -0.0740
13412W        W17812   2.565   2.437   1.096 -0.0617  0.1808 -0.0944
13413W        W17813  19.753   4.866   4.946  0.2216 -0.2612 -0.2325
13414W        W17814   9.795   6.610  28.334 -0.1801  0.0035 -0.1611
13415W        W17815  12.764   5.381   7.995 -0.0810 -0.0525  0.0084
13416W        W17816  22.416   5.952  23.802 -0.1073 -0.1385  0.2291
13417W        W17817  21.582   0.778  21.499  0.2496 -0.1970  0.1526
13418W        W17818   8.611   1.084  18.190  0.0208 -0.0252 -0.0417
13419W        W17819  19.137   0.819   0.891  0.2535  0.1771  0.0573
13420W        W17820  11.843   0.815  11.510  0.2452 -0.0177 -0.0268
13421W        W17821  22.111   1.367  23.147 -0.1870  0.0883  0.0135
13422W        W17822  13.289   6.782  28.274 -0.0816 -0.1783  0.0832
13423W        W17823  13.549   1.009   4.585  0.1458  0.0708  0.0622
13424W        W17824  10.112   5.583  26.265  0.0478 -0.2392 -0.0758
13425W        W17825   4.359   5.065  25.809  0.2376  0.0517  0.0182
13426W        W17826  16.319   6.073   4.205 -0.1309  0.0548  0.0655
13427W        W17827  16.005   3.115  12.047 -0.2883 -0.0511 -0.2099
13428W        W17828   0.058   4.026   0.708  0.1571  0.2649 -0.1400
13429W        W17829  10.328   5.976   6.348  0.0134 -0.3505 -0.0498
13430W        W17830   6.346   0.426   7.486  0.1320  0.3616  0.1018
13431W        W17831  22.412   7.396  23.402 -0.0963 -0.1147  0.1781
13432W        W17832  11.505   6.663   3.471  0.0058 -0.0618  0.1183
13433W        W17833  11.465   6.024   8.978  0.0517 -0.0340  0.1654
13434W        W17834  20.208   3.505  23.814 -0.0050  0.0338 -0.2050
13435W        W17835   1.252   1.711  30.759 -0.2167 -0.0477 -0.0018
13436W        W17836  20.160   5.530  27.158  0.0252 -0.0752 -0.3788
13437W        W17837  23.840   0.216  26.710  0.2247 -0.2475 -0.0337
13438W        W17838   4.935   7.729   0.714  0.0826 -0.2988 -0.0841
13439W        W17839  20.851   3.618  30.865 -0.2327 -0.0236  0.2058
13440W        W17840  20.629   4.031  26.130 -0.1525 -0.0104 -0.0138
13441W        W17841  18.158   4.344  21.489 -0.4212 -0.3145 -0.2476
13442W        W17842  15.067   3.360   8.975 -0.1165  0.0189  0.1889
13443W        W17843  20.776   3.329   5.887  0.1284 -0.2570  0.0039
13444W        W17844   5.121   3.525  28.426  0.0720 -0.0017  0.2038
13445W        W17845  13.767   3.255   1.533 -0.0080 -0.0232  0.0774
13446W        W17846  24.938   4.230   7.112  0.0139  0.4736  0.0797
13447W        W17847  19.793   5.786  30.725 -0.0534 -0.0719  0.1246
13448W        W17848  18.676   0.312  28.779 -0.0479 -0.3117  0.1777
13449W        W17849   0.901   5.374  25.128  0.0637  0.0556 -0.1539
13450W        W17850   9.572   0.550  28.052  0.3008  0.2161 -0.0116
13451W        W17851  17.945   4.336  29.870  0.2110 -0.0398 -0.2360
13452W        W17852  16.974   2.766   8.724  0.1140 -0.0551 -0.1031
13453W        W17853  21.534   5.263  31.654  0.1266  0.0454  0.1244
13454W        W17854  22.250   2.493  19.960  0.1322 -0.1114 -0.1038
13455W        W17855  24.399   3.232  16.918  0.0847  0.1674  0.2497
13456W        W17856   6.336   2.935   1.233 -0.2336  0.2224  0.1458
13457W        W17857   2.480   3.921  26.972 -0.1170  0.3209 -0.1810
13458W        W17858  23.578   0.300   8.517  0.0423  0.0317  0.0816
13459W        W17859  15.000   0.279  31.614 -0.0621  0.0140  0.0035
13460W        W17860   6.940   0.031  31.851  0.1331  0.1304  0.2475
13461W        W17861  21.613   2.543  18.892 -0.0831 -0.1339 -0.2754
13462W        W17862   5.991   6.665  29.018 -0.1571  0.0617  0.0245
13463W        W17863  16.932   3.729   1.842  0.0656  0.1188  0.1854
13464W        W17864  15.355   4.853  21.001  0.1045  0.0413  0.1475
13465W        W17865   4.587   6.338  27.765  0.0014  0.3718  0.0326
13466W        W17866  19.023   1.558   9.026 -0.2293  0.1247  0.1227
13467W        W17867  10.975   4.593  24.515 -0.1280 -0.4405 -0.0687
13468W        W17868  11.815   6.447   0.341  0.0552 -0.3071 -0.0308
13469W        W17869   4.372   5.650   4.609  0.1689  0.2222  0.0220
13470W        W17870  14.064   6.937   7.444  0.0223 -0.1575  0.0870
13471W        W17871   9.963   5.826  16.705  0.0597  0.1142  0.1380
13472W        W17872  17.086   3.877  19.832  0.1677  0.0064  0.4065
13473W        W17873  10.072   3.981   9.367 -0.1658 -0.1549 -0.2155
13474W        W17874  15.695   0.268  32.434 -0.1869  0.1009  0.0231
13475W        W17875   6.903   7.199  10.994  0.1954  0.1243 -0.0204
13476W        W17876  19.216   6.805  25.016 -0.1788 -0.1449 -0.2176
13477W        W17877   3.846   6.710   5.807  0.1805  0.0200 -0.0102
13478W        W17878   6.811   1.003  23.497 -0.0650 -0.1233 -0.4705
13479W        W17879   1.096   5.051  19.063 -0.1897  0.0805  0.0510
13480W        W17880   4.404   0.697  26.594 -0.0541  0.1105 -0.0843
13481W        W17881  14.938   2.848   1.766 -0.3046 -0.0551 -0.2485
13482W        W17882  10.614   1.450   2.273 -0.0749  0.1353 -0.0988
13483W        W17883   9.405   6.504  11.454 -0.1261  0.1204 -0.4513
13484W        W17884  20.196   0.209  30.830 -0.0243  0.0873 -0.1566
13485W        W17885   7.307   0.409  13.661  0.1248  0.1375  0.1878
13486W        W17886  21.912   1.409  23.745 -0.0834  0.0441  0.0794
13487W        W17887  11.956   4.076   3.176 -0.0065 -0.1568  0.0939
13488W        W17888  10.253   4.502  30.800 -0.0297 -0.0004 -0.1343
13489W        W17889  24.368   3.033   2.615  0.0010 -0.0908 -0.2126
13490W        W17890  24.241   3.279  32.366  0.1248 -0.0765  0.0746
13491W        W17891  15.059   1.849  27.298 -0.1353 -0.1742  0.2120
13492W        W17892  11.207   4.890   5.915  0.0721  0.2676  0.3134
13493W        W17893   7.714   5.549   3.260  0.3313  0.1396 -0.0009
13494W        W17894  16.750   1.382  18.574  0.1152 -0.2261  0.2928
13495W        W17895  12.348   2.735   9.390  0.0571 -0.1929 -0.2730
13496W        W17896   6.131   1.960   8.135  0.1913  0.1516  0.0412
13497W        W17897   3.306   5.753  29.216 -0.3029  0.3640 -0.2930
13498W        W17898  12.279   1.134  10.766 -0.0917 -0.2494 -0.0211
13499W        W17899  20.170   7.297   7.655 -0.1034  0.2536  0.0461
13500W        W17900   5.033   1.694  23.057 -0.0814 -0.1177  0.0871
13501W        W17901  14.320   7.412   9.515  0.0328 -0.0859 -0.0331
13502W        W17902   8.123   4.243  15.248 -0.1261  0.1949  0.0115
13503W        W17903  14.980   5.306  25.923  0.2073 -0.0708  0.1772
13504W        W17904   3.439   3.176   8.704 -0.1161  0.1353 -0.0095
13505W        W17905  15.337   2.851   6.399 -0.1374  0.3038 -0.0294
13506W        W17906  16.644   6.045  10.718 -0.0829  0.1322  0.0009
13507W        W17907  24.972   4.420  32.055  0.0984 -0.1453 -0.0992
13508W        W17908  22.640   4.710  24.456 -0.1191  0.2105  0.1305
13509W        W17909   3.329   4.484   6.455  0.0619 -0.0472  0.3336
13510W        W17910  11.584   7.028   7.470 -0.2752  0.1182 -0.3199
13511W        W17911   9.128   2.301   5.985 -0.2066 -0.0575  0.0187
13512W        W17912  21.396   4.970  16.705 -0.0190 -0.4333 -0.1520
13513W        W17913  19.229   2.483  21.648 -0.2267 -0.1232 -0.0568
13514W        W17914   7.545   4.353  15.328 -0.0775  0.0210 -0.0456
13515W        W17915  20.190   6.511  27.417  0.1186 -0.0103 -0.1577
13516W        W17916   6.040   6.385  23.438 -0.0619  0.2034  0.2114
13517W        W17917  21.695   7.414  21.966 -0.2558  0.0989  0.0928
13518W        W17918  18.035   1.934  19.554 -0.1171 -0.0556  0.2164
13519W        W17919  23.575   6.669  30.001 -0.4442  0.0213  0.1446
13520W        W17920   2.759   4.004   4.830  0.0173  0.0158 -0.0174
13521W        W17921   5.044   2.062  15.384 -0.1259  0.1343  0.0562
13522W        W17922   6.975   7.139   0.708 -0.1793 -0.2375 -0.2027
13523W        W17923  20.284   6.253  31.025  0.2502 -0.0547  0.1554
13524W        W17924   4.146   1.208  25.575 -0.0038  0.3782 -0.2260
13525W        W17925  19.623   3.764  27.139  0.1764  0.0481 -0.2177
13526W        W17926  18.280   2.342   2.603 -0.1732 -0.0247  0.0408
13527W        W17927   5.322   1.651  26.232  0.0303 -0.0103 -0.1027
13528W        W17928   0.221   4.137  30.578 -0.2189  0.0743 -0.3310
13529W        W17929   3.993   2.456  32.202  0.1124  0.1947 -0.1318
13530W        W17930  24.482   2.501  30.583 -0.1144 -0.1618 -0.3675
13531W        W17931  18.548   2.331   8.780 -0.1983  0.0800  0.0561
13532W        W17932  10.588   5.341  15.474 -0.1472 -0.1996 -0.0773
13533W        W17933   3.226   4.982   1.688 -0.2226 -0.1319 -0.0462
13534W        W17934  21.151   3.173  28.513  0.1385 -0.2965 -0.0518
13535W        W17935  19.918   1.098  22.168 -0.2654  0.1772  0.1844
13536W        W17936   3.174   1.400  25.321 -0.0453 -0.0485 -0.0786
13537W        W17937  20.750   7.176  14.759 -0.1016  0.0979 -0.2326
13538W        W17938   1.910   7.664  29.473  0.2032  0.1419 -0.2557
13539W        W17939  16.979   3.854  17.656  0.1251 -0.3534  0.2495
13540W        W17940  13.461   6.733  32.348  0.1095  0.1063 -0.0184
13541W        W17941   2.227   5.388  27.370 -0.1375 -0.0682 -0.0914
13542W        W17942   7.622   4.342  23.174 -0.0836  0.0086  0.2036
13543W        W17943   9.943   5.698  32.072  0.2383  0.1284 -0.0771
13544W        W17944  12.716   3.155  31.100  0.2490  0.0092 -0.2150
13545W        W17945   9.066   2.171   3.731 -0.1226  0.1515 -0.0130
13546W        W17946  15.203   3.801   6.910 -0.1187 -0.1646  0.1391
13547W        W17947  17.627   5.856  25.129 -0.1424  0.1109  0.2771
13548W        W17948   7.057   1.164  26.751  0.2178 -0.3386 -0.1133
13549W        W17949   2.393   0.327   6.643 -0.1462 -0.1429  0.1717
13550W        W17950  24.499   2.018  30.742 -0.2110  0.0089 -0.0796
13551W        W17951  23.401   3.961   0.484 -0.3361 -0.0197  0.2695
13552W        W17952  20.438   2.484   2.848  0.2111  0.0721 -0.2376
13553W        W17953   6.855   3.024  10.109  0.1546 -0.1782  0.0379
13554W        W17954   6.397   1.683  22.916 -0.3583 -0.0240 -0.0157
13555W        W17955   1.649   2.588   0.378 -0.2038 -0.2263 -0.4415
13556W        W17956  11.831   2.718   9.776 -0.0853 -0.2836  0.0203
13557W        W17957   7.951   2.958   7.103 -0.1680 -0.3220  0.0552
13558W        W17958   5.413   7.567  11.706  0.2279 -0.2610 -0.0975
13559W        W17959  20.709   7.006   9.971 -0.2823 -0.1016 -0.2295
13560W        W17960  10.245   3.201   1.397  0.0603  0.2903 -0.0854
13561W        W17961  14.979   2.346  26.245  0.1006  0.0068 -0.3121
13562W        W17962  16.488   5.667  30.001  0.1909  0.1837 -0.1160
13563W        W17963  10.198   4.649  27.173 -0.0149  0.0926 -0.0534
13564W        W17964   2.910   4.742   8.358  0.1266  0.1960 -0.0780
13565W        W17965  18.644   0.973  25.751 -0.1309  0.1247 -0.0788
13566W        W17966  20.722   4.506  21.103  0.0011  0.3974  0.0081
13567W        W17967   4.807   3.861  10.434 -0.2643 -0.1032  0.3833
13568W        W17968   7.618   2.736   6.629  0.1879  0.0653  0.1315
13569W        W17969  15.186   2.622   5.590 -0.3607 -0.0826 -0.0206
13570W        W17970   9.433   1.069  25.968  0.1272  0.2751  0.1260
13571W        W17971  15.041   6.601   0.902 -0.0944 -0.1111  0.1038
13572W        W17972   9.986   5.841  29.642 -0.0441  0.3199 -0.0097
13573W        W17973   2.944   4.156   1.956 -0.1920 -0.3383  0.0359
13574W        W17974   9.104   6.778  30.624  0.2981 -0.0503 -0.1294
13575W        W17975  13.854   3.687   2.830 -0.1135 -0.2030  0.2456
13576W        W17976  11.095   3.966   6.174 -0.0101 -0.0089  0.0897
13577W        W17977   9.229   0.017  18.953 -0.1610 -0.1237  0.0292
13578W        W17978  19.883   2.349   9.753  0.2333  0.2314  0.0085
13579W        W17979   1.926   5.339  25.006  0.0326 -0.0893 -0.0035
13580W        W17980   5.673   0.404   8.324 -0.1194  0.2583  0.0799
13581W        W17981  13.539   7.772   2.957  0.2801  0.2643  0.1520
13582W        W17982  23.053   6.420  16.517  0.0974  0.0814  0.1008
13583W        W17983   0.025   2.580  18.916 -0.2021  0.2333  0.1115
13584W        W17984  15.391   7.811   0.729  0.0492 -0.2067  0.0495
13585W        W17985   0.312   5.264  32.024  0.2136 -0.2647 -0.1672
13586W        W17986  23.746   5.599  24.542  0.2890 -0.0854  0.2235
13587W        W17987   4.585   7.770  30.097 -0.0220 -0.0991 -0.1358
13588W        W17988  18.744   0.118  27.279 -0.0787  0.0665  0.1595
13589W        W17989   6.205   3.463   1.791  0.1343 -0.1630 -0.1005
13590W        W17990  15.226   0.064  28.566  0.2297  0.0267  0.2221
13591W        W17991  20.718   4.790   8.494  0.1806 -0.0845  0.1284
13592W        W17992  18.409   1.053  22.389  0.1909 -0.0771 -0.2990
13593W        W17993   1.754   2.510  18.571 -0.0106  0.1114  0.0513
13594W        W17994  17.844   2.576  24.585 -0.2224  0.0055  0.3949
13595W        W17995  15.521   1.656  27.199 -0.2345 -0.1095 -0.0719
13596W        W17996   7.160   2.342   4.436 -0.0488 -0.1475  0.3787
13597W        W17997  20.961   0.227  21.944  0.1265  0.0011 -0.0478
13598W        W17998  18.833   6.285  20.417  0.0988 -0.2246  0.0955
13599W        W17999  21.444   4.588   9.915  0.0048 -0.1505  0.1461
13600W        W18000   6.477   1.852  14.996 -0.1043  0.1372  0.1439
13601W        W18001  16.000   3.812   9.494  0.0473  0.2471  0.0616
13602W        W18002  18.124   1.373  23.511 -0.0570  0.1311  0.2056
13603W        W18003  23.680   5.046  31.581  0.4188 -0.0813 -0.0619
13604W        W18004   0.627   4.059   0.018 -0.1302  0.0449 -0.1925
13605W        W18005   2.336   0.112  29.425  0.1287  0.1573 -0.1221
13606W        W18006  12.178   5.343  30.389 -0.2661  0.2409 -0.1298
13607W        W18007   1.602   2.948  21.609  0.3585 -0.0940  0.0241
13608W        W18008  18.453   5.420  28.331 -0.2149 -0.2087 -0.0769
13609W        W18009  18.918   7.463  27.370  0.0130 -0.0279  0.3514
13610W        W18010   6.902   0.838  23.015 -0.1156  0.0546 -0.2880
13611W        W18011  18.671   6.420  16.867  0.2191  0.1866 -0.0338
13612W        W18012  10.039   1.247  29.721 -0.2273  0.0807 -0.2556
13613W        W18013   3.373   2.822  25.793  0.3072  0.2232  0.4546
13614W        W18014   7.891   1.000  28.132  0.5232 -0.1174 -0.0987
13615W        W18015   7.070   2.593  14.660 -0.1182  0.0477  0.0852
13616W        W18016  16.850   7.537  29.280 -0.1044 -0.2760  0.3498
13617W        W18017   6.147   4.186  12.309  0.1185  0.2256 -0.2762
13618W        W18018  19.175   1.437  24.261 -0.0902  0.1455 -0.3637
13619W        W18019   3.886   2.670   2.390  0.1230 -0.1657  0.1469
13620W        W18020  12.352   2.562  14.331  0.1361 -0.2451 -0.3330
13621W        W18021  18.866   1.308   7.019 -0.3760 -0.2678  0.2327
13622W        W18022   4.750   0.309   1.620 -0.0226  0.1767 -0.4129
13623W        W18023   1.661   7.809   4.368 -0.0190 -0.0169 -0.1499
13624W        W18024   5.033   4.326  24.973  0.0564  0.5304 -0.1925
13625W        W18025  17.363   0.356   2.112  0.1620  0.0765 -0.3619
13626W        W18026  10.644   5.961  23.332 -0.0296 -0.2702 -0.1842
13627W        W18027  14.683   4.591   7.032 -0.1325  0.0188 -0.0454
13628W        W18028  17.205   3.695  20.795 -0.0093  0.5168 -0.0088
13629W        W18029  10.577   4.409  22.863 -0.1446  0.1616  0.1902
13630W        W18030  22.246   5.508   3.850 -0.2156 -0.0461 -0.0698
13631W        W18031  15.841   6.644  11.082 -0.1126 -0.0291 -0.0029
13632W        W18032  22.012   3.528   2.693  0.1866  0.0992  0.2697
13633W        W18033  13.694   1.672  10.591 -0.3169 -0.3735  0.0447
13634W        W18034  17.611   3.036  17.183 -0.1933  0.4421  0.0958
13635W        W18035  21.317   6.648  27.621  0.1800  0.0596  0.0825
13636W        W18036  19.947   5.617   1.182 -0.1706 -0.0584 -0.0707
13637W        W18037  11.047   6.244  32.314  0.0388  0.5498  0.0231
13638W        W18038  10.465   0.118   1.443  0.0441  0.1387 -0.1078
13639W        W18039  23.758   4.364  15.359  0.1585 -0.1118 -0.0501
13640W        W18040   2.117   7.240   2.361  0.0716  0.1054  0.0098
13641W        W18041   6.254   5.825   3.108  0.1211 -0.2224  0.0133
13642W        W18042   3.421   1.863  29.891  0.1084 -0.4662 -0.0397
13643W        W18043  12.813   1.152  10.705 -0.4132  0.3089 -0.2884
13644W        W18044  19.646   0.524  30.727 -0.2199  0.2708 -0.0500
13645W        W18045   0.684   1.231   7.849  0.2076  0.2838  0.0554
13646W        W18046  16.119   7.283  29.947  0.1080 -0.3188  0.0306
13647W        W18047  23.930   2.541   4.383 -0.1562 -0.1639  0.2137
13648W        W18048  20.543   6.422  20.727 -0.0970  0.0949 -0.2688
13649W        W18049   8.766   4.728  15.509 -0.2016 -0.1634  0.0296
13650W        W18050  22.298   7.428  29.331 -0.3328 -0.1345  0.1621
13651W        W18051   1.162   3.101  24.476  0.2508 -0.0458  0.0677
13652W        W18052  18.460   0.954  30.391 -0.0001 -0.1615  0.0267
13653W        W18053   5.270   1.788  16.533 -0.2273  0.1700  0.0596
13654W        W18054  22.193   0.101  29.357  0.1088  0.2992  0.4443
13655W        W18055  23.315   4.478  29.744  0.0337  0.1564 -0.3058
13656W        W18056  15.440   7.493   5.947 -0.0768  0.0018  0.1579
13657W        W18057   1.422   1.426  25.720 -0.1401  0.1003  0.0264
13658W        W18058   5.340   3.459  24.832  0.2542  0.1448  0.3899
13659W        W18059  16.282   6.116   4.748 -0.0457  0.4371  0.4735
13660W        W18060  15.908   3.426  17.965 -0.0719  0.0277 -0.1509
13661W        W18061  10.188   5.972  30.702 -0.3592  0.1004  0.1181
13662W        W18062   6.475   4.105  17.670  0.1289 -0.0569 -0.0651
13663W        W18063  12.044   0.463   1.910 -0.0317  0.1287  0.0021
13664W        W18064  10.759   3.062   2.624  0.2298 -0.1493  0.1412
13665W        W18065   4.839   4.211   5.533 -0.0586  0.1942  0.1662
13666W        W18066   9.684   7.149   7.390  0.0665  0.0869 -0.1466
13667W        W18067   9.683   0.526  31.433 -0.1372 -0.0018 -0.2009
13668W        W18068  11.315   7.794   0.944 -0.0976  0.2129  0.3752
13669W        W18069   0.556   3.904   1.782 -0.1513 -0.1222  0.2760
13670W        W18070   0.462   6.767  30.770 -0.1425  0.1498  0.0737
13671W        W18071  10.464   5.371  14.102  0.1559 -0.3232  0.0392
13672W        W18072  10.971   3.305  13.424 -0.0918  0.2517 -0.2759
13673W        W18073  19.366   7.790   4.577  0.0883 -0.0773 -0.0335
13674W        W18074  12.174   0.872  24.225  0.1461 -0.0029  0.2600
13675W        W18075   4.814   5.681  16.730  0.0454 -0.1690 -0.0149
13676W        W18076  10.129   2.637  25.581  0.1306  0.0877 -0.1720
13677W        W18077  12.651   4.274  27.566 -0.1572  0.1198  0.0709
13678W        W18078  15.303   5.720   5.752 -0.2461  0.0959 -0.0215
13679W        W18079  24.834   3.291  24.166  0.0013 -0.3369  0.1010
13680W        W18080  10.624   4.630   4.023  0.1617  0.1744  0.0300
13681W        W18081   8.486   2.373   2.815 -0.0880  0.2005  0.2397
13682W        W18082  19.657   5.336  30.331  0.2558  0.1171 -0.1435
13683W        W18083  22.344   7.631  24.831 -0.0359  0.1104 -0.1420
13684W        W18084  19.411   1.632  20.544 -0.4421  0.0232 -0.2926
13685W        W18085  18.844   2.539  17.755  0.0454 -0.0991 -0.1073
13686W        W18086  16.106   0.292   4.795 -0.1964  0.0273  0.2522
13687W        W18087   7.531   6.222  12.541 -0.1075  0.1298 -0.0300
13688W        W18088  17.964   3.832  26.138 -0.0404  0.0926 -0.0426
13689W        W18089   2.390   4.412   0.269  0.0868  0.2348 -0.2506
13690W        W18090  15.801   6.727  22.510 -0.4431  0.3180  0.1872
13691W        W18091   2.273   4.772  32.664  0.0595  0.4215 -0.2397
13692W        W18092  24.525   2.658   5.346  0.1064  0.1694 -0.1353
13693W        W18093  17.762   2.765   8.953 -0.2029  0.2843 -0.1721
13694W        W18094   9.338   5.126   6.856 -0.2377  0.2916  0.1806
13695W        W18095   4.788   6.910  15.769 -0.0923  0.2119  0.0064
13696W        W18096  23.128   2.240  20.755  0.0759 -0.2773 -0.3752
13697W        W18097  24.809   1.646  21.001  0.0223  0.0089 -0.0194
13698W        W18098   9.548   4.948   2.477 -0.1391  0.0119  0.1285
13699W        W18099  24.415   7.404   9.522  0.3274  0.2239  0.0047
13700W        W18100  20.834   2.140   4.683 -0.1356 -0.1427  0.0986
13701W        W18101  16.314   3.465  21.909 -0.1259  0.2432  0.1198
13702W        W18102  24.979   4.668   2.916 -0.0851  0.2119 -0.0602
13703W        W18103   3.230   6.937  12.776  0.0630 -0.2960  0.1626
13704W        W18104   4.450   4.696  12.926 -0.1101 -0.3029 -0.2731
13705W        W18105  21.221   5.933   5.051  0.1973 -0.1664  0.1421
13706W        W18106  21.555   6.354   0.746  0.1315  0.1817 -0.1783
13707W        W18107  13.197   1.859  27.178  0.1288 -0.0018 -0.0305
13708W        W18108   9.481   4.693  30.318  0.0185 -0.0411  0.1061
13709W        W18109  16.765   4.992   0.581 -0.2267 -0.3302 -0.0259
13710W        W18110   2.772   6.182  10.993  0.0992 -0.1733  0.0209
13711W        W18111  20.338   0.842  18.756 -0.0504  0.2750  0.2124
13712W        W18112   6.843   7.534  16.910  0.0494  0.0038 -0.0108
13713W        W18113  16.918   1.814  10.459 -0.1161  0.2486 -0.1993
13714W        W18114  23.380   2.087  20.295 -0.0229  0.1039  0.1034
13715W        W18115   4.356   3.901  12.332 -0.0415  0.0821  0.2759
13716W        W18116   5.140   5.931   3.422 -0.2774  0.1525  0.0911
13717W        W18117  10.478   0.507  29.256 -0.0111 -0.0318 -0.1395
13718W        W18118  11.572   5.554   0.377  0.1489  0.2369  0.0598
13719W        W18119   2.588   2.289  31.720 -0.0002 -0.0101 -0.3736
13720W        W18120   3.152   2.842  29.702 -0.2011 -0.0470  0.0097
13721W        W18121   6.287   6.726  26.846  0.4776  0.2151  0.0842
13722W        W18122  18.373   1.593  16.588  0.0250  0.1766 -0.0841
13723W        W18123   6.758   1.926  17.151 -0.1115 -0.0387 -0.2156
13724W        W18124   0.502   2.464   4.759  0.2111 -0.0900 -0.0275
13725W        W18125  12.030   7.375  13.231  0.0964  0.4376 -0.1499
13726W        W18126   4.027   6.343  21.392 -0.1949  0.3668  0.0538
13727W        W18127  18.580   5.037   4.200  0.5486 -0.1036  0.2845
13728W        W18128  15.492   5.991  21.626  0.3441 -0.0127 -0.0766
13729W        W18129  23.125   4.757   0.497  0.1400  0.2188 -0.1483
13730W        W18130  12.562   6.497  26.513 -0.1652  0.1398  0.2013
13731W        W18131   7.219   0.830  23.923 -0.2503  0.3173  0.2650
13732W        W18132  10.665   0.102  27.040  0.2266 -0.0883  0.0673
13733W        W18133  24.627   2.837  18.183 -0.0321 -0.1945 -0.0216
13734W        W18134  18.191   3.454  26.425 -0.1786  0.0645 -0.2301
13735W        W18135   9.941   5.221   1.189  0.0407 -0.0493 -0.1415
13736W        W18136  22.733   5.133  15.980  0.0388 -0.1924 -0.0451
13737W        W18137   9.734   3.932  31.679  0.0615  0.1926  0.2753
13738W        W18138   9.420   1.390   7.739  0.2943  0.2854 -0.2031
13739W        W18139   1.267   2.637  26.961 -0.0041 -0.3238 -0.0959
13740W        W18140   8.535   3.057   1.873 -0.1521  0.1653 -0.4166
13741W        W18141  11.860   1.834   4.042  0.0533  0.1520  0.1773
13742W        W18142  11.099   2.358  31.726 -0.1409  0.0940  0.2827
13743W        W18143   9.939   6.419  31.163  0.1633  0.2294  0.2337
13744W        W18144   5.112   7.155  23.224 -0.1117 -0.1510  0.1020
13745W        W18145   1.018   6.950  20.420 -0.0190 -0.2673 -0.1848
13746W        W18146  21.592   2.285  17.714 -0.1110 -0.0393  0.1775
13747W        W18147  20.645   4.043  19.451  0.0500 -0.1707 -0.1427
13748W        W18148   2.155   6.064  30.947  0.0700  0.0018 -0.1457
13749W        W18149   0.757   0.206  10.634  0.0498  0.0699  0.2586
13750W        W18150  20.947   4.497  29.823 -0.3652 -0.0092  0.3647
13751W        W18151  21.333   1.187   1.829  0.1691 -0.1191  0.2870
13752W        W18152  16.713   1.989  19.127 -0.2219 -0.0963  0.0391
13753W        W18153   7.981   3.840  29.577  0.3520  0.0618 -0.3941
13754W        W18154   7.773   0.238   2.210  0.0267  0.0479  0.0461
13755W        W18155  20.936   2.851   4.626  0.1625  0.1170  0.2377
13756W        W18156  18.002   7.228  22.580  0.1410  0.3340 -0.0613
13757W        W18157  13.232   0.824  30.298 -0.0547  0.4178 -0.1589
13758W        W18158   1.959   5.994  25.980  0.1509 -0.0167  0.1029
13759W        W18159   2.237   2.899  20.187 -0.3398  0.1493 -0.0384
13760W        W18160   3.725   2.930  26.880 -0.0741  0.0213  0.0707
13761W        W18161  14.853   1.666  20.555  0.0793 -0.0346  0.0174
13762W        W18162  22.060   7.124  31.536  0.3413  0.2460  0.1870
13763W        W18163   7.968   6.651  14.634  0.1809 -0.0957  0.1166
13764W        W18164   4.919   1.095  15.493  0.2472  0.0768  0.2213
13765W        W18165   4.665   3.930  14.078  0.1378  0.0791  0.2791
13766W        W18166  17.289   0.470   1.547 -0.0391 -0.0769 -0.0130
13767W        W18167  19.301   5.071   1.776  0.0702 -0.0801  0.0013
13768W        W18168   6.450   0.066  10.203 -0.0168 -0.0015  0.1204
13769W        W18169   8.731   6.743  25.902 -0.0783  0.1716 -0.1645
13770W        W18170  15.392   2.058   9.469 -0.2031 -0.1847  0.1537
13771W        W18171  13.941   0.840   6.852 -0.0049 -0.1298 -0.0070
13772W        W18172   2.027   2.688  20.675  0.3343  0.0298 -0.0007
13773W        W18173  15.470   3.274  23.358 -0.1404  0.3130 -0.0824
13774W        W18174  21.779   1.984  32.265  0.0495  0.1848 -0.2426
13775W        W18175   8.821   2.061  10.486 -0.0054 -0.2288  0.1471
13776W        W18176   1.317   3.127   7.923  0.0111  0.1081 -0.2534
13777W        W18177  11.138   4.658  30.109  0.0181  0.2369 -0.1764
13778W        W18178   1.436   1.270   0.336  0.0184 -0.0694  0.0330
13779W        W18179  19.671   3.255  26.901  0.0529 -0.2012  0.0124
13780W        W18180   2.420   5.533   8.262  0.1788  0.0351 -0.1342
13781W        W18181  18.219   1.225   1.207 -0.1350 -0.1915  0.0223
13782W        W18182   1.095   0.657   1.900  0.0023  0.1162  0.1718
13783W        W18183   5.335   1.875  24.535  0.0454  0.0922  0.3074
13784W        W18184  14.411   3.198  27.606  0.5307  0.2686  0.1588
13785W        W18185  13.359   0.035   7.984  0.0848 -0.1399 -0.1077
13786W        W18186   2.642   5.677  20.052 -0.0164  0.1769  0.1383
13787W        W18187  20.882   7.006  14.187 -0.0280 -0.2490 -0.0367
13788W        W18188   4.539   3.450  31.635  0.3335  0.0138  0.0065
13789W        W18189  10.700   6.243   4.492 -0.0822  0.1397 -0.4428
13790W        W18190   0.345   1.229  20.033  0.0032 -0.1147 -0.4141
13791W        W18191   5.411   6.214  12.935 -0.0141 -0.1062 -0.1564
13792W        W18192  12.848   3.548  29.097 -0.2020 -0.1041 -0.1361
13793W        W18193   9.968   2.523  28.805  0.1869  0.4453  0.0284
13794W        W18194  20.916   5.431  21.454 -0.3652 -0.1184 -0.0362
13795W        W18195   8.930   3.878   4.489  0.3064 -0.1040  0.1077
13796W        W18196   6.852   4.267  25.870 -0.0338 -0.0364  0.1043
13797W        W18197  11.384   4.832  16.714 -0.0216  0.2486 -0.1896
13798W        W18198   7.900   6.613  16.764  0.0359  0.1705  0.2226
13799W        W18199  13.002   3.991   3.522 -0.3383 -0.1775 -0.1130
13800W        W18200   9.551   3.385   4.071 -0.1663  0.0848  0.0475
13801W        W18201  19.226   5.177  16.979  0.0417  0.1887  0.2104
13802W        W18202  14.723   4.465  10.347  0.2905  0.2584 -0.1841
13803W        W18203  18.463   5.329  21.384 -0.3792  0.2600  0.0530
13804W        W18204  11.465   5.069  14.447  0.1720 -0.0431 -0.2830
13805W        W18205  13.664   4.006   0.087  0.1342 -0.0130  0.0160
13806W        W18206  19.887   4.845  20.811 -0.1255 -0.1886 -0.2378
13807W        W18207   2.081   5.553  30.960 -0.3769 -0.2656  0.4169
13808W        W18208   8.728   1.916   9.815  0.0983 -0.1170 -0.0898
13809W        W18209   4.667   0.952  32.418  0.0470  0.2522 -0.1704
13810W        W18210  17.522   5.578  30.555 -0.2984  0.0492 -0.1023
13811W        W18211  17.953   4.678  16.215 -0.1795  0.4252 -0.1964
13812W        W18212  15.331   2.900  30.696 -0.1353 -0.3158  0.0615
13813W        W18213   6.569   2.958   7.362  0.3476  0.1344  0.1417
13814W        W18214   4.738   0.796   9.658 -0.0726 -0.0192  0.1161
13815W        W18215   2.556   7.447  22.837  0.1887 -0.2192  0.2844
13816W        W18216  24.464   2.577  22.647  0.0273  0.0871  0.0711
13817W        W18217  16.927   2.952   5.254  0.0802 -0.2173  0.2448
13818W        W18218   2.121   5.229  21.320  0.7017 -0.0666  0.0198
13819W        W18219  17.915   5.607  19.808 -0.0633 -0.0624  0.0012
13820W        W18220  11.422   3.720  25.748 -0.1075  0.1571 -0.2095
13821W        W18221   8.790   0.191  15.126 -0.0588 -0.1228 -0.0075
13822W        W18222   3.827   2.880   6.903  0.0847  0.0943 -0.0838
13823W        W18223  16.400   2.443   4.684  0.0724  0.1208  0.0579
13824W        W18224  11.541   5.590   7.514  0.0629  0.0257  0.0891
13825W        W18225  16.565   5.746   8.409 -0.1386  0.1095  0.2595
13826W        W18226  17.647   5.198  31.437  0.3037 -0.3577 -0.0948
13827W        W18227  11.973   2.436   7.155 -0.1856 -0.2750  0.0482
13828W        W18228   5.275   1.143  23.214 -0.0847  0.1356  0.1942
13829W        W18229  18.371   2.761  31.289 -0.2499  0.0613  0.2102
13830W        W18230  10.626   0.382  10.179 -0.1141 -0.1572 -0.2283
13831W        W18231   9.652   0.794   4.683  0.0023 -0.1379 -0.1973
13832W        W18232  24.013   3.686  26.326 -0.1880  0.0643 -0.1194
13833W        W18233  12.920   2.040   2.357  0.0829  0.0052 -0.3527
13834W        W18234  10.075   0.350  12.846  0.1880 -0.0270 -0.1908
13835W        W18235   0.619   2.700  32.452  0.1398  0.0401  0.0211
13836W        W18236  12.838   2.100  12.868 -0.1854 -0.0434  0.2770
13837W        W18237  13.276   1.827  23.533 -0.5032  0.1265  0.0542
13838W        W18238   5.926   3.463  25.604  0.2448 -0.0415  0.1399
13839W        W18239   7.717   4.728  25.822 -0.1783 -0.0593  0.0175
13840W        W18240   0.922   1.741  25.077  0.1321  0.2530  0.1976
13841W        W18241   1.829   2.662  29.865  0.1393  0.0382 -0.2046
13842W        W18242   9.934   7.637  18.147  0.1050 -0.1184 -0.5613
13843W        W18243  14.356   4.973  27.050  0.1496 -0.1925  0.0763
13844W        W18244   7.505   7.668  17.804  0.1476 -0.2927 -0.0011
13845W        W18245  23.126   6.163   9.476  0.1919  0.0659  0.3262
13846W        W18246  15.055   1.160   9.930 -0.0371 -0.1291  0.1688
13847W        W18247  12.326   1.617   6.870  0.0263 -0.1417  0.0380
13848W        W18248  20.018   2.132   2.790  0.0986 -0.0445  0.0170
13849W        W18249   2.322   1.464   9.714 -0.2772  0.1380  0.0840
13850W        W18250  24.830   1.113  24.281 -0.1928 -0.2311  0.0262
13851W        W18251   1.340   7.397   6.576 -0.2191 -0.0288  0.0561
13852W        W18252  23.201   1.207   8.213  0.1911  0.2607 -0.1785
13853W        W18253   5.092   4.323  25.866 -0.1446 -0.4443 -0.0521
13854W        W18254  22.154   3.818   5.226 -0.0245 -0.2251  0.1267
13855W        W18255   0.999   3.460  31.412  0.0749 -0.0810  0.3334
13856W        W18256   8.329   2.810  12.298 -0.0267 -0.0836 -0.1456
13857W        W18257   6.925   7.165   0.219 -0.0549  0.1322 -0.3284
13858W        W18258  22.193   1.115  29.169 -0.1534 -0.1977  0.2685
13859W        W18259   8.805   2.127   7.786  0.0960 -0.1513  0.1495
13860W        W18260  20.453   7.225   1.721 -0.1072  0.0908 -0.1725
13861W        W18261  12.866   0.557  31.098 -0.3179  0.0467  0.0125
13862W        W18262  16.745   0.216  27.806 -0.0326 -0.0040 -0.0146
13863W        W18263   7.640   4.269  27.879  0.0154 -0.4030 -0.0924
13864W        W18264  22.415   2.046  26.403 -0.0224  0.1125  0.2058
13865W        W18265   4.910   3.576  24.545  0.0615 -0.0854 -0.2777
13866W        W18266   3.898   6.366   4.926  0.0721 -0.1735  0.2075
13867W        W18267   6.964   5.957   9.551  0.2303  0.2742  0.1418
13868W        W18268  22.689   2.617  26.845 -0.0126  0.1262 -0.0628
13869W        W18269  14.681   1.897  21.926 -0.1599  0.1453 -0.0146
13870W        W18270  14.822   4.011  23.196  0.2710  0.1163 -0.2605
13871W        W18271   7.199   1.232  30.410  0.0456 -0.5672  0.1160
13872W        W18272  11.745   3.073  26.698 -0.6799  0.1141  0.1148
13873W        W18273   3.607   5.818  10.622  0.1068 -0.3539  0.0633
13874W        W18274   2.343   3.675   6.586 -0.2340 -0.1628  0.2110
13875W        W18275  24.970   4.053  10.886  0.0662 -0.0786 -0.2658
13876W        W18276  13.360   0.489  15.007 -0.2188  0.3708  0.1814
13877W        W18277   5.377   0.791   5.089  0.1128 -0.0601  0.2793
13878W        W18278   1.267   0.904  23.776  0.1239 -0.0659  0.0324
13879W        W18279  19.228   5.877  23.792  0.1063  0.0195  0.2247
13880W        W18280  13.251   2.457   4.127  0.0148 -0.1816 -0.1809
13881W        W18281  18.833   2.862   0.523 -0.1062  0.0544  0.0800
13882W        W18282  15.182   7.090  30.168  0.1277 -0.1140  0.2091
13883W        W18283  17.262   4.536   5.359  0.0506  0.1359  0.1214
13884W        W18284   5.641   3.600   5.850 -0.0114  0.0932  0.1117
13885W        W18285   4.076   0.485  11.508  0.1796  0.1010  0.3399
13886W        W18286  22.976   1.773   1.378  0.0515  0.0509  0.1737
13887W        W18287   9.599   5.592   1.115 -0.0071 -0.1907  0.0610
13888W        W18288  13.624   2.475  13.937 -0.0422  0.1722 -0.1238
13889W        W18289  22.685   0.318  30.684 -0.1746 -0.1073  0.0185
13890W        W18290   9.374   0.634  13.969 -0.0616  0.3510 -0.0078
13891W        W18291  13.914   4.067  13.205  0.0978  0.0363 -0.0671
13892W        W18292  14.149   6.816  31.890  0.2013 -0.2152 -0.0343
13893W        W18293  18.646   7.516  15.925  0.4016  0.0094  0.0954
13894W        W18294   6.182   2.624  16.546  0.0135  0.1938 -0.0642
13895W        W18295   4.905   3.259  11.792  0.0815  0.1294  0.2664
13896W        W18296   0.872   1.726   7.823 -0.0458 -0.1734 -0.2332
13897W        W18297   5.733   6.648   7.544  0.1365 -0.1808  0.3365
13898W        W18298  16.877   1.672   5.590  0.2036  0.2477  0.1442
13899W        W18299   6.416   5.477  26.626 -0.0441 -0.1691  0.3305
13900W        W18300  18.493   4.878  23.499  0.0803  0.1987  0.1028
13901W        W18301  14.240   1.109  25.801  0.3111  0.1459  0.1258
13902W        W18302  24.699   7.168  20.214 -0.0031  0.1399  0.1455
13903W        W18303  14.299   7.090  28.669  0.4643 -0.0357 -0.3147
13904W        W18304   5.292   2.678   9.392  0.5447  0.3598 -0.4184
13905W        W18305  14.913   3.886  31.541  0.1439  0.2206  0.1792
13906W        W18306   8.079   1.941  31.312 -0.2110 -0.1352  0.0560
13907W        W18307  22.756   6.242  20.443 -0.2467 -0.2640 -0.0905
13908W        W18308  25.043   5.371   9.885 -0.1409  0.1165  0.0612
13909W        W18309  10.320   3.174   9.739 -0.1208  0.2398  0.1047
13910W        W18310   8.289   5.736   6.390  0.0659  0.1942  0.0894
13911W        W18311   8.041   0.735   6.899  0.1331  0.1470 -0.0385
13912W        W18312   2.390   6.419  23.518  0.3015  0.0785  0.0219
13913W        W18313  13.801   6.400  25.385 -0.1994  0.0458 -0.0755
13914W        W18314  18.058   2.203   1.442  0.1038  0.0305  0.1333
13915W        W18315   0.829   6.679   5.410 -0.0910 -0.2383  0.1320
13916W        W18316   6.845   0.929  17.266  0.2786  0.1854 -0.1465
13917W        W18317   9.320   4.441   8.442 -0.0531  0.1378 -0.2102
13918W        W18318  19.678   1.402  24.877 -0.1316 -0.2393 -0.1683
13919W        W18319   1.697   6.101   3.338 -0.1178  0.3790  0.2918
13920W        W18320  13.612   0.145   9.521 -0.2293  0.1430  0.2166
13921W        W18321  14.269   2.396   7.563  0.1739 -0.0429 -0.1051
13922W        W18322  24.605   4.681   2.190 -0.0045  0.1124  0.1574
13923W        W18323  15.924   1.831  23.320  0.1048  0.2644  0.0761
13924W        W18324   8.200   3.047  23.689 -0.1333 -0.1296 -0.0354
13925W        W18325   0.777   0.714  21.208 -0.3230  0.0956  0.1999
13926W        W18326   0.376   7.402   0.488  0.0322 -0.0177 -0.1475
13927W        W18327   3.566   4.484  27.717 -0.2766 -0.1738 -0.1065
13928W        W18328   1.339   2.947   0.721  0.1270  0.1804 -0.0824
13929W        W18329   3.952   0.130  15.184  0.0794  0.0819  0.1681
13930W        W18330  10.452   5.941   7.177  0.3656 -0.2729  0.3215
13931W        W18331  22.123   2.989  17.232  0.0704  0.0597  0.2896
13932W        W18332   2.969   1.203   6.427  0.0355 -0.3365  0.0309
13933W        W18333  20.671   0.439   0.190 -0.1515  0.2045 -0.1039
13934W        W18334   3.792   2.622   0.478  0.1940  0.4977 -0.0391
13935W        W18335  24.764   2.126   2.312  0.1644 -0.4692  0.2845
13936W        W18336  14.225   4.658  24.802  0.0010 -0.0342  0.1254
13937W        W18337   2.860   3.526   4.619  0.0122 -0.2297 -0.0893
13938W        W18338   8.038   3.753  18.478 -0.0231 -0.1314 -0.0233
13939W        W18339  11.651   2.390  12.401 -0.3045  0.1259 -0.2710
13940W        W18340  10.679   2.481  32.457  0.0485  0.0865 -0.0163
13941W        W18341   0.593   5.400   7.203  0.1862  0.1002 -0.2091
13942W        W18342   4.366   6.817   0.385 -0.1666  0.0608 -0.0663
13943W        W18343  11.758   5.168  16.650 -0.1985  0.3088  0.2335
13944W        W18344  20.342   7.055  10.274  0.0812  0.0311 -0.1425
13945W        W18345   4.305   6.491   4.233  0.1512 -0.1192  0.0828
13946W        W18346  16.389   6.613  27.030 -0.4016 -0.0756 -0.3440
13947W        W18347   2.768   3.214  11.905 -0.0356 -0.1099  0.2470
13948W        W18348  19.323   2.655  15.287 -0.2040  0.2619 -0.0828
13949W        W18349  22.244   6.490  27.839 -0.0022  0.0796 -0.0067
13950W        W18350   0.487   3.083  18.250 -0.0852 -0.2972 -0.0680
13951W        W18351   3.506   7.397  29.255 -0.0917  0.0684 -0.0156
13952W        W18352  21.791   0.245   7.993  0.0278  0.2240  0.0501
13953W        W18353  14.931   1.760  12.267 -0.0603 -0.2067  0.0058
13954W        W18354  16.429   6.123  22.517  0.4387  0.0029 -0.0096
13955W        W18355   8.409   1.447   8.538  0.2493 -0.1888 -0.0906
13956W        W18356   9.358   5.652   5.593 -0.2141  0.0957  0.0240
13957W        W18357  19.217   7.714   6.451  0.1343 -0.1320  0.2455
13958W        W18358  17.618   1.233  22.668  0.4498  0.1605  0.0767
13959W        W18359   7.662   1.024  31.333 -0.1171 -0.0072  0.0172
13960W        W18360  22.864   4.501  31.152  0.1706 -0.0152  0.0472
13961W        W18361  20.938   2.979  21.209  0.2805 -0.1001 -0.4391
13962W        W18362  17.930   1.815  17.209  0.0678  0.0277  0.1786
13963W        W18363  23.466   5.708   3.164  0.0679 -0.1427 -0.2645
13964W        W18364  20.726   5.735  26.243  0.4200  0.0782 -0.3934
13965W        W18365   0.446   6.582   4.154  0.0477  0.1181 -0.1062
13966W        W18366  11.072   2.117  11.775  0.2459  0.1919  0.1122
13967W        W18367  24.461   2.611  27.578  0.1350  0.2592 -0.1350
13968W        W18368  14.499   2.611   6.654 -0.2704 -0.0074 -0.2025
13969W        W18369  13.873   4.641   5.550  0.3303 -0.1926  0.1199
13970W        W18370   5.477   5.568  30.743 -0.0383  0.0474 -0.1729
13971W        W18371   7.938   6.340   9.321 -0.0442  0.0332  0.1974
13972W        W18372   0.192   2.750   4.190  0.0994  0.0316  0.2855
13973W        W18373   0.412   5.379   5.740  0.0330  0.0331  0.0688
13974W        W18374   0.889   1.781  27.004  0.0184 -0.3645  0.3327
13975W        W18375  12.162   6.227   5.649 -0.0985  0.1474  0.0471
13976W        W18376  17.968   5.441   8.067  0.1122 -0.1033  0.0960
13977W        W18377  16.671   5.899  28.877 -0.0210 -0.0402  0.1436
13978W        W18378  14.649   5.411  22.148  0.0270 -0.2437 -0.0179
13979W        W18379  21.321   7.786  24.421 -0.1559  0.1164 -0.1372
13980W        W18380  20.482   1.935   2.837  0.2406 -0.0174 -0.0430
13981W        W18381  22.089   6.739  28.770  0.0435  0.2005  0.0525
13982W        W18382  13.041   4.626   8.730 -0.1717  0.0512 -0.1262
13983W        W18383   5.070   2.315  14.478 -0.0819 -0.1948 -0.2332
13984W        W18384   1.906   3.852  23.064 -0.2765  0.3188  0.0382
13985W        W18385   7.205   4.982   1.166 -0.2278  0.0059  0.0400
13986W        W18386   6.375   1.985  12.415  0.1834 -0.1459  0.0817
13987W        W18387   3.566   0.496  13.811  0.2374  0.0103  0.0302
13988W        W18388  14.959   6.338  23.607  0.0142 -0.1117 -0.0947
13989W        W18389   3.957   4.381  24.330  0.1010 -0.2368  0.2550
13990W        W18390  11.282   7.387  23.798 -0.0845 -0.1665  0.0492
13991W        W18391   4.256   4.072   1.936  0.1326 -0.3145  0.1006
13992W        W18392   6.223   4.321  26.622 -0.0644 -0.0331  0.0821
13993W        W18393   6.460   6.004   5.816 -0.3415 -0.1400  0.1418
13994W        W18394   5.411   2.694  13.106  0.1933 -0.0188  0.1440
13995W        W18395  23.483   4.221  19.383 -0.3395  0.1005  0.3189
13996W        W18396  14.491   2.151  13.599 -0.0718 -0.2872 -0.1021
13997W        W18397  23.925   2.125   8.553 -0.0353 -0.1375 -0.1436
13998W        W18398   6.922   7.400  26.666 -0.1426 -0.1759 -0.2075
13999W        W18399  20.366   3.551   4.180 -0.3208  0.1437 -0.0021
14000W        W18400  19.127   2.565  25.655 -0.1359  0.1286  0.1028
14001W        W18401  19.476   2.989  18.264  0.0566 -0.1322  0.0388
14002W        W18402   1.683   6.922  29.474  0.1604  0.0244  0.1042
14003W        W18403  19.093   5.035  26.841 -0.2050  0.0698  0.0280
14004W        W18404  20.724   1.473  16.772  0.0621 -0.1574  0.1445
14005W        W18405  17.794   1.094  21.052 -0.1458 -0.1548  0.1011
14006W        W18406   1.343   5.306  24.123 -0.3259  0.0350 -0.0749
14007W        W18407  19.605   6.941   5.062 -0.0781  0.2072 -0.1377
14008W        W18408  17.090   0.432  23.521  0.0291 -0.3102 -0.2195
14009W        W18409   5.313   0.493  10.393 -0.0335  0.1243  0.0682
14010W        W18410  25.004   0.896   1.680 -0.1069 -0.1508  0.0502
14011W        W18411  19.998   1.670   0.947  0.2211 -0.2733  0.0761
14012W        W18412   8.881   1.820   5.125 -0.0725 -0.1231  0.3294
14013W        W18413   3.840   2.557  12.013 -0.2542 -0.1958 -0.3877
14014W        W18414   0.081   6.763   7.218 -0.1962 -0.0364  0.2165
14015W        W18415  21.539   4.579  18.798 -0.0931  0.1263 -0.0820
14016W        W18416  17.511   6.738  24.623  0.1155  0.0607 -0.0310
14017W        W18417  13.767   7.095  27.811 -0.0751  0.1770 -0.0585
14018W        W18418  23.666   6.281   0.600 -0.2662  0.3027 -0.0582
14019W        W18419  18.712   4.003  29.772 -0.0626  0.0857  0.0511
14020W        W18420   4.277   5.576   1.493 -0.2168  0.1909 -0.0200
14021W        W18421  19.300   0.045   3.478  0.3374  0.1363  0.0537
14022W        W18422  20.538   4.163  20.765  0.0103  0.1196  0.0668
14023W        W18423   7.151   7.074   1.339 -0.1683  0.0342 -0.0749
14024W        W18424   6.731   1.340   2.608  0.0015  0.2420  0.0698
14025W        W18425  11.873   6.796  11.058 -0.3222 -0.0945 -0.1531
14026W        W18426   9.282   6.003  11.588  0.5904  0.0581  0.0530
14027W        W18427  23.186   7.003  18.861  0.0244  0.1260  0.1196
14028W        W18428  14.356   4.769   7.365  0.1454  0.1587  0.0313
14029W        W18429   4.061   7.257  30.070 -0.1328 -0.2324  0.2977
14030W        W18430  24.600   3.283   2.112  0.0328 -0.0198 -0.1522
14031W        W18431  15.804   3.208   6.935 -0.0681 -0.0829 -0.2714
14032W        W18432  24.021   1.046  22.015 -0.0334 -0.0629  0.0366
14033W        W18433  23.665   3.827   9.087 -0.2547 -0.0089  0.0626
14034W        W18434  24.808   4.372  26.627 -0.1721  0.0349  0.1444
14035W        W18435  15.429   6.905   2.877 -0.0733 -0.0391  0.0222
14036W        W18436  13.273   5.286  10.960 -0.0389 -0.0054  0.2309
14037W        W18437   3.445   3.644  24.756 -0.1772 -0.0396 -0.1516
14038W        W18438  17.787   7.719  22.357 -0.0068 -0.0403  0.1608
14039W        W18439  15.837   5.399  30.822 -0.1910  0.0513  0.2283
14040W        W18440  23.255   0.925  16.693  0.1767  0.0914 -0.0405
14041W        W18441  10.613   5.845   7.723 -0.3225  0.0623 -0.0117
14042W        W18442  12.434   1.539  25.400  0.0101 -0.1895 -0.1062
14043W        W18443  13.390   2.854  28.242  0.0303 -0.3341 -0.1837
14044W        W18444   3.807   1.048  31.999 -0.0529 -0.2761 -0.1953
14045W        W18445   3.646   0.700  11.072 -0.2362  0.2030  0.1926
14046W        W18446  21.566   2.038  21.995 -0.0401 -0.0474 -0.4090
14047W        W18447  22.557   1.615  27.580 -0.1325  0.1446  0.2407
14048W        W18448  10.238   3.907  31.635 -0.1846 -0.2587  0.1392
14049W        W18449  14.654   0.971  24.896  0.0205  0.0396 -0.2635
14050W        W18450  15.750   6.843   0.859 -0.3628  0.1423  0.5049
14051W        W18451   4.871   7.269   6.726  0.0686 -0.0313  0.1130
14052W        W18452  10.511   2.038  17.640 -0.0409  0.1754 -0.1017
14053W        W18453  21.004   3.395  28.911  0.1231 -0.1621  0.0843
14054W        W18454   5.071   6.871  16.187  0.0553 -0.1024  0.0185
14055W        W18455  18.234   3.401  16.503  0.1646  0.3148  0.0540
14056W        W18456  22.122   2.424  17.045 -0.1239  0.3031  0.2536
14057W        W18457   7.324   5.444  10.320 -0.0070 -0.0197  0.0872
14058W        W18458   5.560   7.823  32.135 -0.1000 -0.1091 -0.1338
14059W        W18459   5.945   0.740   7.940  0.2778 -0.1274 -0.0542
14060W        W18460  22.600   4.959  21.473  0.0713  0.1305 -0.0782
14061W        W18461  19.918   1.866  32.475  0.0424 -0.1923 -0.2043
14062W        W18462  10.685   0.322  10.859  0.0416 -0.1535  0.2372
14063W        W18463   2.414   5.179  25.269  0.1068 -0.0352  0.0458
14064W        W18464  17.958   6.539  29.195 -0.0499  0.2161 -0.0378
14065W        W18465  21.683   5.569   3.728 -0.1915  0.1912 -0.4848
14066W        W18466  20.396   0.036  24.253  0.1775  0.1268 -0.2415
14067W        W18467  23.288   7.213  17.710  0.1934  0.2527 -0.0548
14068W        W18468  17.230   1.585  31.070 -0.2300  0.0053  0.0357
14069W        W18469  15.851   6.526   9.433 -0.0973  0.0281  0.1001
14070W        W18470   9.936   4.447   6.624 -0.5205  0.0365 -0.0775
14071W        W18471  20.488   3.908  23.671  0.1503  0.1436 -0.1952
14072W        W18472   8.786   5.521   9.617  0.0828  0.1676  0.3164
14073W        W18473  11.560   2.390  32.400  0.1296  0.1941  0.1571
14074W        W18474  19.157   5.944   8.487  0.2040 -0.1609  0.0882
14075W        W18475  11.657   6.684  12.085 -0.1966  0.0143  0.1744
14076W        W18476   6.866   2.192  13.476  0.2700 -0.0048  0.4383
14077W        W18477   7.979   0.427  27.245 -0.2095  0.1169 -0.1580
14078W        W18478   0.585   2.594  16.561 -0.0355  0.0308  0.0238
14079W        W18479   7.758   6.993  14.087 -0.0642  0.0665 -0.2688
14080W        W18480  22.887   2.865   8.864  0.0491  0.1306 -0.1197
14081W        W18481  21.386   2.543   1.438  0.3434 -0.2005  0.0346
14082W        W18482  15.324   4.123  24.671  0.0101  0.0893 -0.4508
14083W        W18483   6.860   2.801  32.328  0.1093 -0.2138  0.0912
14084W        W18484  18.378   5.556   7.686 -0.1400  0.0195 -0.1653
14085W        W18485   0.107   4.716   7.009 -0.1255  0.2019 -0.3413
14086W        W18486   7.017   1.544   3.892  0.0287  0.0548  0.2652
14087W        W18487  19.646   5.028   8.034  0.2421 -0.0797 -0.2056
14088W        W18488  19.120   3.839   3.511  0.1992  0.0199  0.1125
14089W        W18489  16.106   3.023  24.411 -0.0434 -0.1254 -0.1376
14090W        W18490  10.211   6.422  28.096  0.1297 -0.1025 -0.0682
14091W        W18491  21.325   2.610  30.235 -0.0275 -0.1693  0.2495
14092W        W18492   7.436   5.431  28.619 -0.0941  0.6458 -0.2117
14093W        W18493  22.295   0.514   2.369  0.1271  0.0699 -0.2880
14094W        W18494  20.113   0.557  27.633 -0.2630 -0.1577  0.0539
14095W        W18495   9.242   2.463  14.782 -0.1633  0.2843 -0.0829
14096W        W18496   1.339   4.482  24.555 -0.3047 -0.0068  0.0379
14097W        W18497  23.514   7.788  30.535 -0.2479  0.0722 -0.0350
14098W        W18498   7.390   6.925   8.234 -0.2688 -0.2042  0.0922
14099W        W18499   7.751   6.227  27.348 -0.0801  0.0435 -0.4000
14100W        W18500  20.283   0.592   8.604 -0.0851  0.0025 -0.0531
14101W        W18501   6.572   0.603  16.951 -0.2221 -0.2241  0.0104
14102W        W18502  13.307   4.702   8.271 -0.0237  0.0442  0.1310
14103W        W18503   4.212   2.598  27.451 -0.2318 -0.0032 -0.0488
14104W        W18504   5.381   3.588   3.766  0.1521 -0.1682  0.1481
14105W        W18505   3.438   6.120   7.730  0.0986  0.1247  0.0027
14106W        W18506  24.072   1.740  26.808  0.1493 -0.0359  0.3774
14107W        W18507   7.677   6.767   1.105  0.2125  0.0058  0.2246
14108W        W18508   2.529   0.863  22.841  0.2040  0.4674 -0.0792
14109W        W18509   4.403   5.236  23.150 -0.1622  0.0266 -0.0830
14110W        W18510   7.048   3.479  23.311  0.0784  0.2601  0.0488
14111W        W18511   0.664   1.387  24.238 -0.1564  0.3563 -0.2027
14112W        W18512  15.729   4.430   8.661 -0.0215  0.0310 -0.1465
14113W        W18513  23.387   0.987  26.633  0.4263  0.1039  0.1116
14114W        W18514  20.043   1.267  27.004  0.1159 -0.1147  0.1325
14115W        W18515  21.948   2.582  31.308 -0.1294 -0.2275  0.0569
14116W        W18516  14.158   4.475   6.288 -0.0388 -0.4103  0.1638
14117W        W18517   0.737   0.056  10.065 -0.0717 -0.1003  0.0556
14118W        W18518   2.567   4.593  27.302  0.1808 -0.2060  0.2155
14119W        W18519   7.643   7.405  14.726  0.2745 -0.1361  0.2700
14120W        W18520  14.164   1.867  27.602  0.0857  0.0518  0.0880
14121W        W18521   0.487   4.086  10.070 -0.0097  0.0643 -0.2335
14122W        W18522  12.364   0.893   7.699  0.0891  0.1020  0.0843
14123W        W18523  23.381   4.353   6.986  0.0258  0.2738 -0.0917
14124W        W18524   9.700   6.279  25.193  0.1501  0.1333 -0.0253
14125W        W18525   8.928   0.824  11.579  0.1160  0.1912  0.3220
14126W        W18526  22.874   2.917  30.613 -0.1480  0.0039 -0.0911
14127W        W18527   9.707   4.015  25.169 -0.0889 -0.0272 -0.2232
14128W        W18528  18.994   1.721  26.090 -0.1196  0.0374  0.0574
14129W        W18529  17.870   0.044  20.996  0.0134 -0.3731 -0.1336
14130W        W18530  16.884   0.784  18.024  0.1610  0.1016  0.0836
14131W        W18531   4.283   4.876  23.543 -0.2002  0.0155 -0.2527
14132W        W18532   4.679   5.355  12.924  0.2037 -0.1018  0.0450
14133W        W18533  22.289   4.095   8.447 -0.3318 -0.0185 -0.2489
14134W        W18534   4.955   2.491  30.739 -0.2199  0.1480 -0.0203
14135W        W18535  10.956   0.679   9.944 -0.1480 -0.3217  0.0045
14136W        W18536   8.486   5.233   0.604  0.2489 -0.1304 -0.0423
14137W        W18537   2.509   4.646  29.145  0.2234  0.0980 -0.1244
14138W        W18538   1.378   6.014  20.602 -0.3681 -0.0363  0.0265
14139W        W18539   9.611   6.513  17.298  0.1058  0.1086  0.0400
14140W        W18540   7.195   4.695  27.543 -0.0082  0.0816  0.2323
14141W        W18541   7.120   4.332   5.868 -0.0506 -0.1512  0.0890
14142W        W18542  11.851   4.422  26.405  0.1204 -0.2645 -0.0516
14143W        W18543   4.919   4.635  27.129  0.3017 -0.2987 -0.0390
14144W        W18544   0.504   2.853   6.708  0.2100  0.1892 -0.0270
14145W        W18545  20.217   3.114  19.331  0.1583  0.2219 -0.1028
14146W        W18546  19.129   0.912   3.506 -0.1709 -0.2429  0.0642
14147W        W18547   8.177   5.064  18.751 -0.1132  0.0645 -0.0986
14148W        W18548   8.817   0.180   0.464 -0.0059 -0.4530 -0.1100
14149W        W18549  24.110   4.995  30.535  0.1339  0.0907 -0.2764
14150W        W18550  19.418   1.968  27.226  0.0875 -0.0718  0.0408
14151W        W18551  23.111   6.629   3.298  0.1795  0.0190  0.2567
14152W        W18552  21.438   7.132  31.476  0.0891  0.0679  0.0289
14153W        W18553  20.911   2.652  28.433 -0.1122 -0.0771  0.0338
14154W        W18554  14.596   5.700  25.920  0.0390 -0.0215  0.0743
14155W        W18555  16.429   7.194   3.705  0.0383 -0.2331  0.1859
14156W        W18556   5.325   7.393   7.029 -0.1430 -0.2905 -0.0435
14157W        W18557   4.411   1.027  23.914  0.0430 -0.2654 -0.0801
14158W        W18558   4.716   5.109   5.708 -0.0314  0.1356 -0.1962
14159W        W18559  23.989   6.819  26.163  0.0873  0.1322  0.0664
14160W        W18560   8.856   7.717  16.701  0.0725  0.0627 -0.1370
14161W        W18561  21.374   6.167   6.717  0.0839 -0.1893 -0.2777
14162W        W18562  12.256   5.509  28.782  0.3122  0.2155 -0.0552
14163W        W18563  22.811   5.359  32.407 -0.0272 -0.0225  0.0880
14164W        W18564   5.770   3.444  12.376 -0.0695 -0.0449  0.0047
14165W        W18565   1.152   2.656   9.301 -0.1183 -0.0655  0.0591
14166W        W18566  18.835   7.169  26.748 -0.0999  0.2145  0.1237
14167W        W18567  10.722   0.132  15.536 -0.0025  0.3076 -0.1873
14168W        W18568  17.584   7.193   4.251  0.0057  0.0474  0.0193
14169W        W18569   7.136   2.487  12.853 -0.0920 -0.2283  0.1640
14170W        W18570  13.191   3.935   7.604 -0.0412  0.0308 -0.1726
14171W        W18571  24.071   5.604   3.423 -0.1331  0.4469  0.0532
14172W        W18572  22.412   5.149  25.914 -0.1226  0.4499 -0.2224
14173W        W18573   4.525   4.052  26.808 -0.1558  0.0577 -0.4184
14174W        W18574  11.832   2.128  11.826  0.1480  0.2099 -0.1459
14175W        W18575  10.196   3.879   7.378 -0.1304 -0.2519  0.1722
14176W        W18576  11.903   0.715   7.864 -0.2443 -0.4164  0.0692
14177W        W18577  18.587   6.688  10.167  0.0157 -0.2223 -0.4093
14178W        W18578   8.660   3.148  13.147  0.0854 -0.1893 -0.2182
14179W        W18579  10.423   0.605   6.366  0.1205  0.1697  0.1501
14180W        W18580   8.829   1.715  14.419 -0.1112  0.2908  0.2110
14181W        W18581  17.087   1.235   9.213  0.0305 -0.1687  0.0147
14182W        W18582  13.939   2.002  27.121 -0.3593 -0.2953 -0.0811
14183W        W18583  10.711   4.196  13.595  0.1272 -0.2963  0.2425
14184W        W18584   5.997   0.742   1.978  0.0172 -0.2467  0.2529
14185W        W18585  21.849   5.562  18.830  0.0817  0.1078 -0.0228
14186W        W18586  14.719   3.377   3.578  0.0494 -0.0274  0.0513
14187W        W18587  14.589   7.210   6.781  0.1087 -0.1087  0.1353
14188W        W18588  17.395   1.425   6.266 -0.3262 -0.0454  0.0368
14189W        W18589  10.583   3.577  13.283 -0.0527  0.2534  0.2240
14190W        W18590  11.245   3.465  15.798  0.1015 -0.3423  0.1603
14191W        W18591  21.176   2.121   1.072 -0.1012  0.0601 -0.2445
14192W        W18592  24.347   6.564  22.112 -0.2658  0.3207  0.1522
14193W        W18593  12.024   3.176  31.153 -0.0423 -0.0395  0.0111
14194W        W18594  11.363   7.794   4.282  0.0088 -0.0723 -0.0156
14195W        W18595  20.283   2.359  15.665 -0.0938  0.0950  0.1169
14196W        W18596   4.175   0.208  10.287 -0.1202  0.3082 -0.3417
14197W        W18597  15.775   6.669  19.518 -0.4941  0.1746 -0.1290
14198W        W18598   2.149   6.320  12.126 -0.2784 -0.0574  0.0004
14199W        W18599   2.572   7.203  28.837 -0.0435  0.2249  0.1714
14200W        W18600  23.853   1.346  14.730 -0.1412  0.0166  0.0761
14201W        W18601  17.193   4.878   1.069 -0.0859 -0.1689 -0.0009
14202W        W18602   8.095   2.103   6.955  0.1308  0.3927  0.1667
14203W        W18603  10.136   0.539   0.417  0.0170 -0.3059 -0.2412
14204W        W18604   7.537   5.661  15.695 -0.1569  0.2488  0.3275
14205W        W18605  15.894   7.491   7.196 -0.1667  0.1724  0.0379
14206W        W18606  14.720   3.792   3.292  0.0888  0.1709  0.0907
14207W        W18607  23.334   0.444  20.916  0.2109  0.0253  0.2090
14208W        W18608   7.870   0.065  23.074 -0.4187  0.0986  0.2441
14209W        W18609  23.847   2.701  19.557  0.1210  0.0082  0.2422
14210W        W18610   5.181   3.008  25.774 -0.0553 -0.0194  0.2820
14211W        W18611  18.941   4.751  24.402 -0.0273  0.1616  0.0329
14212W        W18612  15.839   0.830  12.303  0.0241 -0.1307 -0.0746
14213W        W18613   3.982   2.884   3.766 -0.0073 -0.1797  0.1618
14214W        W18614   6.513   3.439   5.902  0.0337  0.1369 -0.0015
14215W        W18615   6.119   1.800  29.563  0.1107 -0.0843 -0.1569
14216W        W18616   7.459   3.891  14.255 -0.0997  0.1667  0.0009
14217W        W18617   0.827   7.166   5.904 -0.2683 -0.1257 -0.1345
14218W        W18618   8.181   3.082   4.847 -0.1840 -0.0229  0.0470
14219W        W18619  10.301   2.399  23.593  0.1826  0.0467  0.0574
14220W        W18620  12.176   2.933   1.869  0.1021 -0.3317  0.0583
14221W        W18621   4.386   2.276  21.320 -0.4315 -0.2088  0.2262
14222W        W18622  13.896   7.507  22.173  0.1356  0.1392 -0.2190
14223W        W18623  15.944   7.678  29.195 -0.1380 -0.1174 -0.0543
14224W        W18624  14.221   0.078  20.759  0.0088  0.1759 -0.3185
14225W        W18625  15.323   0.908   3.328 -0.0589 -0.0269  0.0468
14226W        W18626  12.303   6.373  25.018 -0.1322  0.1282 -0.0585
14227W        W18627  18.597   5.191  26.204 -0.2010  0.0919  0.0145
14228W        W18628  15.410   7.210  25.253  0.0939  0.0386 -0.1766
14229W        W18629  23.308   4.825  15.448 -0.1302  0.1324  0.1333
14230W        W18630  20.447   1.470   5.628  0.0314 -0.2114 -0.2117
14231W        W18631   4.369   5.963  13.503 -0.1034 -0.0091 -0.3864
14232W        W18632   1.984   2.991  23.457 -0.0888  0.3041  0.3297
14233W        W18633  22.437   2.671  24.798  0.2513 -0.2102 -0.1896
14234W        W18634  20.198   4.304  23.530 -0.3437  0.1417 -0.0914
14235W        W18635  23.690   1.128  30.025  0.0344 -0.0868 -0.3130
14236W        W18636   3.573   4.067   8.524 -0.2212 -0.1206  0.0183
14237W        W18637  19.265   3.507  23.316  0.0184 -0.3308 -0.2543
14238W        W18638  18.915   6.922   2.795  0.0476  0.1056  0.0461
14239W        W18639  23.119   1.130   5.711  0.3680 -0.1159  0.0158
14240W        W18640  16.143   2.255  11.717 -0.4214  0.0397  0.2502
14241W        W18641   4.902   2.248  12.054 -0.0903 -0.1450  0.0238
14242W        W18642  19.448   4.897  20.617 -0.0069  0.0928 -0.1686
14243W        W18643  16.941   1.388   6.976  0.2795  0.0060 -0.0212
14244W        W18644   7.582   7.694  26.257 -0.1057 -0.0688  0.0254
14245W        W18645   6.543   1.420  24.998 -0.0723  0.3229  0.1246
14246W        W18646   6.122   6.321   0.595 -0.0248  0.3987 -0.0655
14247W        W18647   0.468   2.760  11.205  0.1186  0.2291 -0.2905
14248W        W18648   7.172   4.309  26.252  0.3441 -0.0485  0.0302
14249W        W18649  12.551   3.028  22.216  0.2709  0.0047 -0.0707
14250W        W18650  20.608   7.084  19.876  0.2705 -0.0283  0.2056
14251W        W18651   2.662   3.785  26.430 -0.0200  0.2510 -0.2955
14252W        W18652   4.934   4.819   8.262  0.0222 -0.1743  0.0754
14253W        W18653   6.618   2.194  10.184 -0.1458 -0.0368  0.2089
14254W        W18654  12.951   4.548  21.269 -0.0328 -0.0162 -0.2536
14255W        W18655  11.263   4.742  13.949 -0.2263 -0.0917 -0.0670
14256W        W18656  21.279   0.338  31.656  0.0648 -0.1353 -0.1465
14257W        W18657  21.832   2.432   2.155 -0.0132 -0.1536 -0.2550
14258W        W18658   7.315   2.877  10.860 -0.0066 -0.2246  0.0926
14259W        W18659   3.606   4.815   2.986 -0.1280  0.1383  0.3719
14260W        W18660   9.980   7.267   1.901  0.1254  0.1090  0.0185
14261W        W18661   8.430   0.812   6.515 -0.1065  0.0364  0.0698
14262W        W18662   0.358   6.314   3.455  0.0225 -0.0674  0.3701
14263W        W18663  10.531   7.506   7.078 -0.3043  0.0762 -0.1523
14264W        W18664  14.074   0.586  11.751 -0.2863  0.0573 -0.0024
14265W        W18665  19.708   1.757  31.922  0.0269  0.0895  0.4230
14266W        W18666   0.998   7.821  29.805 -0.1306  0.1035  0.0990
14267W        W18667  17.077   4.276   7.887  0.0680 -0.1630 -0.5161
14268W        W18668  11.438   3.871   5.861  0.3350  0.1795  0.0116
14269W        W18669  22.492   1.888  17.918 -0.1890  0.1583 -0.2918
14270W        W18670  19.212   2.964  32.279  0.0741 -0.2109 -0.2571
14271W        W18671   3.632   4.218  21.961  0.2366 -0.1070 -0.2764
14272W        W18672  22.761   2.176  25.388 -0.0783 -0.1431 -0.1379
14273W        W18673  15.727   0.466  27.627  0.1516  0.0713  0.2966
14274W        W18674   2.315   5.875  29.973  0.0905  0.0774 -0.0360
14275W        W18675  12.448   5.189   8.920 -0.1544 -0.0262  0.3283
14276W        W18676  20.626   1.849   1.572 -0.0101  0.3009 -0.0431
14277W        W18677   4.959   4.190  27.303 -0.0473 -0.0774  0.1092
14278W        W18678  12.597   7.452  11.868 -0.0858 -0.1982 -0.1548
14279W        W18679  23.813   2.122  17.457 -0.2611  0.0970  0.0759
14280W        W18680   5.380   7.478  31.201 -0.1043 -0.2372  0.1812
14281W        W18681  14.542   2.564   1.629  0.1876  0.2177  0.1242
14282W        W18682   6.782   1.142  29.323 -0.1808 -0.2049  0.0864
14283W        W18683   4.614   7.111  11.385  0.0408 -0.0850 -0.0297
14284W        W18684  20.852   4.758  27.396  0.1726 -0.1035  0.1052
14285W        W18685  19.511   7.372   6.600 -0.1027  0.0513 -0.3042
14286W        W18686   0.942   3.805  21.722  0.0637 -0.1008 -0.0032
14287W        W18687   9.832   6.868   6.374 -0.0235 -0.0164 -0.1214
14288W        W18688  16.680   0.393  24.262  0.0338 -0.0558  0.1271
14289W        W18689  22.660   2.024  30.952  0.3736 -0.2168  0.0778
14290W        W18690  23.307   5.953  14.701 -0.1354  0.1715  0.2428
14291W        W18691  18.424   5.432  20.548 -0.2470 -0.0483 -0.1371
14292W        W18692  16.175   0.697  23.263  0.0408 -0.0033 -0.3747
14293W        W18693  14.766   2.088  12.700 -0.0094  0.1225 -0.0932
14294W        W18694   4.655   7.692   6.543  0.0254  0.0086  0.0167
14295W        W18695   9.463   4.474  26.610  0.1161 -0.1221  0.1221
14296W        W18696  19.000   1.120   4.939  0.2620 -0.2020  0.0610
14297W        W18697   3.519   4.778   9.648 -0.1245  0.0262 -0.0924
14298W        W18698   4.804   0.119  32.350 -0.2456 -0.1604 -0.0734
14299W        W18699  14.364   3.794  22.960 -0.1021 -0.0373  0.1693
14300W        W18700   3.530   1.284   9.817 -0.1314  0.0092 -0.0923
14301W        W18701  24.376   3.178  15.154 -0.0484 -0.2028  0.0204
14302W        W18702   8.707   4.738  14.635 -0.1016 -0.0576 -0.0096
14303W        W18703  24.614   1.308   5.748 -0.1579 -0.0079  0.1703
14304W        W18704  15.952   4.592   2.420  0.3240 -0.3246 -0.1386
14305W        W18705  16.697   2.309  21.336  0.0447  0.0704  0.2433
14306W        W18706   4.163   2.745  22.914 -0.2751 -0.0204  0.2821
14307W        W18707   4.286   0.673  26.125  0.1257 -0.2126 -0.1370
14308W        W18708   7.056   7.610  12.882 -0.1913 -0.0444 -0.1371
14309W        W18709   0.599   1.998  10.586 -0.0508 -0.1948  0.1077
14310W        W18710  18.503   1.311  18.938 -0.1031  0.1059  0.1927
14311W        W18711  13.123   0.087   7.374 -0.0730  0.1864 -0.0034
14312W        W18712  16.141   4.029  28.440  0.1386  0.0166 -0.2116
14313W        W18713   2.518   2.138  23.099  0.0937 -0.0500  0.0322
14314W        W18714   0.418   6.141  25.158 -0.0772 -0.1896 -0.2186
14315W        W18715  10.230   3.416  30.938 -0.4516 -0.0480 -0.0737
14316W        W18716   6.039   3.557   3.330 -0.0342  0.0860  0.0108
14317W        W18717  23.399   6.218   1.493 -0.0627 -0.4584 -0.2811
14318W        W18718   3.350   0.977   6.201  0.0971 -0.0347 -0.0505
14319W        W18719  21.349   3.545  17.853  0.0975 -0.0648 -0.3268
14320W        W18720  16.885   2.603  19.975 -0.1976 -0.3817 -0.0638
14321W        W18721  23.838   7.024  28.309  0.0674 -0.0408  0.1336
14322W        W18722  15.101   0.993  23.288  0.0949 -0.0338  0.0499
14323W        W18723  18.992   7.335  24.244  0.2717  0.3142 -0.2385
14324W        W18724  23.402   6.357  19.340 -0.0850  0.1758  0.0023
14325W        W18725  14.080   5.773   0.078  0.0503 -0.0302  0.0638
14326W        W18726   3.439   5.494  26.591 -0.0947  0.1984 -0.0619
14327W        W18727  21.188   0.027   2.854 -0.1458 -0.2540  0.0120
14328W        W18728   8.452   3.898   7.157 -0.1180 -0.0848 -0.2572
14329W        W18729   6.113   2.470  31.735 -0.1617 -0.0683  0.1250
14330W        W18730   8.080   4.028  12.399  0.0606 -0.0705 -0.0359
14331W        W18731   9.285   3.921  12.980  0.1821  0.1024 -0.3004
14332W        W18732  18.594   7.501  30.684 -0.2023 -0.3621 -0.1223
14333W        W18733  22.278   5.766  20.011  0.2392  0.0230 -0.1612
14334W        W18734  22.380   3.207  16.842  0.1111 -0.5286  0.1871
14335W        W18735  15.909   3.054  31.179  0.1586 -0.2106 -0.0353
14336W        W18736  23.538   2.150   5.656  0.1667  0.1754 -0.0226
14337W        W18737  20.822   2.920  24.783 -0.2935 -0.0670 -0.0698
14338W        W18738   1.822   6.250  23.715 -0.0613  0.2208  0.2057
14339W        W18739  20.420   1.707  19.929  0.0062 -0.3222 -0.0656
14340W        W18740  22.612   5.567  29.348 -0.3293  0.0829  0.0758
14341W        W18741   4.936   2.193  25.343  0.1814 -0.2333 -0.0304
14342W        W18742  16.506   2.947  20.764 -0.0382  0.1285 -0.0688
14343W        W18743  20.326   0.705   0.962  0.1698 -0.0610 -0.0436
14344W        W18744  16.897   2.121   5.800 -0.0125  0.1564 -0.0660
14345W        W18745   1.603   7.450   5.731 -0.0103  0.5220  0.3335
14346W        W18746   6.509   3.744   6.833 -0.2787  0.1911  0.0915
14347W        W18747  10.028   0.083   8.695  0.1658  0.0259 -0.3741
14348W        W18748  10.402   1.200   8.111 -0.2778 -0.0239 -0.0177
14349W        W18749  14.924   3.633  10.771 -0.0880 -0.2265 -0.1008
14350W        W18750   2.232   0.802   3.065  0.1422 -0.0854 -0.0967
14351W        W18751  14.557   5.315  12.271  0.2560 -0.4608 -0.0623
14352W        W18752  16.684   7.279  26.144 -0.3933  0.2233  0.0153
14353W        W18753  19.357   7.038  27.412 -0.2645 -0.0611 -0.0042
14354W        W18754   4.738   2.777  24.101 -0.2609 -0.0816  0.1518
14355W        W18755  14.967   6.347   1.288 -0.1346 -0.0647  0.0709
14356W        W18756  18.708   5.192   7.731 -0.0934  0.0258  0.1010
14357W        W18757  23.685   4.675  26.497 -0.3092  0.1230 -0.1187
14358W        W18758  24.159   0.775  28.263 -0.0165 -0.0338 -0.1239
14359W        W18759   9.807   4.393  26.217 -0.1856  0.2253  0.1755
14360W        W18760  11.791   6.048  23.657 -0.5458  0.2633  0.0129
14361W        W18761  17.560   5.224  32.055  0.0794 -0.1210 -0.0569
14362W        W18762  18.149   3.160  27.224  0.2327  0.1538 -0.2365
14363W        W18763   3.245   2.688   4.752 -0.2019  0.0690  0.1837
14364W        W18764  11.133   2.578   1.047  0.2093 -0.0922 -0.0530
14365W        W18765  20.630   0.310  31.087  0.0871 -0.1867  0.0350
14366W        W18766   7.425   3.072  15.384  0.0947  0.3216  0.1624
14367W        W18767   3.455   2.369   8.118  0.2091  0.2456  0.0901
14368W        W18768  19.089   5.291  15.704 -0.2055  0.0490  0.3245
14369W        W18769   7.034   7.595   0.515 -0.1305 -0.0701 -0.1228
14370W        W18770  11.117   2.799  14.494  0.0583 -0.2710  0.1170
14371W        W18771  13.815   4.069   1.991  0.0952 -0.0903 -0.0157
14372W        W18772  14.362   3.040  22.662 -0.0996 -0.1686 -0.2827
14373W        W18773   3.197   2.076  23.753  0.2218 -0.0602  0.3273
14374W        W18774  12.770   1.973  32.239 -0.1862 -0.1205  0.0489
14375W        W18775   9.198   5.745   1.689  0.0871  0.1800  0.1253
14376W        W18776  10.668   6.880  11.244  0.2235 -0.0021  0.1448
14377W        W18777   9.490   7.393   8.314  0.0559  0.0024  0.0520
14378W        W18778   7.243   6.330  13.594 -0.0449 -0.3541 -0.0583
14379W        W18779  15.071   6.130  23.173  0.0022 -0.0652  0.2139
14380W        W18780   1.956   5.671  21.022  0.1832 -0.1139  0.1475
14381W        W18781   9.853   1.236  16.046  0.2973  0.0975  0.1717
14382W        W18782  16.728   7.193  31.071  0.0126 -0.0913  0.0176
14383W        W18783   0.041   4.053  18.042  0.0306 -0.0183  0.1553
14384W        W18784   9.738   6.762   9.390 -0.0099 -0.2191  0.2610
14385W        W18785  18.890   2.567   3.471 -0.0307 -0.1363 -0.1917
14386W        W18786  24.806   4.781   5.292 -0.0802  0.1533  0.0299
14387W        W18787   0.259   0.591   6.041 -0.0188 -0.0379  0.1606
14388W        W18788  19.043   0.574  23.220  0.3288 -0.0272  0.2202
14389W        W18789  12.231   0.003  22.209  0.0025  0.0268 -0.1522
14390W        W18790   8.084   3.388  24.200 -0.2481  0.0141  0.1106
14391W        W18791   2.889   1.149  21.104  0.0207  0.1209 -0.0320
14392W        W18792   3.273   5.621  13.217  0.0461  0.0683  0.0027
14393W        W18793  11.866   2.942   5.925  0.0382  0.3005 -0.0553
14394W        W18794   1.493   2.982  25.536 -0.2034  0.1962 -0.1256
14395W        W18795  13.781   4.558   8.135  0.0604  0.2723  0.1373
14396W        W18796  18.439   6.677   8.079  0.1400 -0.1501  0.1485
14397W        W18797   6.864   5.463   9.754  0.2118  0.1156  0.0592
14398W        W18798  23.133   2.389  27.511 -0.1633  0.1374  0.0554
14399W        W18799  18.665   4.511   8.411 -0.0972 -0.2291 -0.0411
14400W        W18800  10.880   1.221   1.968  0.1493 -0.2006 -0.2129
14401W        W18801  17.720   4.826  27.611 -0.0200 -0.0091 -0.2358
14402W        W18802  19.573   4.130  19.611 -0.2626  0.3218 -0.0503
14403W        W18803   9.203   4.376   4.658 -0.1307  0.1104 -0.0334
14404W        W18804   8.515   4.289  14.825  0.1897  0.1218 -0.0244
14405W        W18805   6.337   3.995  32.490  0.0272  0.0935  0.0999
14406W        W18806  24.738   1.992  25.169  0.0953 -0.2505  0.3718
14407W        W18807  10.010   5.144  14.187  0.1205 -0.0874 -0.0122
14408W        W18808   4.384   4.025  31.168  0.0597 -0.2809 -0.1368
14409W        W18809  19.152   5.444  19.272 -0.0697  0.0474 -0.0986
14410W        W18810  10.421   4.078   0.507 -0.0790 -0.1149  0.0004
14411W        W18811  13.355   0.080   8.660  0.0310  0.0608 -0.2352
14412W        W18812  18.214   6.358  26.713  0.3823  0.2315  0.0368
14413W        W18813   5.086   2.384   4.578  0.1055  0.0329 -0.1444
14414W        W18814  15.466   1.467  30.816  0.0009  0.2574 -0.0690
14415W        W18815  23.474   2.368  17.075  0.2683  0.0737 -0.0362
14416W        W18816  24.968   0.509   2.516  0.1380  0.1873  0.1144
14417W        W18817  19.245   6.744  22.312 -0.0289  0.0418  0.2154
14418W        W18818  18.701   5.642   8.828  0.0330  0.2258  0.1537
14419W        W18819  21.179   4.065  27.936  0.1061  0.1057 -0.0286
14420W        W18820   8.356   3.572   4.786 -0.1627  0.0333  0.0687
14421W        W18821  14.116   7.374  25.970  0.0945 -0.1693  0.2207
14422W        W18822  15.328   0.028   2.800 -0.1232 -0.1453 -0.0252
14423W        W18823   1.480   1.200  19.528 -0.1334 -0.2317  0.3378
14424W        W18824   6.825   1.962   2.437  0.3300 -0.0669 -0.1668
14425W        W18825  21.118   0.691  17.963 -0.0918 -0.0344  0.5232
14426W        W18826  13.161   5.673  10.118 -0.0456 -0.2417 -0.1040
14427W        W18827   9.014   6.859   7.044 -0.0035  0.0888 -0.1430
14428W        W18828  10.199   5.692  11.578 -0.1158 -0.1002 -0.0243
14429W        W18829  15.257   4.519  30.341  0.3305  0.3251 -0.1000
14430W        W18830   3.110   6.549   4.475  0.1311  0.0589  0.0939
14431W        W18831  11.697   5.283  11.217  0.1100 -0.1170 -0.1686
14432W        W18832  10.314   1.476  27.969 -0.1440 -0.3682  0.0268
14433W        W18833   6.210   0.647  29.061 -0.1072 -0.2621  0.0320
14434W        W18834  10.326   5.329  32.117  0.0555  0.2261  0.0177
14435W        W18835   1.441   0.675  21.994  0.0812  0.3314  0.1576
14436W        W18836  22.060   3.684   4.165  0.1202 -0.0511 -0.0304
14437W        W18837   3.075   0.815  29.472  0.0973 -0.1464 -0.2984
14438W        W18838   9.431   4.772  23.585  0.0246  0.3124  0.0304
14439W        W18839  11.999   5.936  10.211  0.0343  0.0080  0.1579
14440W        W18840   6.541   6.609  30.963  0.2590 -0.1454 -0.1772
14441W        W18841  19.116   3.076   0.985  0.0370  0.1141 -0.0624
14442W        W18842  24.884   3.359  21.726 -0.0221  0.1121  0.1835
14443W        W18843   6.538   0.636   3.729 -0.2807  0.0302 -0.0621
14444W        W18844  14.402   0.312  11.443  0.2296 -0.0704  0.1057
14445W        W18845  24.476   5.929  15.869 -0.0353  0.1029  0.1941
14446W        W18846  16.093   5.849  24.421 -0.1718 -0.0457 -0.0365
14447W        W18847  16.733   3.422  21.580 -0.1104 -0.1558  0.2091
14448W        W18848  11.467   5.877  31.657  0.2768  0.3299  0.0024
14449W        W18849  14.970   0.844  30.267  0.0041  0.0990 -0.4282
14450W        W18850  14.860   7.549   6.000  0.2679 -0.1325 -0.1573
14451W        W18851   9.107   1.165  16.082  0.0262  0.1720  0.0082
14452W        W18852   7.699   6.869   5.235 -0.1340  0.1586  0.0861
14453W        W18853   3.985   4.197  13.675 -0.2940  0.0516 -0.0859
14454W        W18854  12.901   5.682  11.551 -0.2777  0.0606 -0.1965
14455W        W18855  10.931   4.239   3.756  0.0820 -0.3125 -0.3268
14456W        W18856  17.405   5.591   1.371 -0.2532  0.1575 -0.1016
14457W        W18857  21.764   6.074  19.940  0.0973  0.2783  0.4139
14458W        W18858  23.742   7.041   3.980  0.1483  0.0393 -0.1584
14459W        W18859  11.967   2.811   8.364  0.1396  0.0839  0.1605
14460W        W18860  10.028   7.369  23.410 -0.2474 -0.0260 -0.1839
14461W        W18861  20.803   2.698   4.106 -0.1154  0.2332 -0.0632
14462W        W18862   6.629   3.523  27.539 -0.0967  0.0724 -0.3651
14463W        W18863  22.104   5.822  24.445 -0.1948 -0.1423  0.1612
14464W        W18864   2.280   4.381   8.875 -0.0185 -0.3152 -0.2296
14465W        W18865   4.237   4.775  10.228  0.0253  0.3217  0.1698
14466W        W18866  17.048   3.051  11.341 -0.0090  0.0612 -0.2356
14467W        W18867   4.012   2.508  29.540 -0.0305  0.0880  0.5688
14468W        W18868  14.131   4.316  30.972 -0.0815 -0.2508 -0.0435
14469W        W18869  13.439   5.424  26.552  0.0034  0.1131  0.1643
14470W        W18870  24.151   0.060   8.444 -0.0000 -0.1103 -0.2326
14471W        W18871  23.441   0.736  25.760  0.0628  0.3259  0.0914
14472W        W18872  15.241   1.426   2.190 -0.1684  0.0892  0.1051
14473W        W18873  22.150   2.494  18.600  0.0829 -0.1708  0.0720
14474W        W18874   2.899   6.566   0.748 -0.1374 -0.2767  0.2512
14475W        W18875  24.067   6.883   6.349 -0.0695 -0.0226 -0.1100
14476W        W18876  20.511   2.909   3.736  0.1116  0.0845  0.1219
14477W        W18877  17.742   1.820   4.890  0.1299 -0.0134  0.0719
14478W        W18878  10.125   5.030  17.843 -0.0262  0.3796  0.1109
14479W        W18879  17.957   5.401  21.720  0.1174  0.0292  0.2302
14480W        W18880   4.882   6.954  14.329  0.0070  0.0432 -0.3703
14481W        W18881  10.584   0.943   8.512 -0.2808  0.0629  0.2294
14482W        W18882  22.927   6.324   8.428 -0.0411 -0.3548 -0.0127
14483W        W18883  13.867   1.696  28.021 -0.2274  0.0120 -0.0027
14484W        W18884  13.377   0.368  26.032  0.3715 -0.5044 -0.0149
14485W        W18885  15.972   7.614   0.886  0.1515  0.0912 -0.1856
14486W        W18886   9.979   3.202  26.867  0.1880  0.1588 -0.1873
14487W        W18887  14.291   2.873  23.142 -0.2621 -0.0366 -0.4589
14488W        W18888   5.232   3.727  10.170  0.1084  0.1095  0.0503
14489W        W18889   8.756   2.995   1.090  0.1892 -0.0676  0.0616
14490W        W18890   1.207   3.723  24.175  0.1494  0.0915  0.3523
14491W        W18891   5.557   2.639   6.071  0.1754  0.3630 -0.0666
14492W        W18892  14.376   0.882  23.172  0.0121 -0.2847  0.0189
14493W        W18893   8.964   4.193  26.584  0.0278  0.0537  0.0781
14494W        W18894   5.877   7.666  11.432 -0.2022 -0.0326  0.1075
14495W        W18895  13.005   1.551  27.542  0.0930  0.1219 -0.1752
14496W        W18896  21.482   5.129  21.971  0.0807  0.1199  0.0431
14497W        W18897  13.073   7.493  14.708  0.4752  0.2978 -0.1956
14498W        W18898   9.310   5.147  23.198  0.2150 -0.0762 -0.1864
14499W        W18899   0.297   6.439  17.055 -0.0466  0.0294  0.3616
14500W        W18900   0.909   6.771   4.085  0.1972 -0.0448  0.1132
14501W        W18901  18.963   2.239  19.733  0.0132 -0.1059  0.0946
14502W        W18902  19.443   6.287   5.645  0.1507  0.1204  0.0310
14503W        W18903   6.959   3.536  24.162 -0.0696 -0.1119 -0.0682
14504W        W18904  16.375   2.517  24.566  0.2513  0.0726  0.1816
14505W        W18905   8.023   6.746   9.729 -0.1898  0.0529 -0.0369
14506W        W18906   7.248   4.188   3.075  0.2005 -0.0157 -0.2162
14507W        W18907  21.755   3.403  16.977 -0.1583 -0.0420  0.0332
14508W        W18908  21.583   4.064  21.441  0.2967 -0.1238  0.1442
14509W        W18909  13.775   3.109  27.075  0.1389 -0.3922  0.1503
14510W        W18910  12.753   6.676  28.423 -0.3606  0.1203  0.1774
14511W        W18911   9.781   4.157   9.730  0.0564 -0.1546  0.1010
14512W        W18912  14.394   2.021   5.000 -0.4553 -0.1283  0.2851
14513W        W18913   5.028   0.027   9.835 -0.0543  0.1686  0.2855
14514W        W18914   2.823   0.957   5.969  0.0661  0.0149  0.0850
14515W        W18915  13.810   3.380  24.330 -0.0094 -0.2612 -0.4474
14516W        W18916   8.312   4.254  16.116  0.1237  0.0206 -0.3819
14517W        W18917   4.715   4.365  23.056 -0.0051 -0.0059 -0.2925
14518W        W18918   8.329   2.387  17.066 -0.1131  0.0391 -0.0752
14519W        W18919  23.492   3.434  21.417  0.0169  0.1470  0.1761
14520W        W18920   2.438   6.582  24.027 -0.1324  0.1428 -0.1484
14521W        W18921   1.812   3.482  29.334 -0.0361 -0.0114  0.1722
14522W        W18922  21.366   3.359  20.319  0.0241  0.0223  0.1000
14523W        W18923  23.642   1.449   5.040 -0.0240 -0.1439 -0.0811
14524W        W18924  22.744   1.170  22.330  0.3075 -0.3230 -0.1612
14525W        W18925  18.582   2.842  18.335  0.0040 -0.0064  0.1980
14526W        W18926   0.429   6.284  32.441  0.0671 -0.3349 -0.1642
14527W        W18927   2.364   6.075  31.655 -0.0980 -0.1815 -0.0858
14528W        W18928  13.595   1.518  13.567  0.1955  0.0634 -0.3197
14529W        W18929   4.762   0.612  15.499 -0.0713 -0.0720  0.0001
14530W        W18930  11.584   5.619  12.975  0.1556  0.0679  0.0355
14531W        W18931  24.110   6.431   4.605 -0.1585  0.1334 -0.2536
14532W        W18932  24.685   4.244   9.812  0.1402 -0.0112 -0.2578
14533W        W18933   0.494   4.789   0.643  0.1188 -0.0706 -0.1349
14534W        W18934  14.254   7.112   0.905  0.0791  0.0447 -0.2709
14535W        W18935   8.562   1.493   4.107  0.1142  0.1898 -0.1923
14536W        W18936  23.263   0.193   3.569 -0.0526 -0.0659  0.2428
14537W        W18937  23.629   1.270  22.299 -0.0137 -0.3856 -0.2743
14538W        W18938   5.970   4.233  26.172  0.1099  0.0252 -0.3316
14539W        W18939   3.669   6.076   2.785 -0.0866  0.4153 -0.1131
14540W        W18940  11.677   7.675  13.042  0.0456 -0.0190  0.0793
14541W        W18941  13.320   1.230  31.785  0.1147  0.0927  0.0968
14542W        W18942  24.597   6.553   8.885 -0.0602  0.3089  0.0121
14543W        W18943  16.939   7.674  20.014  0.2097  0.0447  0.2176
14544W        W18944  16.420   6.642   0.126 -0.2257  0.1842  0.0613
14545W        W18945  20.721   1.157  27.300  0.1378 -0.0747  0.2237
14546W        W18946   7.264   6.251  24.105 -0.2716 -0.0807 -0.0143
14547W        W18947   0.680   6.323  24.749  0.0720  0.1970 -0.2138
14548W        W18948  11.910   1.151  13.713  0.1213  0.1125 -0.1397
14549W        W18949   8.277   1.341  23.556  0.0336 -0.2539  0.2029
14550W        W18950   6.900   4.520   0.968 -0.0501  0.1737  0.0253
14551W        W18951   3.892   4.598   4.364 -0.0342 -0.1536  0.0031
14552W        W18952   1.283   7.801   1.363 -0.3614  0.0011  0.3707
14553W        W18953  20.350   1.564   8.145  0.1494 -0.1418  0.1172
14554W        W18954  15.144   0.201  10.622 -0.1533 -0.0277 -0.0851
14555W        W18955  11.906   6.218  24.369  0.3490  0.0978  0.0084
14556W        W18956  16.230   7.213   4.747 -0.2504 -0.0867  0.1465
14557W        W18957  16.326   6.151   8.243  0.0332 -0.0519  0.1229
14558W        W18958  15.187   4.273   0.197  0.0852  0.2414  0.0660
14559W        W18959   1.258   1.181  10.479  0.1051  0.2389  0.1429
14560W        W18960   5.861   2.605  25.538 -0.0057  0.0414 -0.0641
14561W        W18961  10.921   5.933  13.748 -0.1285  0.0355 -0.0366
14562W        W18962  14.919   3.879   3.831 -0.2759 -0.2215  0.0349
14563W        W18963  22.666   0.762  26.689  0.1561  0.0926  0.0769
14564W        W18964  22.988   0.337  28.395 -0.1279 -0.1806 -0.0116
14565W        W18965   0.930   2.037  26.256  0.0125 -0.0975  0.0056
14566W        W18966  19.850   7.351  20.254  0.2468 -0.2403  0.0327
14567W        W18967  18.405   6.920  21.294 -0.3149  0.0606 -0.0220
14568W        W18968   7.659   2.902  12.345 -0.1776 -0.0893  0.0825
14569W        W18969  15.292   7.622  10.443  0.1613 -0.0084 -0.1623
14570W        W18970  24.856   0.298   0.743 -0.2827  0.2103  0.3787
14571W        W18971  12.934   5.075   6.566 -0.0411 -0.1787  0.5065
14572W        W18972  17.892   1.918  23.420  0.1380 -0.1892 -0.0107
14573W        W18973   2.790   1.392   5.097 -0.0403 -0.2528 -0.1245
14574W        W18974   4.698   5.985  10.395  0.1905 -0.3361  0.0759
14575W        W18975   1.631   0.754  11.314  0.0446 -0.0846  0.0997
14576W        W18976   1.316   4.686  25.702 -0.0676 -0.2069  0.1338
14577W        W18977  14.630   5.131  21.114 -0.1972 -0.1014 -0.2088
14578W        W18978   1.814   5.731  11.559  0.0535  0.0682  0.1869
14579W        W18979  11.011   0.905   8.185 -0.0477  0.1032 -0.1448
14580W        W18980   6.815   4.061   3.994  0.0142 -0.1469 -0.0721
14581W        W18981   7.452   1.463  16.605  0.2877 -0.0985  0.1229
14582W        W18982   6.370   7.525  31.328 -0.1085  0.1197  0.2064
14583W        W18983   6.715   6.815  26.671 -0.1963  0.0229  0.0448
14584W        W18984   2.050   3.280  31.336 -0.1163 -0.0173 -0.1110
14585W        W18985  24.471   6.141   8.558 -0.0139  0.0794 -0.0513
14586W        W18986  21.053   4.204   0.481 -0.0339  0.1892 -0.0160
14587W        W18987  17.357   0.630  23.141  0.2119 -0.0068 -0.0943
14588W        W18988  10.333   7.570  27.064 -0.0465  0.3154  0.1300
14589W        W18989   0.336   3.068   5.411 -0.3487 -0.1979  0.1505
14590W        W18990   3.315   4.803  12.130  0.1065  0.0636  0.1322
14591W        W18991  10.259   1.899  28.242  0.0198 -0.1348  0.0632
14592W        W18992   4.142   3.273   7.005  0.2159 -0.0364 -0.0603
14593W        W18993   9.187   2.427  30.889 -0.1858  0.1816  0.1122
14594W        W18994  21.073   4.490   0.906 -0.2111 -0.0352 -0.1511
14595W        W18995  21.183   7.017  28.866 -0.1571 -0.3202 -0.1458
14596W        W18996  10.246   6.515  30.727 -0.2170  0.4561  0.2048
14597W        W18997   2.794   0.576  21.876  0.2155 -0.2072 -0.1781
14598W        W18998  11.543   7.640  31.326  0.0029 -0.1254  0.0104
14599W        W18999  20.638   4.426   5.182 -0.0004  0.0212  0.1459
14600W        W19000  11.612   0.235  14.387  0.0063 -0.0305  0.1504
14601W        W19001  21.012   2.608  17.661 -0.3893  0.0549  0.2808
14602W        W19002   8.418   3.838  18.821 -0.0819 -0.0627 -0.1219
14603W        W19003  23.531   5.925  26.147 -0.0653 -0.2085 -0.1388
14604W        W19004  21.774   6.540  19.339  0.1744 -0.0768 -0.1985
14605W        W19005  10.900   3.318   3.697  0.1295  0.2217 -0.0935
14606W        W19006   5.697   0.475   0.041  0.1102  0.0580 -0.0098
14607W        W19007   5.305   6.146  15.792 -0.3979  0.2350 -0.2199
14608W        W19008  13.751   7.544   9.318 -0.0398 -0.1491 -0.1452
14609W        W19009   4.269   6.885  27.408 -0.4011 -0.0378 -0.1300
14610W        W19010  19.877   1.062  29.335 -0.1672 -0.0414  0.1454
14611W        W19011   2.423   0.351  24.589  0.2860  0.1585 -0.0554
14612W        W19012  19.504   7.090  16.037  0.1153  0.3911  0.1951
14613W        W19013   2.503   4.419  28.542  0.0715  0.4403  0.1507
14614W        W19014  10.763   3.180   0.200 -0.1264  0.1700 -0.1267
14615W        W19015  22.567   4.382  32.322  0.0065  0.2384  0.3440
14616W        W19016   1.768   6.487   1.363 -0.1874 -0.2145 -0.2358
14617W        W19017  19.300   0.704  27.441 -0.0913 -0.0195 -0.0433
14618W        W19018  13.899   4.442  22.776  0.1954  0.0721  0.0305
14619W        W19019  22.384   4.078  30.703 -0.0598 -0.0496 -0.0248
14620W        W19020   4.201   4.764  24.618 -0.1008 -0.0106 -0.0429
14621W        W19021   2.220   7.634   1.894 -0.1535 -0.4123 -0.0811
14622W        W19022  20.682   3.692  31.681 -0.0392 -0.0467 -0.0870
14623W        W19023  11.693   4.983  31.299  0.1872 -0.0079  0.2838
14624W        W19024   7.111   6.880   2.250  0.1022 -0.4158 -0.2090
14625W        W19025   0.164   4.381   3.922 -0.2055 -0.0628  0.1803
14626W        W19026   2.403   7.543  32.112  0.0216 -0.0945 -0.1362
14627W        W19027  20.990   0.834   1.583  0.2740 -0.3543  0.1853
14628W        W19028   1.974   3.981  25.806 -0.1427  0.0568  0.2522
14629W        W19029  15.984   5.299  19.268 -0.0357 -0.1254  0.0004
14630W        W19030   7.712   3.892   9.912  0.3875  0.1059 -0.1469
14631W        W19031  19.532   4.769  26.187 -0.5229  0.0634  0.2022
14632W        W19032  22.470   4.184   6.322  0.3237  0.0826  0.0952
14633W        W19033  14.089   6.691   2.894  0.0981  0.3726 -0.1403
14634W        W19034   4.171   5.725   0.386  0.3094 -0.2774 -0.2277
14635W        W19035   1.781   3.044  27.523 -0.0799 -0.1506 -0.0757
14636W        W19036   4.045   6.810  25.327 -0.1047  0.1833 -0.1601
14637W        W19037  21.020   7.764  17.043 -0.0257 -0.0277  0.0572
14638W        W19038   4.128   4.482  29.252 -0.1622 -0.1681 -0.0396
14639W        W19039  23.680   3.270  27.467  0.0204  0.0355  0.0733
14640W        W19040  22.222   7.449   1.324  0.1440 -0.0031  0.0663
14641W        W19041  14.410   0.330   3.195  0.0724 -0.2311 -0.1282
14642W        W19042  15.497   0.432  11.913 -0.2053 -0.0040  0.1804
14643W        W19043   3.601   6.797  31.569 -0.0421  0.1438  0.0464
14644W        W19044  16.505   7.671  11.202 -0.2424  0.2473 -0.3673
14645W        W19045   3.338   0.071   5.919 -0.0333 -0.3232 -0.1893
14646W        W19046  21.975   6.893  23.697  0.0368  0.1931  0.0114
14647W        W19047  11.344   6.148  10.956 -0.0490  0.0684 -0.0265
14648W        W19048  10.994   3.631   5.741 -0.0464  0.1230  0.1032
14649W        W19049   6.021   3.290   5.923  0.0262  0.3560  0.2507
14650W        W19050  11.971   2.137   4.411  0.0527  0.2795  0.0097
14651W        W19051  15.090   2.131   7.245 -0.1305  0.1052 -0.0058
14652W        W19052  19.704   3.203  27.970 -0.1889 -0.1075 -0.1180
14653W        W19053   2.352   0.304  23.677  0.2774 -0.1024 -0.0334
14654W        W19054   5.351   0.799  22.824 -0.1323 -0.0228 -0.0968
14655W        W19055  14.532   5.176  22.983  0.2820  0.0525 -0.3038
14656W        W19056   8.146   4.841  17.479  0.1712  0.3532 -0.3203
14657W        W19057   9.423   6.128  27.088 -0.2524  0.0847  0.0544
14658W        W19058  20.158   6.097   3.303  0.1193 -0.0404 -0.4305
14659W        W19059  18.390   6.281   2.043 -0.0241 -0.0049  0.1961
14660W        W19060  13.562   7.668   1.951  0.1241 -0.0581 -0.2066
14661W        W19061   5.716   5.457  25.373 -0.0867 -0.2872 -0.2047
14662W        W19062  11.938   6.127  14.981  0.2246 -0.3413  0.1265
14663W        W19063   3.489   0.348   5.545  0.0650  0.1254 -0.0673
14664W        W19064  14.940   0.858   2.915 -0.3566 -0.3434  0.1931
14665W        W19065  22.079   0.764  21.579 -0.0440  0.1702  0.1058
14666W        W19066  12.648   5.176   5.320  0.1948  0.0455  0.2546
14667W        W19067  21.155   3.637   6.353 -0.1430 -0.4481  0.0531
14668W        W19068  13.359   3.590  13.569 -0.0421 -0.1079 -0.3334
14669W        W19069  11.538   2.462  31.521  0.2487 -0.3311 -0.2559
14670W        W19070   5.228   4.764  11.250 -0.3298 -0.0119 -0.2918
14671W        W19071  17.031   1.711   3.169 -0.2499 -0.1366  0.0997
14672W        W19072  15.314   3.975  31.222  0.0426  0.2159 -0.0319
14673W        W19073  11.341   4.685  13.271 -0.0338 -0.2543  0.1429
14674W        W19074  23.481   3.088   7.454 -0.0631  0.1451 -0.0012
14675W        W19075   3.066   4.558   7.327  0.2733  0.5201  0.0560
14676W        W19076  10.966   6.058  26.381  0.1055  0.1649 -0.1885
14677W        W19077  10.109   1.151  12.215 -0.0927  0.1263  0.2255
14678W        W19078  13.313   4.671   5.724 -0.1379  0.1463  0.1965
14679W        W19079   2.448   6.936  11.288 -0.0703  0.0990 -0.2308
14680W        W19080  22.221   4.864  30.078  0.0682  0.0859  0.1309
14681W        W19081  14.663   0.284   8.825 -0.0407  0.6151 -0.0990
14682W        W19082   9.625   6.756  25.327 -0.1819 -0.0083 -0.1054
14683W        W19083   6.855   7.074   5.233  0.1809  0.0357 -0.2460
14684W        W19084   6.629   6.125  12.097  0.0223 -0.3010  0.0550
14685W        W19085  23.260   7.370  24.109  0.0743  0.0040  0.2168
14686W        W19086  20.321   0.926   4.431  0.1518 -0.1388 -0.0951
14687W        W19087  20.222   0.559  30.493 -0.1245  0.0170 -0.0233
14688W        W19088  21.153   7.093  23.276 -0.2122 -0.1910 -0.0761
14689W        W19089  11.835   3.715  12.699  0.1156  0.0830 -0.0322
14690W        W19090   2.840   1.276  22.763  0.0544  0.1926  0.2793
14691W        W19091  21.717   4.600  16.038 -0.0716  0.0806  0.0290
14692W        W19092   6.030   5.282  23.148 -0.1928 -0.0603 -0.0281
14693W        W19093  20.131   7.139  17.378  0.1760 -0.0557 -0.3214
14694W        W19094   7.618   0.867  29.592 -0.1531  0.5285 -0.0589
14695W        W19095  21.416   0.806  28.601  0.1139  0.1012  0.0248
14696W        W19096  12.264   6.249  22.532 -0.0232 -0.1869 -0.2294
14697W        W19097  21.285   0.611  26.945  0.2310  0.0955 -0.0681
14698W        W19098   7.221   2.571  27.296  0.0235 -0.1701  0.0025
14699W        W19099  20.968   1.673  19.796  0.1739  0.0786 -0.1405
14700W        W19100  24.691   7.521  29.698  0.0751  0.2687 -0.1298
14701W        W19101   5.774   1.226  15.055  0.2869  0.1682  0.3821
14702W        W19102  16.170   3.509   6.783 -0.3268 -0.2658  0.0558
14703W        W19103  12.807   3.339  15.007 -0.2707  0.4107 -0.0740
14704W        W19104  11.881   4.897  26.616  0.1680 -0.1584 -0.0070
14705W        W19105   1.924   5.143  29.361  0.2793  0.1248  0.1339
14706W        W19106  18.796   2.659   0.973  0.0823  0.1568  0.1454
14707W        W19107  16.442   7.016  21.325  0.1672 -0.1213 -0.0637
14708W        W19108  10.825   0.945  30.091 -0.2601  0.2824  0.1082
14709W        W19109  16.463   5.051  23.004  0.0009 -0.2114  0.1023
14710W        W19110  18.405   2.545  26.165 -0.1494  0.0814 -0.1429
14711W        W19111  21.688   6.873  31.787  0.0822  0.1749  0.0005
14712W        W19112  11.436   5.999   7.794  0.2562 -0.0306  0.2118
14713W        W19113  10.122   7.466   0.088 -0.1477  0.2253  0.3233
14714W        W19114  21.181   0.254   5.020 -0.1924  0.0739  0.0643
14715W        W19115   7.422   0.666  16.697 -0.2692  0.1101 -0.0253
14716W        W19116   3.555   4.286  23.746  0.2348 -0.0088  0.3032
14717W        W19117  21.297   1.899  17.297 -0.1755 -0.1881 -0.1982
14718W        W19118  17.959   1.741   0.979 -0.2500 -0.0024  0.1401
14719W        W19119  14.094   2.464  23.373  0.0821  0.0833  0.0308
14720W        W19120  14.434   0.665   6.906  0.0728 -0.4234  0.0681
14721W        W19121   6.031   5.953  10.615  0.0128  0.0698 -0.0976
14722W        W19122   9.096   3.409  12.770  0.0054 -0.1672 -0.1075
14723W        W19123  11.366   1.628  24.909 -0.2405  0.0115  0.1789
14724W        W19124  17.440   0.051  22.715  0.0076 -0.1603  0.1041
14725W        W19125  16.766   5.322   0.937 -0.2759  0.1383 -0.3623
14726W        W19126  13.710   2.222   3.771  0.0342 -0.2021 -0.0247
14727W        W19127  19.063   0.971  17.641  0.1389  0.1915  0.2014
14728W        W19128   2.726   0.900  25.810 -0.2874 -0.3418 -0.0304
14729W        W19129  10.330   6.992  30.585  0.0616 -0.0389  0.2717
14730W        W19130  23.715   0.593  17.433 -0.2518  0.1913 -0.3545
14731W        W19131  20.656   0.887  28.217 -0.0557 -0.0054 -0.0826
14732W        W19132   3.329   2.556  11.153  0.4129  0.3492  0.3637
14733W        W19133  24.655   4.450  30.195  0.0358 -0.0436  0.1435
14734W        W19134   2.259   1.901   6.922  0.1477 -0.1841  0.2149
14735W        W19135   6.454   0.911  12.642 -0.1124 -0.1999  0.1202
14736W        W19136  21.389   6.294  10.133 -0.1132 -0.2992 -0.1842
14737W        W19137  16.631   3.901   6.856  0.0484 -0.1744 -0.2994
14738W        W19138  23.458   6.493   8.239 -0.1498 -0.1907 -0.2520
14739W        W19139  22.858   6.480   6.401 -0.2012  0.1478 -0.0817
14740W        W19140   3.052   4.035  26.400 -0.0163  0.0150 -0.0333
14741W        W19141  20.176   3.919   9.956  0.1254 -0.0571 -0.2121
14742W        W19142  12.416   5.056   9.351 -0.1832  0.2795 -0.1747
14743W        W19143  22.441   1.683  27.082 -0.2203  0.3285  0.0517
14744W        W19144  21.252   2.728  32.641  0.0420  0.1115 -0.0631
14745W        W19145  12.817   1.138  31.878 -0.2554  0.3852 -0.1625
14746W        W19146  23.431   3.499  17.738  0.2622 -0.3407  0.0210
14747W        W19147  17.916   1.635   8.439 -0.1470 -0.0430  0.0506
14748W        W19148  22.934   6.874  30.767 -0.1212  0.0523 -0.2353
14749W        W19149   3.192   2.621  23.592 -0.2716 -0.1184 -0.4774
14750W        W19150  16.981   7.818   7.904 -0.0210  0.1240 -0.0427
14751W        W19151   9.166   5.573  11.237 -0.0724  0.1759  0.2660
14752W        W19152  22.243   6.931   7.592  0.2583  0.2037  0.0564
14753W        W19153   5.940   6.744   8.546  0.1297 -0.1081 -0.0131
14754W        W19154  12.035   4.096   9.636 -0.1374  0.1068 -0.1952
14755W        W19155  12.809   2.547  26.882  0.1613 -0.0324 -0.0699
14756W        W19156  15.887   1.663  22.511  0.1859 -0.0250 -0.1673
14757W        W19157  10.627   6.213   3.119  0.0613 -0.2439 -0.0181
14758W        W19158   3.904   5.004   9.431 -0.0357 -0.1908  0.1519
14759W        W19159  13.415   6.726  25.987  0.0811  0.1760 -0.2574
14760W        W19160  23.742   0.348  22.365 -0.3883  0.1977 -0.1722
14761W        W19161  12.447   5.851  30.626  0.0730  0.5615 -0.4704
14762W        W19162   2.928   2.524  10.779 -0.0741  0.1524  0.0779
14763W        W19163   4.524   0.902   3.595  0.1654 -0.2532 -0.2680
14764W        W19164  24.012   4.553  22.920  0.0038  0.2705 -0.0667
14765W        W19165   1.556   3.626   7.141  0.1429 -0.3809 -0.0945
14766W        W19166  17.700   6.691  24.166 -0.0924 -0.1423 -0.3826
14767W        W19167   5.272   1.069  27.679  0.1247 -0.2791 -0.2068
14768W        W19168   2.788   7.347   6.603  0.1624 -0.2419 -0.2510
14769W        W19169  17.372   3.536  17.653 -0.1443 -0.3108  0.0554
14770W        W19170  20.874   7.287  17.086 -0.1276  0.2588 -0.0599
14771W        W19171  13.170   1.071  21.001 -0.1758  0.0461 -0.1588
14772W        W19172   4.539   1.895  22.890 -0.1224 -0.0923  0.0810
14773W        W19173   7.464   5.936  29.895 -0.0470 -0.0786 -0.0752
14774W        W19174   6.094   4.363   7.097 -0.1464  0.2687  0.0273
14775W        W19175  10.506   6.609  17.937  0.1203 -0.0020 -0.2454
14776W        W19176  16.683   0.013  28.921 -0.0064  0.1831  0.0685
14777W        W19177   4.686   3.669  29.186 -0.0703  0.2415  0.2228
14778W        W19178   7.368   2.839  27.806  0.2612  0.0939 -0.1314
14779W        W19179   3.679   3.232  22.065 -0.0674  0.2925 -0.1652
14780W        W19180  14.206   1.180  20.222  0.2902  0.1944 -0.0115
14781W        W19181  18.161   6.889   2.424 -0.0487 -0.1020 -0.1851
14782W        W19182   1.964   0.453  30.091 -0.2011 -0.2750 -0.0870
14783W        W19183  18.037   2.347  28.893  0.5303 -0.1238  0.0309
14784W        W19184   1.380   0.330  31.697 -0.2757 -0.0295  0.0760
14785W        W19185   4.669   0.340  24.535 -0.0263 -0.1319  0.3101
14786W        W19186  21.394   7.805   8.176 -0.0362  0.2207  0.0830
14787W        W19187   9.758   6.278  31.685 -0.0441  0.0988 -0.1647
14788W        W19188  12.105   7.293  14.483  0.0017 -0.2622 -0.0148
14789W        W19189  12.163   7.463  27.014  0.0248 -0.1527  0.1032
14790W        W19190   1.414   2.253  28.041  0.1657 -0.2544 -0.0619
14791W        W19191   5.309   4.668   2.524 -0.2183 -0.1847 -0.0005
14792W        W19192  10.746   6.966   8.539 -0.0346  0.2282 -0.0663
14793W        W19193  20.760   0.508  22.765  0.0744  0.0441 -0.2407
14794W        W19194  13.790   1.218   1.523  0.0436 -0.2202  0.0398
14795W        W19195   6.700   3.987  16.795  0.1184 -0.3322 -0.2332
14796W        W19196   7.855   6.697  25.573  0.1131 -0.0318  0.3001
14797W        W19197  18.697   0.591  31.699 -0.4516  0.0529 -0.0634
14798W        W19198   6.482   4.473  16.729 -0.0697  0.0132  0.0052
14799W        W19199  18.409   3.107  26.793  0.2359  0.2141  0.2170
14800W        W19200  15.445   1.331   5.802  0.0314 -0.2450  0.2390
14801W        W19201   3.117   7.492  11.871 -0.0395  0.0897 -0.0114
14802W        W19202  21.159   4.392  30.300  0.0197 -0.2986  0.1282
14803W        W19203  20.603   3.819  24.466 -0.0137 -0.2513  0.0826
14804W        W19204   1.524   2.599   8.969 -0.0427  0.2766  0.2025
14805W        W19205  16.849   2.519   2.433 -0.0703 -0.1761 -0.3174
14806W        W19206   6.843   2.754  28.263  0.0732 -0.1054  0.3403
14807W        W19207  20.233   3.728   6.763  0.2202 -0.1002 -0.1547
14808W        W19208  23.563   6.745   0.343  0.1414  0.0595  0.0950
14809W        W19209  14.220   4.946  21.364 -0.0704 -0.2877  0.1833
14810W        W19210  10.418   5.017  28.257 -0.1835  0.1329 -0.4207
14811W        W19211  11.415   0.830  23.224  0.1248 -0.0850 -0.1270
14812W        W19212  14.544   0.132  31.388 -0.1325 -0.3074  0.0215
14813W        W19213   6.368   2.213  10.599 -0.0271 -0.1584 -0.0516
14814W        W19214   7.383   7.705  28.429 -0.0539  0.0806 -0.0876
14815W        W19215   4.695   3.309   3.254 -0.0964  0.0119 -0.1933
14816W        W19216  10.066   2.672  27.934 -0.0857 -0.1161 -0.0138
14817W        W19217  21.167   4.930  23.209 -0.1237 -0.2781 -0.2172
14818W        W19218  23.638   2.123   2.829 -0.1190  0.1126  0.1076
14819W        W19219   5.898   0.926  27.344 -0.0451 -0.1558  0.2834
14820W        W19220   0.935   0.060  29.293 -0.1911  0.1853 -0.3641
14821W        W19221   6.861   6.384  10.102  0.1726  0.1820  0.0420
14822W        W19222  18.858   5.128  16.201  0.0026  0.0473  0.0875
14823W        W19223  18.465   3.216   9.364 -0.3403  0.0041  0.1747
14824W        W19224  17.057   7.255   5.011  0.1345 -0.1854 -0.1155
14825W        W19225  18.473   2.543  26.702 -0.0342  0.0452  0.3232
14826W        W19226  19.475   4.283   5.718  0.1365 -0.1880 -0.0722
14827W        W19227   8.028   7.100   6.220  0.2355 -0.4917  0.2464
14828W        W19228   6.321   1.415  28.635  0.1500  0.2345 -0.2042
14829W        W19229  22.057   0.390   4.958  0.1483  0.3094  0.1023
14830W        W19230   0.015   4.953   5.812 -0.0330 -0.2270  0.1152
14831W        W19231  17.355   2.208  20.797 -0.1971  0.1867  0.1753
14832W        W19232  12.477   4.407   7.728 -0.1951  0.0446  0.0423
14833W        W19233  15.814   0.194  19.163 -0.0228  0.0113 -0.2346
14834W        W19234   5.914   1.690  22.731 -0.1731 -0.1144  0.0542
14835W        W19235   1.060   0.418  10.947  0.0696 -0.3402 -0.0780
14836W        W19236   6.348   2.489  27.576  0.0256  0.0293 -0.1626
14837W        W19237  10.885   2.521  11.139  0.2662  0.0984 -0.0509
14838W        W19238  20.587   6.095   4.646 -0.1312 -0.1140  0.0504
14839W        W19239  13.407   2.712   6.742  0.0418  0.1222  0.1876
14840W        W19240  14.648   0.373  20.835 -0.1576 -0.0053 -0.1820
14841W        W19241  13.833   1.827   6.721 -0.0836  0.0330 -0.0019
14842W        W19242   7.091   2.282  29.449  0.2405  0.1393 -0.1121
14843W        W19243   9.339   0.878  23.547 -0.0337  0.0447 -0.1293
14844W        W19244  23.762   5.877   6.351 -0.1618  0.0443  0.1349
14845W        W19245   8.206   4.028  27.996  0.0405 -0.2030 -0.0589
14846W        W19246  17.841   4.514  25.275 -0.0270  0.0957 -0.3284
14847W        W19247  22.499   2.476   1.113 -0.0819  0.0047 -0.4053
14848W        W19248   5.103   5.539  27.744  0.1512  0.2937 -0.1275
14849W        W19249   9.928   0.516  26.720 -0.1074  0.1540  0.0923
14850W        W19250  11.352   4.636   8.876  0.1151  0.2714  0.0573
14851W        W19251  14.549   4.987  30.693  0.4688 -0.0677  0.0515
14852W        W19252   9.404   2.013   4.052 -0.1078 -0.3928 -0.2488
14853W        W19253   6.577   4.207   6.253 -0.4776 -0.3129  0.0056
14854W        W19254   5.137   0.210  28.245  0.1112 -0.1205 -0.1387
14855W        W19255  24.843   6.790   0.110 -0.1577 -0.2105  0.1771
14856W        W19256   1.411   3.758  29.206 -0.1383 -0.2532 -0.1873
14857W        W19257  14.425   2.723   6.175  0.4073 -0.2220 -0.2914
14858W        W19258   9.353   2.910  28.088 -0.1375  0.1623  0.2647
14859W        W19259   3.453   0.795   8.801  0.1524 -0.0041 -0.2976
14860W        W19260  15.146   4.149  31.927  0.2372 -0.3981  0.0882
14861W        W19261  24.258   1.786   0.619  0.0763  0.0133 -0.2565
14862W        W19262   0.936   2.437  22.128  0.1396  0.2458  0.0713
14863W        W19263   7.655   2.144  11.322  0.0395 -0.1704  0.1141
14864W        W19264   4.547   3.324   0.710 -0.3241 -0.2452 -0.2721
14865W        W19265   3.277   3.040  12.591  0.2842  0.0366 -0.1520
14866W        W19266   5.013   4.701   5.661  0.1624 -0.1003 -0.2270
14867W        W19267   1.094   2.050  23.192 -0.1663 -0.0278 -0.0657
14868W        W19268   2.011   3.860   4.437  0.0548  0.1808 -0.2890
14869W        W19269  23.580   4.366  18.115 -0.1302  0.1062 -0.1737
14870W        W19270  12.771   4.147   6.919 -0.1794 -0.2832 -0.2629
14871W        W19271  19.656   2.073  28.935  0.2758  0.2935  0.0749
14872W        W19272  23.307   6.315  29.624 -0.0636 -0.1034 -0.0568
14873W        W19273   5.766   3.937  22.420  0.0900 -0.0053 -0.1034
14874W        W19274   6.905   1.139   9.901  0.2355  0.2624  0.0051
14875W        W19275  14.676   4.545  25.046 -0.2451  0.2325  0.2112
14876W        W19276   7.036   1.265  29.778 -0.0286  0.2142 -0.0469
14877W        W19277  22.520   7.003  31.606 -0.0353  0.0218 -0.1649
14878W        W19278  21.115   5.703  21.117 -0.0523  0.0684 -0.0321
14879W        W19279  10.871   2.300  27.515  0.3948 -0.0427  0.0601
14880W        W19280  14.959   0.691  10.083 -0.2627 -0.1317  0.1077
14881W        W19281   8.220   6.993  23.128  0.0951 -0.1275  0.2646
14882W        W19282  18.249   7.267  14.901 -0.0522  0.2710 -0.0494
14883W        W19283   4.511   2.867  24.805 -0.0968  0.1406 -0.1176
14884W        W19284  22.162   0.665  26.794 -0.0065  0.0064 -0.1578
14885W        W19285   4.934   5.517  32.321  0.3148 -0.2621 -0.2068
14886W        W19286  17.915   2.645  16.869 -0.1044  0.0740  0.0233
14887W        W19287   6.469   4.422  10.559  0.0744  0.0779 -0.2325
14888W        W19288   3.860   1.480   8.608 -0.3084 -0.0252  0.2310
14889W        W19289  16.647   0.604  31.779 -0.0398 -0.1161  0.1522
14890W        W19290   6.472   3.564  14.731  0.0058  0.0846 -0.0571
14891W        W19291  21.117   2.401  26.287  0.1316  0.1749  0.1966
14892W        W19292  12.998   3.260   5.065 -0.2505  0.0926  0.1311
14893W        W19293   8.603   3.900   2.756  0.1802  0.0939 -0.0065
14894W        W19294   8.402   2.674   7.979 -0.0096  0.1544 -0.0752
14895W        W19295  13.804   1.988  10.031 -0.0411  0.0014  0.1483
14896W        W19296   2.410   3.717   7.138 -0.1164  0.2584  0.1456
14897W        W19297   0.642   3.053   1.573 -0.0584 -0.3129 -0.0946
14898W        W19298  14.666   1.956  11.359  0.0565  0.0403  0.0184
14899W        W19299  18.521   2.101  25.888  0.0566 -0.1559 -0.2678
14900W        W19300   3.627   3.278  29.168  0.1671 -0.3372  0.1520
14901W        W19301  18.561   0.453  23.073 -0.1998 -0.1675  0.0069
14902W        W19302   8.883   3.057   7.462  0.2314 -0.1236 -0.0227
14903W        W19303  23.866   1.861   2.483  0.4083 -0.1333 -0.1387
14904W        W19304  10.789   5.080  11.869  0.2243  0.1766  0.3137
14905W        W19305   0.869   1.468   3.696  0.0118 -0.0548 -0.0738
14906W        W19306   4.842   4.781   2.649  0.0131  0.0391 -0.4501
14907W        W19307  18.492   7.388   3.602  0.0746 -0.3051 -0.2393
14908W        W19308   7.255   0.521  24.897 -0.1065  0.0443  0.1141
14909W        W19309  11.119   5.891  15.989  0.0265  0.2591  0.0625
14910W        W19310   9.965   1.170   7.893 -0.0510 -0.0992 -0.1011
14911W        W19311  12.409   1.992  25.672 -0.0220 -0.2314 -0.2683
14912W        W19312  20.663   1.476  22.454  0.2701 -0.0164  0.0227
14913W        W19313  10.332   1.735  14.655  0.1397 -0.1458  0.1738
14914W        W19314  13.052   7.433  14.198  0.0561 -0.0533 -0.3212
14915W        W19315   9.977   4.115   1.010  0.1241 -0.0144  0.1438
14916W        W19316  17.337   6.784   5.817  0.5038  0.3068  0.0768
14917W        W19317  13.078   2.035  30.507 -0.0889 -0.1390 -0.1049
14918W        W19318  11.178   3.731  10.491  0.0014  0.0652  0.0096
14919W        W19319   5.963   5.491   2.346 -0.3473  0.1087 -0.1555
14920W        W19320  16.667   7.637   8.416  0.1088  0.0851 -0.0240
14921W        W19321  24.328   1.294  26.734  0.2395  0.1319  0.1968
14922W        W19322   4.245   3.985   0.074  0.2345  0.3419 -0.0419
14923W        W19323  21.565   6.798  28.469 -0.1277 -0.1256  0.0754
14924W        W19324  21.092   6.075  21.975  0.1078  0.0130  0.0286
14925W        W19325  17.069   5.811  29.892 -0.1796  0.0411 -0.0070
14926W        W19326  21.516   0.884  14.261 -0.1198  0.3257 -0.0376
14927W        W19327  17.074   5.419   7.782  0.0615  0.0898  0.0827
14928W        W19328   5.305   5.400  14.959  0.4186 -0.0485  0.1361
14929W        W19329  22.054   1.393  16.842 -0.0107  0.0796 -0.0645
14930W        W19330  23.816   1.906  30.857 -0.1165 -0.0091 -0.0060
14931W        W19331   7.529   0.047   5.363  0.1217 -0.0249  0.1291
14932W        W19332  22.778   1.999  19.464 -0.2129 -0.1476 -0.4342
14933W        W19333  13.024   1.393   8.910  0.0626 -0.0063 -0.0851
14934W        W19334   5.528   7.170  28.456  0.0896  0.2042 -0.1647
14935W        W19335  24.901   0.185  16.843  0.3321 -0.1349  0.0434
14936W        W19336  10.679   3.707   7.396 -0.0686 -0.0152  0.1127
14937W        W19337  11.982   1.132   4.531 -0.0877  0.0217  0.0947
14938W        W19338  16.147   5.056   7.349  0.0089  0.1049 -0.1358
14939W        W19339  16.095   4.351   1.993  0.0367 -0.0716  0.1120
14940W        W19340   6.595   0.776   0.293 -0.2425 -0.2235 -0.0423
14941W        W19341   9.420   0.248   2.979 -0.2082 -0.2149 -0.0988
14942W        W19342  22.129   6.120   9.487  0.1582 -0.0201 -0.2628
14943W        W19343  18.161   4.480   9.793  0.0138  0.0507  0.1012
14944W        W19344  12.182   4.564  12.743  0.2919  0.0915  0.2690
14945W        W19345  24.756   3.788   2.125 -0.4503  0.0055  0.2709
14946W        W19346  17.651   5.020   0.994 -0.4055 -0.0504  0.1270
14947W        W19347   9.887   6.388  26.826 -0.0622 -0.0778  0.0463
14948W        W19348   3.654   5.585   0.113 -0.0546 -0.0238 -0.5267
14949W        W19349   9.048   0.426  27.011  0.1258 -0.1580  0.2940
14950W        W19350   4.203   1.216  12.887 -0.1517 -0.1431  0.2415
14951W        W19351  19.339   4.610  24.697 -0.0926  0.1933 -0.0874
14952W        W19352  20.897   2.793  26.475  0.2723  0.2302 -0.1922
14953W        W19353   6.510   1.281  25.822 -0.1552  0.1176 -0.0365
14954W        W19354  10.501   5.016  29.546 -0.1897 -0.0833 -0.2829
14955W        W19355   1.756   0.154  27.769  0.2355 -0.0100 -0.2077
14956W        W19356  13.819   5.724   6.875 -0.1347  0.0456  0.1299
14957W        W19357   5.631   1.632  29.397  0.0917  0.3120 -0.2714
14958W        W19358  10.886   1.258  30.787  0.0033 -0.0595 -0.1141
14959W        W19359   4.194   7.257   6.823  0.0539  0.4136  0.1979
14960W        W19360  14.567   6.232  22.297 -0.0229 -0.1615 -0.0776
14961W        W19361   6.412   0.393  13.608 -0.0715 -0.0815  0.1929
14962W        W19362   2.372   6.383  11.261  0.2457 -0.2995  0.1073
14963W        W19363  18.182   3.648   5.504 -0.1289  0.0829  0.0879
14964W        W19364  10.732   4.069  11.742  0.1873 -0.2353 -0.1727
14965W        W19365  13.707   6.983   9.043 -0.1264 -0.1131 -0.0981
14966W        W19366   8.486   4.728  11.352 -0.1045 -0.1680 -0.3043
14967W        W19367  16.132   6.099   7.573  0.0671 -0.1454  0.0976
14968W        W19368  20.958   0.746  19.324  0.4102 -0.0002  0.1418
14969W        W19369   4.107   2.218   2.270  0.1274 -0.2011 -0.2319
14970W        W19370   0.884   4.535   6.218  0.0868 -0.1620  0.0582
14971W        W19371  24.681   4.045  17.664 -0.0450 -0.0954  0.1397
14972W        W19372   2.394   3.335  32.584 -0.0733  0.1389  0.1918
14973W        W19373   1.529   3.926   2.882 -0.2689  0.1499 -0.2183
14974W        W19374  15.698   5.169  26.960  0.1187  0.0840  0.2060
14975W        W19375  20.712   1.375   6.409 -0.0967  0.1256 -0.1328
14976W        W19376   9.847   3.656  11.285  0.1139  0.0225 -0.0380
14977W        W19377   9.942   3.817  29.652  0.3262 -0.0894  0.1287
14978W        W19378   8.869   2.560  10.514  0.1909  0.3583  0.2897
14979W        W19379   8.857   3.510   6.378  0.1072  0.1679 -0.1017
14980W        W19380  10.853   3.616   2.132  0.1562  0.0660 -0.4141
14981W        W19381  13.296   7.672  10.475  0.0149 -0.0300 -0.0430
14982W        W19382  17.477   2.294  29.207  0.4371 -0.0148  0.1844
14983W        W19383   1.086   3.621  26.594  0.4230 -0.1524 -0.1675
14984W        W19384   0.394   5.550   1.856  0.1821  0.2349 -0.0208
14985W        W19385   0.074   5.990  26.523 -0.1213 -0.3096  0.1498
14986W        W19386   9.743   3.220   9.087 -0.0487 -0.0381  0.0051
14987W        W19387   9.830   2.917  17.628  0.2986 -0.3055 -0.0507
14988W        W19388   9.033   6.596  27.044 -0.1759 -0.3243  0.1175
14989W        W19389  20.691   5.036  19.403 -0.0547  0.3724  0.0353
14990W        W19390  11.372   2.587  13.980  0.2475 -0.1441  0.0921
14991W        W19391   4.046   1.473   0.633  0.1303  0.1298 -0.0320
14992W        W19392  17.016   7.455   3.764  0.0048 -0.0062  0.0195
14993W        W19393   8.549   7.448  14.730  0.1830  0.2326  0.0813
14994W        W19394  11.005   2.386   3.976 -0.3917  0.0910  0.4148
14995W        W19395   0.075   3.604  27.655  0.1526  0.1391  0.0810
14996W        W19396  21.434   4.975  27.635 -0.4077  0.1195  0.0999
14997W        W19397  11.438   3.488  10.139 -0.0355 -0.2671 -0.1980
14998W        W19398  10.238   3.936  25.668 -0.0094  0.2639 -0.2401
14999W        W19399  17.350   2.427  25.940  0.1110 -0.0603 -0.0254
15000W        W19400  23.492   6.998  16.686 -0.2596  0.1777  0.0629
15001W        W19401  13.001   4.748  32.378  0.0651  0.0861  0.4482
15002W        W19402   2.000   6.583  29.305  0.0343 -0.3899  0.1986
15003W        W19403  20.469   6.630  27.867 -0.1159 -0.2084  0.3632
15004W        W19404  11.777   3.537  26.056  0.2270 -0.1333 -0.0357
15005W        W19405  19.892   4.144  27.166 -0.1058  0.0031 -0.1121
15006W        W19406   4.190   0.905  32.309  0.0041 -0.1664 -0.2777
15007W        W19407  22.144   0.708   7.904  0.0571 -0.0902 -0.0122
15008W        W19408   5.643   5.817  16.525  0.0879  0.1452  0.3209
15009W        W19409  15.960   2.013  27.058 -0.0121 -0.0522  0.2813
15010W        W19410  21.541   3.014  28.829 -0.2503  0.1952  0.1805
15011W        W19411   9.999   3.701  10.459 -0.1231 -0.1535 -0.1364
15012W        W19412   9.755   4.622  30.842 -0.0570 -0.0116  0.3093
15013W        W19413  15.090   4.143   1.736 -0.2929  0.2355  0.2185
15014W        W19414  13.645   4.706   9.931 -0.0199 -0.2707 -0.3684
15015W        W19415   5.215   7.510   1.056 -0.0797 -0.3030 -0.0065
15016W        W19416   3.769   2.671   4.611 -0.1543 -0.1930 -0.1609
15017W        W19417   2.172   4.265  19.839  0.1776 -0.1882 -0.2088
15018W        W19418   4.437   4.149  25.605  0.1658  0.3736 -0.0732
15019W        W19419   4.659   2.611  13.218 -0.0056  0.0197  0.0518
15020W        W19420  13.376   3.186  13.261 -0.0401  0.2024 -0.0946
15021W        W19421  23.866   3.125  25.016 -0.0275  0.1819 -0.2053
15022W        W19422  24.232   1.312  10.222 -0.1420 -0.0360 -0.1285
15023W        W19423   5.875   2.291  17.203 -0.2361 -0.1515  0.2452
15024W        W19424  21.645   6.251   5.347 -0.3506  0.0989 -0.3390
15025W        W19425  19.997   4.427   0.680 -0.0381 -0.0962  0.1096
15026W        W19426   6.312   2.101  30.875 -0.2173 -0.1405 -0.0033
15027W        W19427  23.554   0.510  16.702  0.1204 -0.2061 -0.0042
15028W        W19428   7.205   7.368  29.573  0.0020 -0.1131  0.0942
15029W        W19429  19.296   6.800   3.588  0.2601  0.1982 -0.0392
15030W        W19430  15.835   3.475  26.121 -0.1384  0.0782  0.0434
15031W        W19431  12.403   6.402   2.794  0.0836 -0.0535  0.1403
15032W        W19432  23.683   4.256  16.058 -0.0335 -0.0688 -0.4273
15033W        W19433  17.322   0.742  28.548  0.0597 -0.0898 -0.5436
15034W        W19434  24.776   5.853   8.350  0.0773 -0.0990  0.1223
15035W        W19435  16.891   0.978  21.071  0.0912  0.2425  0.0948
15036W        W19436  19.179   2.069  25.645  0.1016  0.1698  0.1553
15037W        W19437   9.159   6.364  13.236  0.1148  0.1920 -0.1096
15038W        W19438  12.851   0.888   9.468 -0.0866  0.1200  0.1082
15039W        W19439   3.279   3.746  25.588  0.3610  0.3259  0.0008
15040W        W19440  23.778   0.320  18.990 -0.0601 -0.0217  0.0305
15041W        W19441  21.079   5.354  27.324 -0.2891 -0.1068  0.1988
15042W        W19442   4.899   5.830  24.379  0.0596  0.2168 -0.3757
15043W        W19443   3.485   3.037   4.453 -0.2630 -0.2457 -0.1155
15044W        W19444  19.005   0.737   9.145 -0.1591  0.1159  0.0061
15045W        W19445  13.112   7.393  11.818  0.0652 -0.0488 -0.2268
15046W        W19446  23.023   0.211  23.613  0.0179  0.0413 -0.1284
15047W        W19447  23.289   4.822   1.834 -0.5117 -0.1000  0.0403
15048W        W19448  24.076   7.061  15.678  0.2471 -0.6862 -0.3352
15049W        W19449  21.670   2.901  29.442 -0.1964 -0.1376 -0.2074
15050W        W19450   5.429   0.829  25.711  0.1421 -0.0508 -0.3032
15051W        W19451   2.990   1.234   1.625  0.1273  0.1910  0.1358
15052W        W19452  21.859   3.800  18.729 -0.0157  0.1939 -0.2334
15053W        W19453   1.316   5.615   8.864  0.2316  0.1090  0.0192
15054W        W19454  17.735   3.598   4.430 -0.1257 -0.3759 -0.2120
15055W        W19455  19.584   2.455  25.885 -0.0314 -0.1182 -0.0563
15056W        W19456   3.541   3.815  21.563 -0.1618 -0.0992 -0.4963
15057W        W19457  21.183   4.708  25.662  0.3158  0.0069 -0.1366
15058W        W19458  21.379   2.419  21.192  0.4475  0.1588  0.1095
15059W        W19459   8.006   6.425  12.754  0.1031 -0.0514  0.0240
15060W        W19460   7.064   2.371   9.480 -0.1676 -0.0344 -0.0384
15061W        W19461  10.285   0.338   7.664 -0.3647 -0.0046  0.0406
15062W        W19462   1.805   3.778   0.144 -0.2053  0.1232 -0.0088
15063W        W19463  15.981   4.620  10.285  0.3926  0.2013 -0.2199
15064W        W19464  19.556   3.803   7.338  0.3453  0.1691 -0.1158
15065W        W19465  12.021   3.833  13.819 -0.0481 -0.2333  0.3192
15066W        W19466  23.717   2.117  15.692 -0.1160  0.0693 -0.0157
15067W        W19467  16.444   7.246  23.260 -0.1318 -0.0165 -0.1680
15068W        W19468   4.163   1.899  10.096 -0.1207  0.1431 -0.0911
15069W        W19469   9.069   6.655   0.399 -0.1261  0.2875  0.3423
15070W        W19470   8.068   5.292  14.309  0.0031  0.1955 -0.1774
15071W        W19471  15.686   4.270  10.536 -0.0075  0.0294 -0.1117
15072W        W19472  24.594   3.068   6.610  0.2285 -0.0353 -0.0136
15073W        W19473   8.487   7.537   6.872  0.0366  0.1232  0.1599
15074W        W19474   8.891   7.143  28.799  0.0206  0.0693  0.0601
15075W        W19475   7.763   2.017   3.317 -0.0372  0.1325 -0.2225
15076W        W19476  13.421   0.011  22.430 -0.2497  0.2529 -0.0224
15077W        W19477  17.360   0.916   7.864 -0.3985  0.1546 -0.0099
15078W        W19478   0.517   7.382  24.608  0.4475 -0.1245 -0.1611
15079W        W19479  12.854   0.813  12.046  0.1667  0.2457 -0.0971
15080W        W19480   2.355   5.834  28.318 -0.0368  0.0818  0.0714
15081W        W19481  19.127   2.997  23.282 -0.0243  0.0420 -0.0631
15082W        W19482  10.407   6.833  23.640 -0.2052  0.2981  0.0662
15083W        W19483   3.378   3.639   8.699  0.1327  0.1071  0.0028
15084W        W19484  15.453   1.572  26.294  0.2502 -0.2769  0.2166
15085W        W19485  18.489   3.157  24.926  0.0408 -0.2278 -0.0393
15086W        W19486  24.717   7.274  20.703 -0.2366 -0.0710 -0.1940
15087W        W19487   2.144   3.980  20.674  0.2905 -0.1361  0.1646
15088W        W19488  19.258   6.860   0.430  0.1046 -0.0133 -0.1812
15089W        W19489   2.578   7.266   7.557  0.0978 -0.1225 -0.0154
15090W        W19490   7.553   4.125   2.632 -0.0676 -0.0386  0.0985
15091W        W19491  13.159   0.898  27.137 -0.2138 -0.0317  0.0171
15092W        W19492  17.067   4.602   5.847 -0.0355 -0.1880  0.0646
15093W        W19493   5.388   5.333  32.698 -0.1267 -0.0234 -0.1322
15094W        W19494  19.395   5.772   9.812  0.1467  0.1110  0.1590
15095W        W19495   4.775   0.439   4.271  0.0870  0.1607  0.1484
15096W        W19496   1.487   0.752  30.782  0.1855  0.2306 -0.0301
15097W        W19497   3.110   4.426  22.037  0.0212 -0.0776  0.2962
15098W        W19498  14.071   7.148   6.693  0.3253 -0.0531 -0.0587
15099W        W19499  13.429   7.491  24.766 -0.0547  0.2582  0.2734
15100W        W19500   5.934   4.285  16.090  0.0177 -0.1138 -0.2190
15101W        W19501   4.959   7.173  32.501 -0.0443 -0.3336  0.0099
15102W        W19502   4.598   7.652   1.373 -0.2128 -0.1134 -0.1807
15103W        W19503   8.510   4.853  30.454  0.1598 -0.2827 -0.0761
15104W        W19504  17.242   6.805  10.517  0.2267  0.1453 -0.0448
15105W        W19505   3.781   6.431   6.508  0.0509  0.1050 -0.1061
15106W        W19506   7.139   7.443  26.275  0.1320  0.1060  0.0375
15107W        W19507  14.107   3.117  21.673 -0.4753 -0.1460  0.2378
15108W        W19508  23.374   4.676  22.889  0.3729  0.1694  0.1094
15109W        W19509  12.460   1.059  32.254  0.1617  0.0712  0.1156
15110W        W19510   6.860   4.542  28.565  0.0302 -0.1366 -0.0529
15111W        W19511   8.172   3.220  14.896  0.0956  0.1917 -0.1741
15112W        W19512  20.053   4.354  24.076 -0.1360 -0.2160 -0.0965
15113W        W19513   2.799   7.414  10.184  0.0040  0.1154  0.4305
15114W        W19514  22.606   2.573  25.700 -0.0327 -0.3401 -0.2870
15115W        W19515   0.740   4.639  23.876 -0.1381  0.1062 -0.0920
15116W        W19516  18.109   6.076  17.877 -0.3467 -0.1009 -0.1636
15117W        W19517   4.578   0.223   8.538  0.0000 -0.1280 -0.3121
15118W        W19518  13.148   6.479  27.482  0.2827 -0.1452  0.1857
15119W        W19519   8.037   4.024   8.892  0.0846  0.0688  0.0661
15120W        W19520  16.348   3.514   7.944 -0.0934  0.2984  0.0958
15121W        W19521   6.620   5.371   4.468  0.1145  0.0045  0.2352
15122W        W19522  13.178   5.009  23.163  0.0331  0.1661 -0.3418
15123W        W19523  20.100   0.577   8.146 -0.0222 -0.0864  0.1250
15124W        W19524  24.895   3.132  16.009  0.1530  0.2055  0.0276
15125W        W19525  17.628   0.485  23.545 -0.0314 -0.1333 -0.0435
15126W        W19526  16.795   1.341   4.136 -0.2137 -0.0278  0.0536
15127W        W19527   0.458   5.975   6.978  0.1048 -0.2872 -0.0126
15128W        W19528   9.792   4.130  28.713  0.0350  0.1516 -0.0759
15129W        W19529  14.690   2.493  26.633 -0.0488 -0.1679 -0.0997
15130W        W19530  16.513   1.834  29.164 -0.0920 -0.0460  0.0191
15131W        W19531  12.253   3.044   0.952 -0.2303 -0.2876 -0.1741
15132W        W19532  14.424   3.700  13.821 -0.0469  0.4065  0.2982
15133W        W19533  19.657   1.258   3.927 -0.0840 -0.1675  0.0124
15134W        W19534   5.702   6.556   0.787  0.1439  0.1205 -0.1336
15135W        W19535  10.512   1.306  10.907 -0.1791 -0.1040 -0.1473
15136W        W19536  21.497   2.533   8.979 -0.2167 -0.0148  0.1446
15137W        W19537  10.365   6.960  22.128  0.0296 -0.2764  0.0662
15138W        W19538  15.335   1.223   1.280 -0.1623  0.0010 -0.0965
15139W        W19539  17.201   0.911  24.214  0.1744 -0.0776  0.0594
15140W        W19540   1.134   4.443  22.867 -0.4474 -0.2660  0.0380
15141W        W19541  11.717   2.799  22.047 -0.2881 -0.1516  0.1889
15142W        W19542   9.211   3.977  30.677  0.1230  0.1420  0.1156
15143W        W19543  13.490   1.275  29.105 -0.1652 -0.2389  0.0716
15144W        W19544  24.443   0.457  19.284  0.1863 -0.0972  0.0479
15145W        W19545   4.364   0.814  23.022 -0.2082  0.0171 -0.0793
15146W        W19546  15.345   6.758   5.540 -0.3573  0.0095 -0.0200
15147W        W19547  19.679   4.115   1.834  0.1493 -0.0431 -0.0206
15148W        W19548   1.550   6.842   2.875 -0.2490 -0.1533  0.0854
15149W        W19549   8.004   4.576  12.984 -0.1329  0.1305 -0.1604
15150W        W19550   6.315   6.853   1.572 -0.0298  0.0595 -0.2305
15151W        W19551  12.636   0.269  24.435 -0.0942 -0.1159 -0.0818
15152W        W19552   2.322   4.104   3.936 -0.3435 -0.2652  0.1688
15153W        W19553  17.364   1.136   7.387  0.0269 -0.3397 -0.2770
15154W        W19554  24.271   3.954   8.357 -0.1626 -0.1350  0.0602
15155W        W19555  11.243   0.061  15.275 -0.1024  0.1555  0.0186
15156W        W19556  11.239   6.784  32.515  0.0867  0.0978  0.0709
15157W        W19557  18.570   5.687  26.305 -0.1042 -0.1576  0.1528
15158W        W19558   8.904   6.128  31.086  0.1364 -0.0600 -0.3723
15159W        W19559   1.922   7.591  21.590 -0.2784 -0.1519  0.2256
15160W        W19560  11.975   2.336   8.539  0.0230  0.1605  0.2989
15161W        W19561  14.392   1.980   4.498  0.0564  0.1697  0.0794
15162W        W19562   0.252   7.821  26.932 -0.0061  0.1364 -0.2101
15163W        W19563  19.807   1.552  15.892 -0.0526  0.0878  0.1742
15164W        W19564   5.658   5.348  26.289 -0.1221 -0.1144  0.1067
15165W        W19565   1.289   1.934   7.213 -0.0115  0.1369  0.1963
15166W        W19566  18.069   7.727   6.160 -0.2140 -0.2792  0.2917
15167W        W19567   0.854   3.507   6.268 -0.0254  0.3178 -0.2398
15168W        W19568   9.097   7.428   3.475 -0.1403 -0.0739  0.0012
15169W        W19569  18.111   5.326   4.216 -0.2827 -0.1908 -0.1403
15170W        W19570   4.614   5.484  30.345  0.2117 -0.0288  0.2550
15171W        W19571   7.852   6.121  17.474  0.0279 -0.3385 -0.0950
15172W        W19572  15.887   7.461   4.081 -0.1370  0.4697 -0.2415
15173W        W19573   6.070   5.959   6.919  0.2767  0.0466  0.1843
15174W        W19574   7.525   5.362   0.905 -0.2021  0.0375  0.0198
15175W        W19575  16.552   2.945   5.761 -0.0360 -0.1942  0.0369
15176W        W19576   1.174   7.424  23.125 -0.1542 -0.2796  0.0213
15177W        W19577  11.406   1.798  12.675  0.2467 -0.2438  0.1003
15178W        W19578   6.115   2.113   8.638  0.4408 -0.0490 -0.3053
15179W        W19579  21.307   2.876  18.551  0.0451 -0.3065  0.3300
15180W        W19580   5.956   0.240  10.217 -0.0498 -0.1653 -0.0852
15181W        W19581  24.800   2.016   9.816  0.3439 -0.0035 -0.2259
15182W        W19582   5.830   5.555  24.703  0.0761 -0.4832 -0.1572
15183W        W19583   5.085   5.421  24.657 -0.0689  0.2068 -0.1568
15184W        W19584   7.867   2.686  17.138 -0.0759  0.2708 -0.5426
15185W        W19585  18.490   2.575  25.671 -0.1895 -0.3490  0.0583
15186W        W19586  13.076   5.951   5.666  0.0546  0.3358 -0.3441
15187W        W19587  22.513   2.294  18.877 -0.1188  0.2172 -0.0172
15188W        W19588   8.283   1.543  22.697  0.1439  0.0192  0.0782
15189W        W19589   8.990   1.490  15.755 -0.0776  0.0959 -0.0558
15190W        W19590  18.788   4.795  18.653 -0.1118  0.0774  0.0991
15191W        W19591  19.882   6.485  19.471  0.2667 -0.1047 -0.2725
15192W        W19592  19.511   6.724  32.426  0.1689 -0.1691  0.0077
15193W        W19593  15.688   3.090   8.439 -0.0957 -0.1425  0.0905
15194W        W19594  19.729   3.457  23.425  0.0408  0.5650 -0.1898
15195W        W19595   6.326   5.600  29.274 -0.1454  0.0423  0.1657
15196W        W19596  15.603   4.159   3.319  0.0674  0.4666 -0.1634
15197W        W19597  14.006   2.419   9.025  0.0633 -0.1635  0.1184
15198W        W19598   7.190   1.836   9.126 -0.2204  0.1035  0.2498
15199W        W19599  21.427   2.726   1.919 -0.0315  0.1842 -0.2146
15200W        W19600  13.972   2.461  25.342 -0.4348 -0.1610 -0.0734
15201W        W19601  16.793   5.972  32.507  0.0593 -0.1558 -0.1004
15202W        W19602  19.769   6.599  31.171 -0.1035 -0.1866 -0.0827
15203W        W19603   4.875   6.987  15.308 -0.1039  0.0888 -0.2893
15204W        W19604   6.915   1.337   9.422  0.3077 -0.1458 -0.0578
15205W        W19605   8.981   2.698   4.342 -0.5292  0.3159 -0.2036
15206W        W19606   0.496   1.689  10.923 -0.0547  0.0447 -0.3169
15207W        W19607   5.425   3.636   5.004 -0.0021 -0.2018  0.1514
15208W        W19608   4.420   1.795   4.495 -0.1532 -0.1833 -0.0591
15209W        W19609  15.839   5.325   7.002 -0.1013 -0.1202  0.0532
15210W        W19610  13.237   6.904  22.655  0.2446  0.0318  0.0070
15211W        W19611   9.167   2.353  15.380  0.1740  0.1568 -0.2886
15212W        W19612  10.088   5.293  15.447 -0.0195  0.1498  0.1220
15213W        W19613  22.939   3.004   5.714  0.0073  0.0152 -0.1261
15214W        W19614  19.166   7.532  25.649 -0.1649 -0.1738 -0.1992
15215W        W19615   9.774   5.846  12.506 -0.1979  0.3885 -0.0197
15216W        W19616  12.390   3.028  23.363  0.1033 -0.2650 -0.2648
15217W        W19617  24.924   6.168  31.018  0.0308 -0.1779  0.0219
15218W        W19618  17.600   4.182  23.572  0.0189  0.1414  0.1727
15219W        W19619   4.944   0.998  11.023  0.0299 -0.0401 -0.4092
15220W        W19620  19.350   2.862  14.730 -0.1447  0.2213 -0.0530
15221W        W19621   0.433   2.016   0.931  0.0742 -0.0953 -0.1105
15222W        W19622  11.333   0.879   5.099  0.1665  0.2119  0.4642
15223W        W19623  17.712   3.692   3.548  0.5410  0.0226 -0.4202
15224W        W19624   9.224   3.121  18.656  0.0359 -0.0760  0.2385
15225W        W19625  18.019   7.183  25.024 -0.0979  0.2245  0.1900
15226W        W19626   9.900   7.208  14.733  0.0561  0.2700  0.1709
15227W        W19627  20.727   4.160  20.305  0.0139 -0.0851 -0.0182
15228W        W19628  15.280   0.778  25.703 -0.3493 -0.0062 -0.1009
15229W        W19629  23.054   7.530   1.877  0.0965 -0.0811 -0.2488
15230W        W19630  17.406   3.353   7.744  0.1593  0.3616  0.0916
15231W        W19631  16.364   3.441   0.787  0.2035 -0.0027 -0.2323
15232W        W19632   9.774   5.537  12.975  0.3112 -0.1049  0.1135
15233W        W19633  22.701   2.834  22.141  0.0326 -0.3022 -0.1285
15234W        W19634   5.952   3.739  11.368  0.0197  0.0781 -0.0337
15235W        W19635   7.906   7.100  10.042 -0.1829 -0.1246  0.0805
15236W        W19636   4.113   6.834   3.639  0.0451  0.1668  0.1068
15237W        W19637  12.865   1.003   0.081  0.0191  0.2624  0.1309
15238W        W19638   3.675   4.066  24.619 -0.3249 -0.0443 -0.0679
15239W        W19639  10.284   3.954   8.354 -0.0241 -0.0198 -0.1268
15240W        W19640  11.826   2.631   2.754  0.2531 -0.3360 -0.1387
15241W        W19641  15.754   5.541  31.339  0.0341 -0.0082 -0.2056
15242W        W19642   7.019   5.178  31.065 -0.2851  0.0999  0.2488
15243W        W19643  11.173   4.226  28.019 -0.1378  0.2444  0.1077
15244W        W19644  24.527   4.093  30.884  0.0611  0.0433 -0.0461
15245W        W19645   3.491   2.027   1.298  0.4453 -0.0406 -0.0289
15246W        W19646  12.618   7.552  11.116  0.1369 -0.2126 -0.0918
15247W        W19647  13.551   2.582  29.307 -0.1549 -0.0301 -0.0220
15248W        W19648   5.671   4.982  15.147 -0.1623 -0.0949  0.2139
15249W        W19649   4.691   5.763   1.699 -0.2061  0.0857 -0.0370
15250W        W19650  11.675   5.200  32.172  0.0793 -0.2116 -0.1551
15251W        W19651  20.253   5.563  31.589 -0.0606  0.0181 -0.2491
15252W        W19652   4.994   1.998  13.255 -0.1222 -0.1629 -0.0848
15253W        W19653   2.451   3.602  11.236  0.0763 -0.4536 -0.0648
15254W        W19654   8.590   4.418   2.916  0.1581  0.0896  0.1011
15255W        W19655   9.079   4.151  32.240 -0.0743 -0.2278 -0.0582
15256W        W19656  13.862   6.903   8.178  0.1594  0.0356 -0.3629
15257W        W19657  10.708   6.139  25.893 -0.1980 -0.3655 -0.1794
15258W        W19658   0.208   6.124   6.025 -0.1349 -0.1426  0.0793
15259W        W19659  11.047   4.586  22.813  0.1551 -0.2919 -0.1103
15260W        W19660  22.592   4.496  21.632 -0.0398 -0.1035  0.1098
15261W        W19661   5.218   1.985   5.610  0.2523 -0.0143  0.1557
15262W        W19662  22.331   7.627  15.386 -0.2346  0.0091 -0.1783
15263W        W19663   3.755   3.359   7.783 -0.3215  0.0233  0.0407
15264W        W19664   5.174   4.949  28.873 -0.1850 -0.0963  0.3217
15265W        W19665   0.067   0.571   4.489  0.0562  0.0282 -0.0892
15266W        W19666  10.128   1.692  17.700 -0.1673 -0.0249  0.0845
15267W        W19667  12.526   2.593  15.989  0.0300  0.1475 -0.2324
15268W        W19668  15.019   2.551   3.839  0.1452  0.1477  0.0226
15269W        W19669  24.772   0.902  22.876 -0.2155  0.0167  0.2891
15270W        W19670  20.849   4.724  25.256  0.2726  0.0482  0.3960
15271W        W19671  24.606   4.380  10.312  0.1155  0.0083  0.2012
15272W        W19672  16.123   0.396  21.793 -0.0855  0.1803  0.3701
15273W        W19673  24.550   2.549  17.215  0.1599  0.0048  0.2172
15274W        W19674   9.734   1.142   2.464  0.3520 -0.2268 -0.0887
15275W        W19675  18.371   1.627  28.915  0.0429 -0.2245  0.1277
15276W        W19676   6.337   0.262  11.869 -0.0053  0.2641  0.0030
15277W        W19677  10.124   1.820   3.617 -0.1127  0.3428 -0.0371
15278W        W19678  10.826   4.433  17.818  0.1812  0.2640 -0.1034
15279W        W19679   4.181   6.134  31.805 -0.2577  0.1446 -0.1190
15280W        W19680   7.005   7.733  14.080 -0.1617  0.0679  0.0590
15281W        W19681  21.885   1.691  10.076  0.0512 -0.0378  0.1361
15282W        W19682  11.603   0.117  23.964 -0.2541 -0.1866  0.0711
15283W        W19683   0.923   1.425  11.082 -0.0470 -0.0524 -0.0437
15284W        W19684  11.608   3.512  25.186 -0.2660 -0.1750  0.0637
15285W        W19685  21.584   1.755  19.069  0.1071 -0.1526 -0.4156
15286W        W19686  15.396   5.543   1.665 -0.2539  0.0809 -0.0492
15287W        W19687  13.772   3.808   1.559 -0.0107  0.0285  0.0055
15288W        W19688  11.424   0.104   5.639 -0.1561 -0.2018  0.3550
15289W        W19689   7.820   5.721  27.939 -0.0104  0.2894  0.1836
15290W        W19690  12.574   4.885   7.878  0.3921  0.0823  0.1676
15291W        W19691  16.425   6.150  23.742 -0.2696 -0.2822 -0.2614
15292W        W19692  19.663   2.767  21.699  0.0163 -0.2707 -0.0171
15293W        W19693   4.538   6.645   3.299 -0.0002 -0.0918  0.2566
15294W        W19694  21.728   7.332   4.987 -0.0780  0.0153  0.0047
15295W        W19695   9.255   2.718  11.104 -0.2172  0.1009 -0.1984
15296W        W19696  11.948   5.327  15.048 -0.0516  0.2531  0.0409
15297W        W19697   8.966   7.485  30.835  0.2343  0.3073  0.0714
15298W        W19698  20.581   2.767  23.549  0.0420 -0.1347  0.0461
15299W        W19699   5.302   7.548   5.113 -0.0263 -0.2339 -0.0094
15300W        W19700  19.303   2.764  22.780 -0.1041  0.1489 -0.0677
15301W        W19701  24.694   0.201  28.972  0.5226  0.1454 -0.2199
15302W        W19702  24.589   6.231   1.806  0.3901 -0.1533  0.1523
15303W        W19703   2.548   0.825   1.487 -0.1488  0.2555 -0.1065
15304W        W19704   0.694   1.079   4.157 -0.0455 -0.1700  0.1937
15305W        W19705   6.594   2.042  16.034 -0.0535 -0.2038 -0.0558
15306W        W19706  11.306   0.537   0.671 -0.0483 -0.3632 -0.0318
15307W        W19707   1.709   6.619  23.303 -0.3844 -0.2792  0.0161
15308W        W19708   4.212   5.538   6.331  0.1487 -0.0943 -0.1444
15309W        W19709  16.735   1.417   0.107  0.2467 -0.1478 -0.2704
15310W        W19710  12.037   6.596  14.960 -0.0981  0.1444  0.1016
15311W        W19711   8.908   4.897   3.546 -0.0286 -0.1501 -0.0038
15312W        W19712  12.707   2.332   6.196  0.0361  0.1379 -0.2643
15313W        W19713  16.129   0.949   8.145 -0.1199 -0.0546  0.0341
15314W        W19714  15.918   7.496   5.205  0.2044 -0.0790 -0.2963
15315W        W19715  18.928   3.276  19.977 -0.2175 -0.1220 -0.0415
15316W        W19716   5.926   0.485  26.957 -0.1445  0.0267 -0.0712
15317W        W19717   0.615   7.759  24.237  0.0171  0.0294  0.2030
15318W        W19718  22.129   2.008   4.486 -0.0688 -0.0640 -0.2858
15319W        W19719  16.021   1.543  25.862 -0.2251  0.1370  0.1046
15320W        W19720   5.491   0.315   6.461 -0.2178  0.1643  0.0807
15321W        W19721   1.149   5.515   4.508  0.1050 -0.1332  0.1548
15322W        W19722  22.072   5.781   2.419 -0.0442  0.1197 -0.2573
15323W        W19723   0.570   7.289  24.052  0.0060  0.1215 -0.2702
15324W        W19724   8.426   7.641   9.138 -0.0826 -0.2613  0.0824
15325W        W19725   5.999   4.654   4.129  0.0822  0.1847 -0.0432
15326W        W19726  16.175   3.705  26.347 -0.0651  0.1187  0.2776
15327W        W19727   9.637   4.644  16.080 -0.0725  0.0010  0.1882
15328W        W19728  12.392   2.190   0.153  0.0044 -0.1334  0.3842
15329W        W19729  23.328   0.988   1.876  0.1586  0.1247 -0.0352
15330W        W19730   4.416   3.196   0.170  0.1165 -0.0934  0.0908
15331W        W19731  24.805   5.113  28.957 -0.1219  0.0639 -0.2257
15332W        W19732  15.204   4.023  29.190  0.1191  0.0160 -0.1948
15333W        W19733  24.530   0.017   9.381 -0.1048  0.3321 -0.1255
15334W        W19734   3.661   7.800   8.134 -0.0895  0.0764 -0.3515
15335W        W19735  12.031   2.065  14.201  0.1229  0.0164 -0.1098
15336W        W19736  13.350   5.499  21.672  0.0343 -0.0123  0.1318
15337W        W19737  10.322   3.282   7.416 -0.0921 -0.2924 -0.0689
15338W        W19738   0.094   0.172   2.055  0.0604  0.2328  0.2486
15339W        W19739   3.881   4.291  21.056 -0.1056 -0.2180 -0.1135
15340W        W19740  17.647   1.829  27.308  0.0322  0.1567  0.3954
15341W        W19741  24.892   0.946  21.988  0.1262 -0.2287  0.1369
15342W        W19742  22.789   4.549  16.294  0.2876  0.0900  0.1007
15343W        W19743   4.881   2.132  30.425 -0.2859 -0.1648  0.0738
15344W        W19744   2.359   1.621   5.417  0.2195  0.0663 -0.1484
15345W        W19745  14.784   6.946  12.686  0.2863  0.0431  0.1218
15346W        W19746   3.858   6.310   2.346 -0.0279  0.0050  0.0258
15347W        W19747  17.306   3.629  32.254 -0.2259  0.2827  0.1762
15348W        W19748   4.842   2.492   2.633 -0.0841  0.2377  0.0647
15349W        W19749   3.325   3.715   0.964  0.2848  0.3072 -0.2908
15350W        W19750  14.326   7.647  22.438  0.1168 -0.0150 -0.3554
15351W        W19751   8.104   0.190  29.655  0.0560 -0.0893 -0.1023
15352W        W19752  24.237   6.309  17.555  0.1274 -0.2410 -0.0207
15353W        W19753   8.647   5.896  25.887 -0.2542 -0.4911  0.3367
15354W        W19754   7.637   5.418  14.068 -0.2186 -0.1234 -0.1334
15355W        W19755  11.592   6.626  31.663 -0.0445  0.0348 -0.0584
15356W        W19756   4.348   2.788   7.184 -0.0588 -0.1859  0.2740
15357W        W19757  18.041   6.980  28.919 -0.2295 -0.2580  0.0188
15358W        W19758   4.701   4.434   0.693  0.0635  0.1560 -0.0284
15359W        W19759   4.711   7.266  16.120 -0.1541 -0.2053  0.1273
15360W        W19760  17.874   0.925  28.971  0.0082  0.3180 -0.1784
15361W        W19761  16.095   6.723   4.734  0.1211 -0.0571  0.3372
15362W        W19762  17.223   0.710  19.298  0.0375  0.2638 -0.3037
15363W        W19763  10.271   7.133   4.699  0.4750  0.0187  0.1052
15364W        W19764  18.094   1.755  20.355 -0.0481 -0.0779 -0.1408
15365W        W19765   6.973   3.103   7.044 -0.0019 -0.5063 -0.0478
15366W        W19766   2.096   3.348   4.386 -0.3358  0.1436 -0.0345
15367W        W19767   7.474   3.298  32.655  0.1815 -0.1596  0.1183
15368W        W19768  18.298   5.828  21.801  0.3071  0.0505 -0.1269
15369W        W19769  10.647   7.680   3.488 -0.0107 -0.2875  0.1435
15370W        W19770   0.946   6.944  30.835  0.1236 -0.1486 -0.0108
15371W        W19771   0.285   6.637  28.660 -0.2094 -0.0001 -0.2087
15372W        W19772  15.876   2.215  24.076 -0.1019 -0.1827  0.0630
15373W        W19773  10.585   7.396   0.520 -0.2905  0.0197 -0.0004
15374W        W19774   2.892   4.794  23.076 -0.1689  0.0667  0.1240
15375W        W19775  23.872   7.776  28.701  0.1521 -0.1893  0.0643
15376W        W19776   8.358   1.798  29.976  0.0104 -0.0622 -0.0660
15377W        W19777  20.102   4.115  30.373  0.1377 -0.2828 -0.1747
15378W        W19778   0.456   5.323   5.055  0.0141  0.3308  0.3267
15379W        W19779  23.609   3.606   0.227  0.0501 -0.2267  0.0728
15380W        W19780  10.598   6.863  28.876  0.1712 -0.1213  0.0370
15381W        W19781  10.217   2.585  24.830  0.0208 -0.2624  0.0572
15382W        W19782   8.831   1.185  29.032 -0.0186 -0.1759 -0.1151
15383W        W19783  17.403   6.318  24.839  0.0169  0.1345  0.1252
15384W        W19784   9.619   7.184  24.051 -0.2637  0.0340 -0.1564
15385W        W19785   1.992   0.403  11.172  0.0895  0.1734  0.0821
15386W        W19786   2.524   1.496  21.394  0.0809  0.1107 -0.0459
15387W        W19787   4.356   0.200   2.854  0.0843 -0.0605 -0.0259
15388W        W19788  21.626   2.614  23.804 -0.1053 -0.1566 -0.4935
15389W        W19789   1.072   7.093  26.798 -0.1282 -0.1094 -0.0156
15390W        W19790  22.059   2.358  20.692  0.1070 -0.0509 -0.1347
15391W        W19791   6.877   0.219   6.160 -0.1598  0.1067  0.0962
15392W        W19792  17.815   0.483  29.829 -0.1066 -0.3893 -0.0074
15393W        W19793  21.226   4.236  29.321 -0.0570  0.0397 -0.0504
15394W        W19794  16.849   0.353   7.572 -0.1736 -0.0814 -0.1403
15395W        W19795   2.227   6.330   7.308 -0.0349  0.1165 -0.0454
15396W        W19796   7.464   2.754  32.233  0.1127 -0.0619  0.0334
15397W        W19797   1.066   4.493  31.571 -0.0392 -0.0640  0.1289
15398W        W19798   1.073   2.424  32.611  0.0646 -0.0035  0.5226
15399W        W19799  13.204   1.497  14.101  0.0172  0.1761  0.2808
15400W        W19800   8.077   2.165  29.678  0.1473 -0.0082 -0.1054
15401W        W19801  13.821   7.261   7.806 -0.0872 -0.3680  0.1301
15402W        W19802  16.908   5.944   0.491  0.2335  0.3039 -0.1173
15403W        W19803   8.568   7.757  18.304 -0.0987 -0.0007  0.0515
15404W        W19804  17.186   1.136  32.119 -0.0555 -0.2529 -0.0575
15405W        W19805   2.116   2.387   0.668  0.0275  0.1273  0.0473
15406W        W19806  24.302   5.822   1.065  0.0966  0.3789 -0.1372
15407W        W19807  24.014   3.933  24.192  0.0980 -0.1043  0.2846
15408W        W19808  23.437   2.424  24.059 -0.2706 -0.0938 -0.0218
15409W        W19809   6.218   2.153  13.338 -0.2020  0.0695  0.2599
15410W        W19810  12.426   6.999   3.810  0.0409 -0.0671  0.0411
15411W        W19811   9.482   7.164  25.774 -0.1935 -0.2883  0.0526
15412W        W19812   2.435   2.061  10.081 -0.2683  0.1521 -0.1055
15413W        W19813  13.672   0.073  30.922  0.0196  0.2493  0.0699
15414W        W19814   3.952   5.631   8.758 -0.0562  0.0647 -0.0791
15415W        W19815   0.026   5.799  31.993 -0.4577  0.0562  0.1873
15416W        W19816   3.643   1.181  25.417  0.2141 -0.1042 -0.1921
15417W        W19817   7.878   1.200   3.221  0.0876  0.1302 -0.1804
15418W        W19818  10.475   3.036   7.851  0.0524 -0.2339 -0.3188
15419W        W19819   8.612   2.580   2.324 -0.0836  0.0765 -0.0135
15420W        W19820  14.423   1.891  12.156 -0.0843  0.4950 -0.1485
15421W        W19821   0.186   5.552  19.285 -0.1096  0.0721 -0.0635
15422W        W19822  10.990   1.458  13.802  0.0718  0.1161  0.0084
15423W        W19823  17.030   0.601  24.585 -0.0734  0.0585 -0.0880
15424W        W19824  12.164   1.215   3.386 -0.0059 -0.1992 -0.1395
15425W        W19825  17.321   1.588   2.762 -0.1265 -0.0736 -0.0671
15426W        W19826  24.865   2.854   3.452  0.2559 -0.1463 -0.0699
15427W        W19827  21.868   4.016  23.502 -0.2877 -0.0696  0.1989
15428W        W19828   4.804   5.535   2.243 -0.1458 -0.0758 -0.1241
15429W        W19829  11.481   0.647   4.361 -0.0942  0.0134 -0.1393
15430W        W19830   6.172   4.754  17.035 -0.1389 -0.1544 -0.0558
15431W        W19831  16.286   5.728   7.906  0.0749 -0.0298 -0.0846
15432W        W19832   8.421   4.952  29.581  0.2403  0.2433  0.0241
15433W        W19833  12.116   6.788  27.741  0.0978 -0.0215 -0.1424
15434W        W19834  17.840   3.669  25.098 -0.2618 -0.1346 -0.0174
15435W        W19835   4.659   1.782  23.745 -0.3211 -0.1372 -0.3055
15436W        W19836  14.840   2.762   8.696 -0.0064 -0.2516 -0.3379
15437W        W19837   5.185   1.367  25.114 -0.1639  0.0250 -0.0197
15438W        W19838  19.850   3.526  32.496  0.0202 -0.1823 -0.1247
15439W        W19839  22.680   0.338  27.051  0.0932  0.3783  0.1861
15440W        W19840  23.891   6.891  17.019  0.1010 -0.0302  0.2883
15441W        W19841  13.019   2.638  31.186  0.0446  0.0543 -0.0333
15442W        W19842  24.503   7.825   9.954  0.0745 -0.1922  0.1953
15443W        W19843  23.205   6.947  30.312 -0.3185 -0.1957  0.4221
15444W        W19844  15.924   1.512   3.032 -0.2061 -0.0183  0.0430
15445W        W19845  22.248   3.606   9.292 -0.0074  0.2090  0.2646
15446W        W19846  22.191   5.017   7.859 -0.5895 -0.0524  0.1796
15447W        W19847  17.365   6.456  26.949  0.3013  0.0041  0.0918
15448W        W19848  21.800   0.807  32.247 -0.0523  0.2121  0.0383
15449W        W19849  20.990   0.909  23.528  0.2720 -0.2574  0.0205
15450W        W19850  19.965   0.574  30.089  0.2380  0.0385  0.0370
15451W        W19851  22.097   6.246   9.994  0.0104 -0.1409  0.1061
15452W        W19852  21.031   6.910  21.283 -0.1119  0.2555  0.0020
15453W        W19853  19.197   5.436   0.776  0.1277  0.2571 -0.0755
15454W        W19854  17.464   0.810  29.928 -0.2534 -0.1252  0.1088
15455W        W19855  14.020   5.296  12.295 -0.2551 -0.0927 -0.0434
15456W        W19856   4.434   1.807  10.954 -0.0676  0.1431 -0.0006
15457W        W19857   4.518   0.646  23.449 -0.2008 -0.0121 -0.2103
15458W        W19858  22.414   7.055   0.815  0.0588 -0.1306  0.3370
15459W        W19859  11.888   1.352   4.060 -0.0466 -0.1047 -0.1200
15460W        W19860  17.476   3.270  24.198  0.2990  0.0703  0.2896
15461W        W19861   9.456   5.776  16.662 -0.1052  0.0453 -0.0472
15462W        W19862  13.446   4.111  22.056 -0.0560  0.3376  0.2830
15463W        W19863  12.230   0.369  32.445 -0.1742 -0.0712 -0.0421
15464W        W19864  23.084   5.462  14.736 -0.0336  0.3220  0.0874
15465W        W19865  21.401   2.298   5.810 -0.0643 -0.0969 -0.1656
15466W        W19866  18.211   3.362  32.099  0.1041 -0.0492  0.0476
15467W        W19867  10.363   4.448  11.573  0.1435  0.1775 -0.0382
15468W        W19868   9.423   0.696   4.176 -0.0217 -0.0466  0.1131
15469W        W19869  23.815   1.648   9.970 -0.3001 -0.1641 -0.0640
15470W        W19870  18.825   0.539   0.156  0.0468 -0.0161  0.1842
15471W        W19871   9.530   6.003  24.655  0.2001 -0.1476 -0.0532
15472W        W19872   3.237   1.826  31.668  0.1291  0.1843  0.2695
15473W        W19873  24.318   0.241  31.259 -0.1447 -0.1583  0.0064
15474W        W19874  11.277   1.007  31.169 -0.1855 -0.0287  0.0341
15475W        W19875  14.514   4.000   6.018 -0.0780  0.0125 -0.0660
15476W        W19876  17.511   6.997   2.515 -0.3465  0.1328  0.0962
15477W        W19877  11.815   5.407  32.668 -0.1916 -0.3280  0.1404
15478W        W19878   5.148   1.598   8.814 -0.1506 -0.2606 -0.0978
15479W        W19879  24.624   3.416  10.319  0.0450 -0.1280  0.0887
15480W        W19880  15.483   3.381  25.749 -0.1003  0.0288  0.0965
15481W        W19881   0.849   2.365  21.622  0.1206  0.2962 -0.0826
15482W        W19882  16.481   0.423  18.902 -0.2200  0.0287 -0.0030
15483W        W19883  18.782   1.515  16.376 -0.2731  0.1168 -0.0832
15484W        W19884  22.346   2.989  16.376  0.1815 -0.0516 -0.0347
15485W        W19885  24.025   5.935   0.111  0.0386  0.1559  0.2636
15486W        W19886  22.407   6.200  23.322  0.1254 -0.1459  0.0233
15487W        W19887  24.140   3.027  22.818 -0.1499  0.3284 -0.1375
15488W        W19888  16.747   2.501   5.505 -0.1251 -0.1910 -0.0195
15489W        W19889  15.287   4.726   3.596 -0.0335 -0.1056 -0.2793
15490W        W19890   7.846   2.052   2.767  0.0427 -0.2428  0.0785
15491W        W19891  23.356   3.201   6.871  0.2311 -0.3215 -0.1860
15492W        W19892  11.831   5.651  29.307 -0.1244 -0.1001 -0.3509
15493W        W19893  19.618   3.528  16.282 -0.1169 -0.2334 -0.2006
15494W        W19894   7.475   3.961   8.813 -0.0645 -0.1410  0.0248
15495W        W19895  12.777   0.207   6.874 -0.0854 -0.3207 -0.2779
15496W        W19896  12.117   3.576  27.427  0.2948 -0.3357 -0.1228
15497W        W19897   6.432   2.872  26.838 -0.2836  0.2258 -0.3064
15498W        W19898   4.260   4.030  28.966  0.2528 -0.0212  0.0045
15499W        W19899  13.020   5.342   0.256  0.0285  0.0837 -0.0834
15500W        W19900   9.447   7.699  25.440 -0.1656 -0.0126 -0.0332
15501W        W19901   1.538   1.446  28.617  0.2999  0.0461 -0.0722
15502W        W19902   6.978   6.421  16.347 -0.3385  0.0131  0.2009
15503W        W19903   7.811   0.115  30.143  0.0051  0.0253  0.2393
15504W        W19904  11.528   4.840   7.360 -0.1136  0.1829 -0.0094
15505W        W19905   2.392   7.257  27.305 -0.2712  0.0674 -0.0486
15506W        W19906   5.075   2.288  16.555 -0.1942  0.1025 -0.0099
15507W        W19907  17.736   6.480  31.717  0.0151 -0.0562 -0.5304
15508W        W19908   8.296   0.610   7.930  0.2113  0.2313  0.2405
15509W        W19909  19.664   0.538  16.966  0.1289  0.1694 -0.1172
15510W        W19910  24.893   5.095  21.494 -0.1011  0.1383  0.1680
15511W        W19911  17.321   0.936  25.831  0.0956 -0.1683 -0.0015
15512W        W19912  12.680   6.980  12.014 -0.1402  0.2345  0.2479
15513W        W19913  23.097   4.488  17.256  0.3427 -0.1393  0.2750
15514W        W19914  12.225   0.022   2.039 -0.0820  0.0120  0.4010
15515W        W19915  22.097   2.407  26.591  0.1767 -0.1700 -0.0523
15516W        W19916  17.280   5.085  30.325  0.2824 -0.1415  0.0818
15517W        W19917   9.049   5.387   6.571 -0.0406 -0.5154  0.3003
15518W        W19918  23.897   1.249  24.146 -0.1887  0.3823  0.5228
15519W        W19919   5.364   4.434  29.910  0.0336 -0.0536 -0.0146
15520W        W19920   5.519   5.447  23.337  0.0312 -0.1759 -0.1141
15521W        W19921  23.801   0.001   4.808 -0.0382 -0.1842  0.0264
15522W        W19922  18.112   3.897  19.780  0.0055 -0.1942 -0.0446
15523W        W19923  22.153   3.659  32.069 -0.3857  0.0677  0.2465
15524W        W19924  10.777   0.569  23.289 -0.0640 -0.0725 -0.0275
15525W        W19925  14.422   7.508  27.159  0.0748 -0.1425  0.0260
15526W        W19926  22.930   7.045   1.962 -0.0599  0.0433 -0.0885
15527W        W19927  22.381   3.285  29.433 -0.0380 -0.1977 -0.0410
15528W        W19928  14.134   0.172  21.800  0.1819 -0.2860  0.1433
15529W        W19929  16.612   3.454   3.862  0.2005  0.0510  0.0703
15530W        W19930   8.248   5.436   8.131  0.0760  0.2848  0.0808
15531W        W19931  11.305   5.503  32.218 -0.3439  0.1141  0.1086
15532W        W19932   4.194   0.848  25.209 -0.0540 -0.0057 -0.0935
15533W        W19933  23.155   2.595   8.511 -0.0434 -0.0629 -0.0662
15534W        W19934  22.373   4.344  29.900  0.0304 -0.0560 -0.4388
15535W        W19935   3.344   2.740  24.623  0.0709 -0.1194 -0.3558
15536W        W19936  18.858   2.953  15.408  0.1130  0.3836  0.2995
15537W        W19937   4.633   4.982   4.047  0.0879 -0.3153 -0.1342
15538W        W19938  20.191   6.439  24.754  0.1288 -0.1816 -0.0243
15539W        W19939   3.946   1.090   5.028  0.0723 -0.3990  0.1352
15540W        W19940  10.895   3.520  26.433  0.2125 -0.2766 -0.2349
15541W        W19941   7.802   4.442   8.819  0.2938 -0.0773  0.2944
15542W        W19942   8.518   3.583  18.365  0.1487  0.0190 -0.1264
15543W        W19943  20.108   2.364  18.777 -0.2558  0.0625 -0.3134
15544W        W19944  13.915   3.490  30.823 -0.2183 -0.1879  0.2236
15545W        W19945   4.710   4.236  10.744  0.1788  0.0459  0.0730
15546W        W19946  20.746   5.584   9.575  0.2632  0.0977  0.4706
15547W        W19947   7.935   5.709  17.848  0.1299 -0.4751  0.1643
15548W        W19948   9.700   3.412  17.731  0.3049  0.0754  0.4197
15549W        W19949  16.357   4.457   7.671 -0.0836  0.1210 -0.1675
15550W        W19950  23.432   3.302  30.450 -0.0001 -0.0363 -0.2403
15551W        W19951   0.899   5.940  23.877 -0.1260 -0.1244  0.0192
15552W        W19952  18.719   3.584  21.745  0.0050 -0.0868  0.1268
15553W        W19953  22.705   0.793   5.571 -0.1945  0.1580  0.1226
15554W        W19954  23.652   2.542   5.189 -0.0838  0.0552  0.2930
15555W        W19955   6.205   1.987  26.154 -0.0309 -0.1939 -0.3217
15556W        W19956  24.616   0.140  17.754  0.2138 -0.3151 -0.0045
15557W        W19957   7.514   4.822  23.907 -0.0803  0.3162  0.2622
15558W        W19958  24.526   3.353  22.670 -0.2009 -0.0380 -0.2442
15559W        W19959   6.225   2.503  24.442  0.2444  0.0698  0.0171
15560W        W19960   2.699   0.493   2.471 -0.1356  0.1234 -0.0158
15561W        W19961  11.454   4.687   6.874 -0.0141 -0.2646  0.0826
15562W        W19962   7.343   1.819   0.960  0.0854  0.2477  0.1364
15563W        W19963  12.819   7.620   9.296 -0.1645 -0.1038 -0.0790
15564W        W19964   2.159   6.679   0.971  0.0234 -0.2151  0.1075
15565W        W19965  24.838   5.806   4.497 -0.1052  0.6760 -0.1543
15566W        W19966   1.375   6.493  18.900 -0.1147 -0.1972 -0.3685
15567W        W19967   6.717   7.381  27.975  0.1007 -0.2135 -0.0420
15568W        W19968  10.007   7.682  14.263 -0.1267  0.1783 -0.0894
15569W        W19969  23.361   0.276   0.877 -0.3910  0.1335  0.1168
15570W        W19970  11.596   1.173  30.562  0.0095 -0.2091  0.0032
15571W        W19971  12.370   4.406  10.360  0.3061 -0.1516  0.2932
15572W        W19972  10.689   0.562  14.513 -0.0828  0.0703  0.0084
15573W        W19973   1.366   0.661   8.591 -0.0587  0.2140 -0.1074
15574W        W19974   8.594   5.805  17.755  0.2786  0.0259  0.0940
15575W        W19975   5.010   0.688   2.886 -0.1036 -0.4726  0.1902
15576W        W19976   9.962   2.001  15.204  0.0501 -0.0042 -0.0678
15577W        W19977  21.007   7.158   1.723 -0.0859 -0.0517  0.0174
15578W        W19978  10.463   2.539  23.102 -0.2486 -0.0684  0.0542
15579W        W19979   9.627   3.224  22.438  0.0858 -0.0235  0.1597
15580W        W19980  23.328   1.411   9.204 -0.0598 -0.2048  0.0959
15581W        W19981   5.703   0.519   1.032  0.1059 -0.1828  0.0385
15582W        W19982   0.690   2.438  26.166  0.1226 -0.3425  0.1610
15583W        W19983  21.723   3.665   6.796 -0.2208  0.2365  0.2145
15584W        W19984  23.239   5.814   4.291 -0.2430 -0.1491  0.2359
15585W        W19985  20.567   7.463  25.605 -0.1023  0.1544  0.1882
15586W        W19986  22.375   0.131  17.995  0.1379  0.0856 -0.4641
15587W        W19987  15.627   3.552  31.230 -0.0513 -0.1616  0.1275
15588W        W19988  10.625   0.106  28.828  0.0156 -0.0959 -0.0646
15589W        W19989  11.523   4.544  22.096  0.3275 -0.1960 -0.2466
15590W        W19990  16.307   3.606   4.340 -0.0855  0.1764 -0.3569
15591W        W19991  10.313   6.412  14.367 -0.1942  0.1931  0.0554
15592W        W19992  23.286   0.562  29.308 -0.0049  0.3627 -0.1477
15593W        W19993  13.624   2.568   4.999  0.0724  0.0080  0.0918
15594W        W19994   9.732   5.866  11.616  0.1558 -0.1226 -0.1054
15595W        W19995   7.402   6.830  28.084 -0.5033  0.0354 -0.0017
15596W        W19996  10.966   0.784  22.413 -0.0045  0.0194 -0.0879
15597W        W19997   2.550   4.706   1.613 -0.0950  0.3167  0.0991
15598W        W19998   2.282   4.885   4.654 -0.2396  0.3285  0.0242
15599W        W19999  18.019   0.241  32.672 -0.1115  0.0585 -0.1913
15600W        W20000  12.543   0.391  14.665 -0.0244  0.0447 -0.2221
15601W        W20001  19.447   4.850   2.838  0.1857  0.0415 -0.1340
15602W        W20002  15.143   2.063   3.642  0.1097  0.3404 -0.3260
15603W        W20003  14.441   3.830  23.462 -0.2291  0.1626  0.1358
15604W        W20004  12.624   5.102  13.936  0.0970 -0.0172  0.1779
15605W        W20005   4.334   2.148   6.465 -0.4142  0.0417 -0.0231
15606W        W20006   3.396   3.317  11.704  0.0807 -0.0048 -0.1998
15607W        W20007   4.992   2.889   3.094  0.0018 -0.1648 -0.1191
15608W        W20008  23.619   7.225  25.264 -0.0511 -0.0481  0.2622
15609W        W20009  14.065   4.376  28.899  0.0774 -0.0447  0.4878
15610W        W20010   5.130   4.800  12.837  0.1923  0.0862  0.1076
15611W        W20011  20.394   6.921  16.934 -0.3978  0.1961  0.0008
15612W        W20012   1.434   1.412  11.178 -0.1857  0.3447 -0.1199
15613W        W20013   9.265   5.863  14.145 -0.0786 -0.1274 -0.0123
15614W        W20014  20.789   0.216   2.584  0.1695 -0.2196  0.0294
15615W        W20015   3.060   6.895  25.301  0.0107 -0.2093  0.1609
15616W        W20016  23.730   6.235  19.023 -0.2037  0.2117 -0.0617
15617W        W20017  23.922   5.235   3.986 -0.1170 -0.1195  0.2405
15618W        W20018  11.049   4.363  24.115  0.0191 -0.0552 -0.4435
15619W        W20019   3.413   1.468   6.373 -0.0820  0.2461  0.0623
15620W        W20020   0.925   0.608  25.357 -0.0622 -0.0767  0.4642
15621W        W20021  24.256   5.304  17.624 -0.2006  0.1515 -0.0635
15622W        W20022  12.028   7.252  27.976  0.0915 -0.1466 -0.1722
15623W        W20023  23.314   2.524   2.268  0.2764 -0.0901  0.0809
15624W        W20024  21.566   3.046  10.209 -0.3023 -0.1481  0.0221
15625W        W20025   9.642   5.855  13.743  0.0506 -0.1016 -0.1231
15626W        W20026  10.569   5.651  26.626 -0.0982 -0.0709 -0.0696
15627W        W20027   0.063   6.472  31.405  0.0614 -0.1424 -0.0043
15628W        W20028   1.437   0.255   0.127  0.1766 -0.0707 -0.0557
15629W        W20029   0.913   5.912  32.316  0.0905  0.0534  0.0947
15630W        W20030   7.924   0.093   6.706  0.1234 -0.3358  0.2059
15631W        W20031  20.069   0.466   4.347 -0.0937 -0.1790  0.0147
15632W        W20032   7.685   0.762  26.587 -0.0297  0.1082  0.1244
15633W        W20033   3.005   2.902  28.163 -0.1586  0.3937 -0.2440
15634W        W20034   1.045   3.231   9.451  0.1427  0.2602  0.2115
15635W        W20035  13.498   6.168  27.206 -0.1634  0.1410 -0.0756
15636W        W20036  15.306   4.082  24.034 -0.3403  0.0301 -0.2280
15637W        W20037  10.791   7.610   1.743  0.2191 -0.1053 -0.2429
15638W        W20038  18.367   3.193  28.666  0.0594  0.3911  0.3357
15639W        W20039   4.453   2.095  30.218  0.0548 -0.1029 -0.1400
15640W        W20040  22.669   1.577  20.060 -0.0134 -0.0618  0.1539
15641W        W20041  17.530   2.786   8.015 -0.0942  0.2381  0.0968
15642W        W20042   3.588   3.558  13.093 -0.0504  0.0969  0.1168
15643W        W20043   6.532   3.665   8.339 -0.0200 -0.2117 -0.1956
15644W        W20044  23.159   6.988  25.058 -0.4084 -0.3498  0.1730
15645W        W20045   4.820   1.873   2.641  0.1962  0.1017  0.0374
15646W        W20046   6.832   6.295  28.650  0.1949 -0.1198 -0.0119
15647W        W20047  22.853   2.326   6.942  0.1412  0.0733 -0.0800
15648W        W20048  12.870   0.566  13.930 -0.2972 -0.0179 -0.1812
15649W        W20049  23.294   5.153   6.447 -0.1656  0.0376 -0.1502
15650W        W20050  22.448   3.847  13.995  0.1126  0.2074  0.0403
15651W        W20051  20.027   2.730   3.708 -0.0896 -0.2492  0.0359
15652W        W20052   7.767   1.974  24.777  0.0468  0.3973 -0.1861
15653W        W20053  16.571   3.967  19.031  0.0372  0.0117 -0.0203
15654W        W20054  15.477   6.379  28.949  0.0281  0.1989  0.2070
15655W        W20055  10.714   2.366  15.137 -0.0144 -0.0581  0.0301
15656W        W20056  18.347   0.968   0.763 -0.1716 -0.2608  0.2056
15657W        W20057   4.161   1.734   3.619 -0.1242 -0.0669 -0.0662
15658W        W20058   9.977   7.242  11.414  0.0778  0.0457 -0.0385
15659W        W20059  22.550   7.267  27.153 -0.0876  0.0882 -0.0105
15660W        W20060   0.726   0.423  22.272  0.1842  0.2851  0.0163
15661W        W20061  20.875   4.586  31.565  0.1514  0.0049  0.0419
15662W        W20062  18.153   1.960  29.321  0.0867 -0.0182  0.0875
15663W        W20063   8.777   6.649  23.844 -0.0230 -0.0453 -0.0062
15664W        W20064  15.949   1.362  11.318 -0.1503 -0.0208 -0.0844
15665W        W20065  22.728   4.851  27.336 -0.0179 -0.1274  0.1810
15666W        W20066   3.762   6.492   7.694  0.2083  0.0310 -0.1849
15667W        W20067   6.944   7.048  29.354  0.0126  0.0644 -0.0006
15668W        W20068   7.791   5.569  32.594 -0.0952 -0.2494 -0.0442
15669W        W20069  17.205   1.684   0.871 -0.1906  0.3387  0.1010
15670W        W20070  21.668   0.121   2.862  0.1321 -0.2593 -0.1781
15671W        W20071  23.057   3.810   2.044 -0.3717 -0.1350 -0.1848
15672W        W20072  18.873   1.628   6.249  0.0987  0.0096  0.2935
15673W        W20073  23.926   1.791  29.758  0.2189 -0.0839 -0.2862
15674W        W20074   8.750   5.756   1.372  0.0136 -0.0593  0.1029
15675W        W20075   5.666   6.497  13.296 -0.2870 -0.0479 -0.1644
15676W        W20076   4.522   0.112   9.081  0.0581 -0.4615  0.2562
15677W        W20077  21.081   0.567   4.137 -0.3999 -0.0685 -0.1038
15678W        W20078   7.419   6.172  31.257 -0.1186 -0.2267 -0.0730
15679W        W20079  18.173   7.574  31.028  0.3032 -0.2079 -0.0331
15680W        W20080  17.159   1.108   8.741  0.0716  0.2496  0.0541
15681W        W20081  23.140   6.579  26.058 -0.2179  0.0359  0.0902
15682W        W20082  23.910   4.375  26.870 -0.0794  0.1257  0.2418
15683W        W20083  18.448   0.725  28.034 -0.1718  0.0362  0.1221
15684W        W20084   8.170   5.502  31.631 -0.0881  0.0956  0.0668
15685W        W20085  11.665   4.093  30.191 -0.3185  0.2593  0.0419
15686W        W20086  20.675   1.738   7.189  0.0008 -0.2142  0.0935
15687W        W20087  19.280   7.397  19.581 -0.1946  0.0515  0.0657
15688W        W20088   6.051   6.604   5.700  0.3290  0.0948 -0.3208
15689W        W20089  19.917   5.457   8.161 -0.1357  0.1270  0.0681
15690W        W20090  21.216   7.547  21.803 -0.1314  0.3304 -0.0628
15691W        W20091   7.765   5.880  10.929  0.1706 -0.0287  0.0372
15692W        W20092  15.593   2.351  10.520 -0.0346  0.3308 -0.1828
15693W        W20093   0.536   4.200  17.352  0.0551  0.0855  0.1846
15694W        W20094   3.570   1.743   8.938 -0.0992  0.4657 -0.1736
15695W        W20095   1.700   2.041   0.597 -0.0547  0.0170  0.0026
15696W        W20096   8.564   1.645   9.415 -0.0608 -0.2702  0.0749
15697W        W20097   1.454   4.127  23.416  0.2438 -0.1155  0.1040
15698W        W20098   3.646   0.874  31.565 -0.0102 -0.0716  0.2676
15699W        W20099  21.804   2.039  24.576 -0.1240  0.0640  0.1357
15700W        W20100   3.184   0.089   7.790 -0.0766 -0.0807 -0.0370
15701W        W20101   6.578   5.244  24.956 -0.0260  0.0470 -0.1647
15702W        W20102   4.879   0.174   5.815 -0.0882 -0.0954 -0.0110
15703W        W20103  18.491   4.626  27.220 -0.1091 -0.1709  0.1900
15704W        W20104  20.891   5.243   8.607  0.1039 -0.0560 -0.1456
15705W        W20105   2.768   4.584  11.443  0.3815  0.1763  0.1156
15706W        W20106   5.094   4.567  31.602  0.1853 -0.1396 -0.2737
15707W        W20107  16.755   2.940  31.863  0.0339 -0.1295 -0.1410
15708W        W20108   8.523   3.853   8.566 -0.0701 -0.0095  0.1175
15709W        W20109  18.815   5.750  20.649 -0.0087  0.0462  0.0874
15710W        W20110   8.165   4.046  11.676 -0.0451 -0.1013  0.0598
15711W        W20111  18.932   0.992  31.874 -0.3853  0.2105 -0.0959
15712W        W20112   4.398   6.378   2.462 -0.0399 -0.3585 -0.3096
15713W        W20113  16.219   6.463  29.530  0.3141 -0.0532  0.2977
15714W        W20114  22.971   5.053   0.117 -0.1010 -0.2692  0.4450
15715W        W20115  15.021   3.275  26.102 -0.0597 -0.1955  0.1905
15716W        W20116  23.272   3.171  27.085  0.0161 -0.3013  0.0460
15717W        W20117   6.566   0.332   6.549 -0.3146  0.4953 -0.1456
15718W        W20118   2.502   2.324  19.625 -0.1772  0.1685  0.3430
15719W        W20119  23.294   4.164  18.877 -0.1276 -0.2983  0.2732
15720W        W20120  17.817   4.519  27.973 -0.0926 -0.0359  0.1351
15721W        W20121  23.477   4.920  23.468  0.0099 -0.4390 -0.1323
15722W        W20122  18.269   4.174   2.683 -0.0198  0.1498  0.2979
15723W        W20123  22.977   2.232  23.905  0.2582  0.0511  0.0214
15724W        W20124   9.760   0.272  26.310 -0.0765 -0.2209  0.0659
15725W        W20125   5.301   1.463  31.733 -0.0530 -0.0981 -0.1409
15726W        W20126   6.097   6.611  27.663 -0.0863 -0.0260  0.0252
15727W        W20127  21.170   3.353  18.407  0.0297  0.0382 -0.4457
15728W        W20128   4.440   5.358  11.740 -0.0537  0.2571 -0.2312
15729W        W20129  13.603   2.241  21.146  0.1039 -0.0721 -0.2725
15730W        W20130   7.642   2.417  23.878  0.0906 -0.0416  0.0982
15731W        W20131   9.597   3.366  28.519 -0.0579  0.0174  0.0488
15732W        W20132   8.462   7.386  11.903 -0.1505 -0.1547 -0.0862
15733W        W20133  11.352   2.470   1.923  0.1444 -0.1165 -0.0431
15734W        W20134   2.194   1.529  13.065 -0.3088  0.2911  0.1476
15735W        W20135  19.374   1.939   9.221  0.0627  0.1349  0.2974
15736W        W20136  18.213   2.076  21.840  0.0349  0.0012 -0.1223
15737W        W20137  21.438   7.303  17.270 -0.0669 -0.1973 -0.2772
15738W        W20138  22.907   4.028  23.807  0.1021  0.4272  0.0735
15739W        W20139  22.164   7.585  25.787 -0.0499 -0.0078  0.1375
15740W        W20140  22.342   6.565  22.950  0.0456 -0.2235  0.0428
15741W        W20141  20.134   1.848   4.943 -0.0989 -0.1627 -0.1206
15742W        W20142   0.944   3.652  18.811 -0.1059 -0.1446  0.1515
15743W        W20143   4.443   1.028  10.973 -0.2141 -0.0059 -0.0044
15744W        W20144  17.858   6.478   6.661  0.2426 -0.2465 -0.1838
15745W        W20145   6.140   0.525  27.576  0.3601 -0.0886  0.1012
15746W        W20146  10.594   1.438  14.175  0.1540  0.3634  0.0465
15747W        W20147   0.133   3.977  16.287 -0.2030  0.1242  0.2702
15748W        W20148  11.075   3.723   3.502 -0.1885 -0.1072 -0.1431
15749W        W20149  15.414   3.810  32.198 -0.0755 -0.2329 -0.0646
15750W        W20150   5.392   5.954  30.421  0.0381  0.2123  0.1252
15751W        W20151  16.478   0.961  18.753  0.0235  0.1974 -0.0419
15752W        W20152  11.645   3.237  25.604  0.0113  0.1079 -0.1059
15753W        W20153   1.290   1.798   8.775  0.1687 -0.0628  0.1708
15754W        W20154  16.602   2.090  19.631  0.1823 -0.2174  0.2659
15755W        W20155  22.520   4.068  21.888 -0.1962  0.1156 -0.2252
15756W        W20156   5.018   6.194  30.580 -0.2043 -0.1026 -0.0901
15757W        W20157  13.123   7.824  10.934 -0.1463 -0.0644  0.0422
15758W        W20158   7.910   0.133   6.181 -0.0714 -0.0195  0.0817
15759W        W20159  19.078   1.384   0.280  0.2116 -0.3174 -0.3097
15760W        W20160   0.236   6.759  29.520  0.0156  0.0305  0.0193
15761W        W20161  19.926   7.207  15.108 -0.0002  0.3641 -0.0131
15762W        W20162   9.661   7.337  28.984  0.1746  0.1557  0.1400
15763W        W20163  21.073   2.457   9.648  0.1044 -0.1359 -0.1496
15764W        W20164   6.953   3.530   1.328  0.1666 -0.1890  0.1112
15765W        W20165   1.834   3.313  11.446 -0.3168  0.0021  0.2725
15766W        W20166  11.987   0.157  24.310 -0.4264 -0.1890 -0.0752
15767W        W20167   9.558   6.065   1.453  0.2003 -0.0153 -0.1122
15768W        W20168   6.768   7.152  17.357 -0.0948  0.1307  0.1165
15769W        W20169  13.557   2.875  14.264  0.2260 -0.1336  0.0098
15770W        W20170  24.716   0.452  26.457 -0.2051  0.1156  0.1103
15771W        W20171  14.557   4.775  10.788  0.4020 -0.0796 -0.2209
15772W        W20172   3.710   5.405  28.407  0.1552  0.0965  0.0768
15773W        W20173  15.229   5.328  10.147  0.2825 -0.2917  0.2845
15774W        W20174   7.974   3.260  26.789 -0.2406 -0.0420 -0.0208
15775W        W20175  16.543   6.366  20.015 -0.3013 -0.0663 -0.1678
15776W        W20176   6.920   1.564  30.185 -0.1103 -0.1223 -0.2382
15777W        W20177   4.265   2.709  31.321  0.4912 -0.0226  0.1749
15778W        W20178   8.411   1.138  26.956 -0.0535  0.0233 -0.1266
15779W        W20179   4.547   0.773  22.208  0.0195  0.3567 -0.0657
15780W        W20180   9.289   6.890  14.039 -0.1601  0.0130 -0.3033
15781W        W20181  16.197   5.112   4.445 -0.0498  0.2804 -0.1109
15782W        W20182  10.948   0.967  15.959  0.2754  0.1702 -0.0634
15783W        W20183  12.953   0.005   3.793 -0.6201 -0.2248  0.1741
15784W        W20184  13.119   3.453   2.606  0.3768  0.2129  0.0980
15785W        W20185  14.858   1.587  27.847  0.0279  0.0143  0.1314
15786W        W20186   8.512   7.344   5.143  0.1532  0.3398  0.1640
15787W        W20187  16.544   3.819   2.311 -0.0541  0.1213 -0.0679
15788W        W20188   2.279   7.022  22.784 -0.2293  0.3246  0.1495
15789W        W20189  19.411   7.324   5.354  0.2261  0.2078  0.0224
15790W        W20190   7.209   6.932  26.381 -0.2576  0.2569  0.0951
15791W        W20191  18.175   3.814   3.007 -0.2803 -0.1004 -0.0298
15792W        W20192   1.344   3.538  28.734  0.1586  0.1481  0.0124
15793W        W20193  22.198   0.256   7.716 -0.0034  0.0642  0.0888
15794W        W20194  20.563   2.886   2.354  0.1846  0.3015  0.0509
15795W        W20195  15.678   3.698   6.697  0.1032  0.2744  0.1201
15796W        W20196  24.619   2.515  19.117 -0.0319 -0.0265 -0.0693
15797W        W20197  23.064   5.442  17.692 -0.1087  0.2132 -0.1237
15798W        W20198   5.082   3.189  12.364  0.1093  0.2078 -0.2619
15799W        W20199  12.208   4.561  25.048 -0.2064  0.1848  0.1031
15800W        W20200  18.876   0.155  19.038 -0.0680 -0.1153 -0.1173
15801W        W20201  19.230   5.408   0.011 -0.0303  0.0594 -0.0706
15802W        W20202  19.555   1.783  17.844  0.2824  0.3319  0.1251
15803W        W20203  17.893   1.805   3.820  0.1389 -0.0353 -0.1410
15804W        W20204  23.434   3.489  15.031  0.2112 -0.0408 -0.2200
15805W        W20205   4.011   5.616  14.796  0.0124  0.1584  0.3271
15806W        W20206   8.874   1.345   8.245  0.0196 -0.1458 -0.1647
15807W        W20207   2.213   2.251   6.399  0.1364 -0.0649 -0.0909
15808W        W20208  12.376   0.825  13.951  0.0299 -0.0604 -0.2507
15809W        W20209  18.978   6.252  29.185 -0.0681 -0.0792  0.2040
15810W        W20210   3.103   5.238  10.280  0.0497 -0.0437  0.2177
15811W        W20211   0.327   3.480  17.416 -0.0980 -0.0834  0.3005
15812W        W20212  21.239   7.306   2.506 -0.0792  0.0576 -0.0013
15813W        W20213   4.341   5.877  29.753  0.0203 -0.1093  0.0172
15814W        W20214   4.092   7.344  13.073  0.3085  0.0889 -0.0281
15815W        W20215  24.051   4.169  27.774  0.0361  0.0686  0.0194
15816W        W20216   6.546   2.095  11.535  0.0207 -0.1163 -0.0045
15817W        W20217   8.052   4.717  23.160 -0.0997 -0.3222 -0.1584
15818W        W20218   1.083   6.821  32.057  0.2843  0.1109 -0.2507
15819W        W20219  14.072   0.487   6.031  0.0949 -0.2831  0.1211
15820W        W20220   2.847   5.353  32.168 -0.2352 -0.0108 -0.1839
15821W        W20221  16.592   2.586   1.872 -0.3252 -0.1717  0.2627
15822W        W20222  21.144   5.668  22.926 -0.0852 -0.0570 -0.1858
15823W        W20223  14.046   3.619  22.598 -0.0168 -0.0300  0.0608
15824W        W20224  22.528   2.146   2.631  0.1222  0.3672  0.0990
15825W        W20225   3.311   2.252  25.943  0.2760  0.2361 -0.0288
15826W        W20226   8.486   4.194  28.370 -0.0357  0.0901  0.1795
15827W        W20227  23.902   3.011  18.930  0.3524  0.0096  0.0917
15828W        W20228   4.752   3.531  23.684 -0.2986  0.1503 -0.2772
15829W        W20229  15.413   1.843   0.954  0.1110  0.1398  0.3288
15830W        W20230  13.677   3.736   7.601 -0.2069  0.1996  0.2460
15831W        W20231  18.715   5.339  28.861 -0.0989  0.2571  0.2106
15832W        W20232  22.308   5.180  16.702  0.3175 -0.1706 -0.0532
15833W        W20233  24.750   5.433   0.240 -0.0217 -0.3953  0.1460
15834W        W20234  23.042   1.960  15.629 -0.2273  0.1991  0.2249
15835W        W20235  14.872   2.322   8.422 -0.0027  0.0443 -0.1596
15836W        W20236  11.766   0.635  14.581  0.0387  0.0048 -0.1351
15837W        W20237  19.561   0.894  10.112  0.0630  0.1738  0.0705
15838W        W20238  19.568   4.360  18.281  0.0184 -0.1050  0.1259
15839W        W20239  10.802   0.440  27.426 -0.0476  0.0687 -0.2163
15840W        W20240  18.029   0.446  26.264  0.0173 -0.0074 -0.0491
15841W        W20241  13.595   2.194  13.495  0.0440  0.1356  0.0734
15842W        W20242  16.778   2.061   0.918 -0.0207  0.3089 -0.2105
15843W        W20243  14.338   3.286  28.606 -0.1112 -0.0799  0.2635
15844W        W20244   6.714   6.388  28.091  0.0315 -0.0326  0.0796
15845W        W20245  21.402   6.510   3.161  0.0009  0.2268 -0.1866
15846W        W20246   1.858   3.248  21.859 -0.1132  0.1278  0.0379
15847W        W20247  15.161   5.538  22.297  0.1307 -0.0311 -0.1474
15848W        W20248  12.309   0.127   9.096 -0.1701  0.1288  0.3777
15849W        W20249  12.552   3.320  32.060 -0.0564 -0.2735 -0.1007
15850W        W20250  10.859   2.529   4.446 -0.0420 -0.0805 -0.1390
15851W        W20251  20.606   3.695  20.534 -0.0089  0.0533 -0.0140
15852W        W20252  11.089   4.938  27.447 -0.2339 -0.2258  0.1089
15853W        W20253   1.653   7.103   8.749  0.0799 -0.2364 -0.2720
15854W        W20254  10.505   4.326  26.874 -0.1143 -0.0054  0.2912
15855W        W20255   8.768   2.946  24.517  0.4862 -0.0356  0.1238
15856W        W20256  22.338   2.862  19.666 -0.2190 -0.0600  0.0620
15857W        W20257   1.944   6.056  28.078 -0.3133  0.1655 -0.2573
15858W        W20258  20.745   7.037  23.611 -0.0491 -0.0257  0.2803
15859W        W20259   8.045   7.448   8.805  0.1363  0.0210 -0.0319
15860W        W20260   9.748   3.158  14.578  0.0455  0.3962 -0.0086
15861W        W20261  23.476   4.249  32.187 -0.1242 -0.2408  0.0287
15862W        W20262   7.962   0.364  32.310  0.1653  0.0528  0.0693
15863W        W20263  19.894   7.237  21.915 -0.1954  0.1127 -0.0411
15864W        W20264   5.346   7.222  16.672  0.1821  0.2386  0.0188
15865W        W20265  17.859   0.396   9.689  0.1294  0.2728  0.3596
15866W        W20266   2.963   2.524   5.261 -0.0254  0.0475  0.0233
15867W        W20267   6.682   5.296   0.007  0.1084  0.1056  0.0146
15868W        W20268  24.605   2.533   6.581  0.0056 -0.1351  0.0443
15869W        W20269  21.306   1.649  21.267 -0.2585 -0.0518 -0.0200
15870W        W20270  11.116   2.646  27.860  0.0949 -0.1846 -0.2419
15871W        W20271  11.107   3.972  23.665  0.0486 -0.1234  0.1100
15872W        W20272  21.574   5.474  17.406 -0.1230  0.2006  0.2152
15873W        W20273   7.960   0.100  22.557 -0.1276 -0.2222 -0.0277
15874W        W20274   1.424   5.220   0.886  0.3108  0.3360 -0.1923
15875W        W20275   9.621   1.248  11.442  0.1838  0.0416  0.2049
15876W        W20276  20.013   5.563   6.977 -0.2242 -0.1775 -0.0145
15877W        W20277   7.196   1.331  15.809 -0.1485 -0.1994 -0.0398
15878W        W20278   6.109   2.140  22.527 -0.0340  0.0899 -0.0252
15879W        W20279   7.724   4.935   0.465 -0.1249 -0.0344 -0.1907
15880W        W20280  19.100   7.427   4.769 -0.1441 -0.0728  0.1020
15881W        W20281   5.399   5.281  28.167  0.1641 -0.3645  0.0043
15882W        W20282  23.432   5.299   5.225  0.3198 -0.1795 -0.1839
15883W        W20283   6.686   1.016   5.883 -0.1280 -0.0643 -0.1827
15884W        W20284  18.866   0.738   5.289  0.0031  0.0646 -0.1117
15885W        W20285   5.433   7.291  30.125 -0.1018  0.1351 -0.1568
15886W        W20286  17.545   1.245  10.157  0.0582 -0.0197  0.0162
15887W        W20287   9.068   6.374   8.456 -0.2847  0.2414  0.0411
15888W        W20288   2.166   5.843   1.638  0.0194 -0.2260  0.2929
15889W        W20289  11.291   6.593   6.801 -0.3357 -0.0489  0.0482
15890W        W20290  14.539   6.457  20.354 -0.0293 -0.1586 -0.0776
15891W        W20291  18.122   6.423  19.199  0.1387 -0.0496 -0.0408
15892W        W20292  15.298   5.877  26.421  0.2189  0.1112  0.4064
15893W        W20293   2.329   2.033   3.247 -0.0094  0.1057 -0.0671
15894W        W20294   8.699   7.667  32.324 -0.2050  0.0593 -0.2092
15895W        W20295   2.594   4.215   8.510 -0.0886 -0.1777 -0.2070
15896W        W20296  14.238   3.063  29.006 -0.1469 -0.3188  0.1102
15897W        W20297  21.244   6.303  19.343  0.0102  0.2787  0.1209
15898W        W20298   0.624   4.544  10.613  0.1235  0.0688 -0.0778
15899W        W20299   6.333   5.880  25.609  0.0121  0.0312 -0.1155
15900W        W20300   0.073   3.569  17.926 -0.2180 -0.0050 -0.1962
15901W        W20301  15.195   6.099  10.474  0.1255 -0.4750  0.1232
15902W        W20302   9.829   2.180   3.303  0.2446  0.4398  0.2502
15903W        W20303   1.671   1.387   7.801  0.0749 -0.0776  0.4700
15904W        W20304  15.628   3.669  25.330 -0.0326 -0.1380  0.0759
15905W        W20305   7.781   4.833   2.035  0.3647  0.0725  0.1805
15906W        W20306  12.214   3.808   4.375 -0.2614  0.0416 -0.0040
15907W        W20307  17.559   5.142  11.204 -0.2198 -0.0732  0.2315
15908W        W20308   0.991   4.242   4.215 -0.1830  0.1762 -0.2207
15909W        W20309   8.590   6.183  10.098  0.2446  0.0136  0.0969
15910W        W20310   3.209   0.091   0.497  0.1240 -0.0915 -0.1634
15911W        W20311   8.179   1.863  28.998 -0.0558 -0.0401 -0.0580
15912W        W20312   8.703   4.073   3.336  0.2432  0.0550 -0.1176
15913W        W20313  12.049   0.429  16.294 -0.1658 -0.1889 -0.0351
15914W        W20314  23.556   2.260   3.678  0.0331  0.2276  0.0255
15915W        W20315  16.182   7.343   8.580  0.3321 -0.4264  0.0922
15916W        W20316  12.231   6.017  11.603 -0.1737 -0.1949 -0.3190
15917W        W20317   1.592   1.343  32.532 -0.0058  0.3076 -0.2937
15918W        W20318  16.205   0.985  19.321  0.1790  0.2575 -0.1223
15919W        W20319  10.146   6.761   6.871  0.0028 -0.2681  0.3068
15920W        W20320   5.789   7.163   0.366 -0.3175 -0.1910  0.0026
15921W        W20321   0.793   3.355  32.058 -0.3147  0.1082 -0.2315
15922W        W20322  17.587   5.864  16.717 -0.0624 -0.4083 -0.0506
15923W        W20323   5.824   6.463   7.000  0.1564  0.1840 -0.2366
15924W        W20324  14.322   0.048   4.723 -0.0200 -0.0022  0.0701
15925W        W20325  24.997   3.847   9.891 -0.1323 -0.1275  0.1526
15926W        W20326  24.984   1.346   3.248 -0.0204  0.0916  0.2227
15927W        W20327   3.476   5.958  25.705 -0.0686  0.1586  0.3602
15928W        W20328   5.159   4.033  28.629 -0.1572  0.0620 -0.0134
15929W        W20329  22.572   5.419  23.688  0.0007  0.1098 -0.1396
15930W        W20330   8.064   7.201   6.896 -0.0503 -0.2334  0.2370
15931W        W20331   5.275   1.487  13.261 -0.0163 -0.1391 -0.1192
15932W        W20332  10.845   3.881   0.863  0.0699 -0.1826  0.0023
15933W        W20333  10.179   5.707  23.412  0.0073  0.0064 -0.0366
15934W        W20334  11.083   6.437  15.619  0.2447  0.0055  0.0035
15935W        W20335   2.005   1.280  11.198  0.1685 -0.0833 -0.2444
15936W        W20336  16.405   5.964  23.098 -0.0583 -0.0954  0.1421
15937W        W20337  15.290   6.979   7.766  0.0784  0.0007 -0.3590
15938W        W20338   1.949   1.416  19.387 -0.1015  0.1554 -0.1769
15939W        W20339   3.979   5.481  13.330  0.2875 -0.0885 -0.1345
15940W        W20340   9.101   3.515  17.709  0.2473  0.1249  0.1458
15941W        W20341   2.214   0.290   0.370  0.1928  0.0138  0.3253
15942W        W20342  21.904   0.421   2.016 -0.2026 -0.4940 -0.2757
15943W        W20343   9.330   6.531  17.780  0.3003 -0.0939  0.0879
15944W        W20344  10.955   1.402   7.011 -0.3398 -0.0702 -0.0175
15945W        W20345  10.732   1.871  25.765 -0.1947  0.0390  0.1361
15946W        W20346  13.192   7.807   1.468 -0.0709 -0.1242 -0.1922
15947W        W20347   4.455   0.004   5.495  0.1687  0.0801  0.0622
15948W        W20348  20.272   5.949  30.606  0.0439 -0.0836 -0.2592
15949W        W20349   5.577   1.249  16.767 -0.1869 -0.0872  0.0690
15950W        W20350  12.309   2.971  30.727  0.1107 -0.0155 -0.0845
15951W        W20351  18.377   3.909   7.295 -0.1730  0.1630  0.2364
15952W        W20352   1.934   6.378  27.741  0.2290 -0.0691  0.2956
15953W        W20353  17.062   2.916  25.761  0.0894  0.4144  0.0677
15954W        W20354   8.937   2.342  25.838  0.0241  0.2244 -0.3300
15955W        W20355  23.009   0.729   7.971 -0.2354  0.0452  0.0317
15956W        W20356  13.178   2.246  13.190 -0.1462 -0.1668 -0.2522
15957W        W20357  11.297   4.564   3.882  0.0336  0.3337  0.0693
15958W        W20358   7.911   6.256   7.620  0.2917 -0.1067 -0.1121
15959W        W20359  23.346   4.250  26.563 -0.0431 -0.3686 -0.0382
15960W        W20360  24.988   1.402  32.600  0.3030  0.0093 -0.0305
15961W        W20361  24.904   0.487  21.678  0.1594  0.4520  0.2823
15962W        W20362   5.320   0.303   0.733  0.3136 -0.0496  0.3130
15963W        W20363  15.638   1.094  11.888 -0.1189 -0.1829 -0.0817
15964W        W20364  24.046   1.811  16.650  0.1692  0.1387  0.0034
15965W        W20365  12.326   2.079  11.395  0.2549 -0.0771  0.0545
15966W        W20366  14.081   7.352  25.365  0.1861 -0.3057  0.0004
15967W        W20367   6.234   1.936  15.719 -0.1499  0.1071 -0.3301
15968W        W20368  15.641   1.018   8.032 -0.0157 -0.1237  0.2180
15969W        W20369  24.936   2.761  21.797  0.0413  0.4199 -0.0266
15970W        W20370  19.041   0.444  16.266  0.2149  0.1300  0.0052
15971W        W20371  20.087   7.149  28.573  0.0803 -0.2575  0.2802
15972W        W20372   8.295   0.401  18.456 -0.1062 -0.1702 -0.3148
15973W        W20373   7.466   6.999  13.633 -0.1537 -0.1716  0.1498
15974W        W20374   4.809   6.311  25.197  0.1678  0.2232  0.0013
15975W        W20375  15.227   1.105   4.899  0.1989  0.0368  0.0610
15976W        W20376   0.263   4.656   1.361 -0.2885 -0.0420  0.1336
15977W        W20377  15.648   4.187  31.844 -0.0535 -0.1987 -0.1273
15978W        W20378  16.587   3.493   7.160 -0.1986  0.1367  0.0372
15979W        W20379   6.331   3.124   6.248 -0.0980  0.1756  0.0293
15980W        W20380  21.729   2.699  18.426  0.1595  0.0047  0.1224
15981W        W20381  13.273   2.898  12.520  0.0383  0.0893  0.1103
15982W        W20382  23.001   1.013   4.597 -0.1789  0.0557  0.1567
15983W        W20383   6.457   7.206  25.207 -0.1078  0.1759 -0.0769
15984W        W20384  14.420   7.089   0.425 -0.4934  0.1106  0.0579
15985W        W20385   5.381   2.996  10.441  0.1133 -0.0764  0.0917
15986W        W20386  14.054   0.522  32.445  0.1039 -0.1868  0.1698
15987W        W20387   3.837   0.410   7.991 -0.1667 -0.0108 -0.1955
15988W        W20388   1.884   0.152  32.699  0.0902 -0.1315  0.0783
15989W        W20389   4.074   2.842  13.123  0.2376 -0.0486 -0.3818
15990W        W20390  10.839   4.610  11.674 -0.0272  0.1701 -0.1578
15991W        W20391  16.031   1.797   7.063  0.2009 -0.0442  0.4127
15992W        W20392   8.065   4.537  29.211  0.0233 -0.4205  0.0641
15993W        W20393  20.824   1.085  17.600  0.3178 -0.0682  0.0888
15994W        W20394  14.543   0.207   7.046  0.3972  0.0870  0.1775
15995W        W20395  22.659   6.363  26.064 -0.0679  0.2979  0.1195
15996W        W20396  11.524   5.074   8.434 -0.0786  0.3387 -0.2122
15997W        W20397  10.730   6.487  11.627 -0.2079  0.3762  0.0174
15998W        W20398   1.977   4.753  31.768  0.0236 -0.1922  0.3529
15999W        W20399  11.306   2.983   4.395 -0.2796 -0.0224  0.0753
16000W        W20400   1.224   2.142  26.987 -0.0303  0.2882 -0.2555
16001W        W20401   9.474   2.319  27.888 -0.1951 -0.0699 -0.0521
16002W        W20402  20.741   3.841  22.708  0.0399  0.0168 -0.2821
16003W        W20403  20.471   0.731   9.100  0.1767  0.2422 -0.0296
16004W        W20404   9.172   1.876  17.012  0.1157 -0.0187 -0.2251
16005W        W20405  15.560   3.522   8.915  0.6538 -0.2285 -0.0894
16006W        W20406  15.532   7.768   7.987 -0.0776  0.1741  0.3240
16007W        W20407   3.458   1.043   7.282  0.1129 -0.1718 -0.0527
16008W        W20408  21.532   4.444  32.281  0.1508  0.1132  0.0271
16009W        W20409  21.213   6.561  29.578 -0.0195  0.1972  0.1667
16010W        W20410  21.325   0.837  31.444 -0.1037  0.1450 -0.3543
16011W        W20411   8.138   5.749   7.670 -0.2111  0.0556 -0.2873
16012W        W20412  23.177   4.363  23.241  0.2273  0.0541 -0.1088
16013W        W20413  18.295   0.845  16.898 -0.0281 -0.0562 -0.1764
16014W        W20414  23.191   3.203  18.910 -0.2921 -0.0192 -0.0910
16015W        W20415   1.193   1.599   0.058 -0.0913 -0.0668 -0.0209
16016W        W20416   0.729   2.334   9.058  0.1951  0.0567 -0.0815
16017W        W20417  10.716   3.014   9.512  0.2744 -0.0849 -0.0299
16018W        W20418   7.566   7.266  31.570  0.0593 -0.1441  0.2539
16019W        W20419  13.153   4.754  14.809  0.0112 -0.1283  0.2289
16020W        W20420  17.840   1.954   1.888 -0.1545  0.1479 -0.0496
16021W        W20421   7.700   0.691  13.608 -0.2466 -0.2554  0.4831
16022W        W20422  10.488   1.521   0.512 -0.2073  0.3197  0.0327
16023W        W20423  16.056   0.237  19.795 -0.2144 -0.1369 -0.3675
16024W        W20424   8.836   2.183   2.512  0.1785 -0.0628  0.3163
16025W        W20425   6.573   2.562   9.211  0.1780 -0.0568 -0.1520
16026W        W20426  10.403   0.000  15.136  0.2523  0.0438 -0.1623
16027W        W20427   1.299   0.882  10.955  0.2525  0.2730 -0.2795
16028W        W20428  24.983   1.029   5.900  0.0473 -0.1130 -0.1317
16029W        W20429   4.054   6.988   2.616  0.0511 -0.0191 -0.2390
16030W        W20430  18.406   1.601  23.946  0.0553  0.0403 -0.1774
16031W        W20431  20.805   5.717   4.834 -0.1220 -0.0728 -0.2481
16032W        W20432  14.928   2.158  29.008  0.0149 -0.1238 -0.2742
16033W        W20433  16.792   4.142  20.165  0.1453  0.2076 -0.0031
16034W        W20434   8.142   4.669  10.357  0.3455  0.0858  0.1340
16035W        W20435   7.571   6.062  17.011  0.0618  0.0731 -0.0744
16036W        W20436   4.413   4.923  14.220 -0.2894 -0.0440 -0.0731
16037W        W20437  20.513   4.276  31.892 -0.3023 -0.0507  0.1030
16038W        W20438   2.372   5.559  20.734  0.2575  0.1058  0.0934
16039W        W20439  23.416   7.627   0.678 -0.1172 -0.1525 -0.1529
16040W        W20440   7.853   6.038  16.609  0.1595 -0.0496  0.3011
16041W        W20441  23.219   4.808   6.098  0.1529 -0.3257  0.0290
16042W        W20442  12.709   6.686  24.786 -0.0131  0.0471  0.2603
16043W        W20443  22.276   4.720  25.136 -0.0675 -0.3783  0.0219
16044W        W20444   5.975   3.821  21.890 -0.1104  0.2516 -0.0409
16045W        W20445   3.713   1.013  13.960  0.0647 -0.1207  0.1917
16046W        W20446   7.022   0.507  31.074 -0.0593  0.0481 -0.2633
16047W        W20447  12.404   1.132   0.438  0.0664 -0.0125  0.2065
16048W        W20448   2.537   2.723   0.703  0.1497 -0.0882 -0.0486
16049W        W20449  15.852   4.025  20.694 -0.0194  0.1722  0.1488
16050W        W20450   6.706   5.409  22.812 -0.1769 -0.1182 -0.0500
16051W        W20451   7.527   1.296  29.963  0.1391 -0.0796 -0.0253
16052W        W20452  19.174   4.945  27.639 -0.0531 -0.3282 -0.1116
16053W        W20453  11.684   7.220  22.823 -0.0262 -0.0174  0.2980
16054W        W20454  24.327   5.377  29.552 -0.3703 -0.1191 -0.1324
16055W        W20455  22.848   4.467  18.304 -0.0523  0.0373  0.5687
16056W        W20456   2.428   3.489   3.043 -0.0417  0.1660  0.2472
16057W        W20457  16.148   7.645   6.606  0.0485  0.0769  0.2499
16058W        W20458   7.994   1.937  27.498  0.0884 -0.1339  0.2969
16059W        W20459  22.363   6.844   2.907  0.2639  0.0162 -0.0788
16060W        W20460   5.386   5.143   8.514  0.1376 -0.2165  0.0404
16061W        W20461  24.454   3.660   9.180 -0.0313 -0.3662  0.0979
16062W        W20462   5.523   2.114   2.595 -0.2619  0.1220  0.1086
16063W        W20463   1.601   0.469   6.289  0.0174 -0.1215  0.0759
16064W        W20464  15.976   3.326   4.636  0.2418 -0.2019 -0.0797
16065W        W20465   7.682   7.166   6.594 -0.0196 -0.2373 -0.2838
16066W        W20466   1.322   2.358  23.742  0.1168  0.1571 -0.1894
16067W        W20467  21.087   3.700  17.365  0.0648 -0.1011  0.1550
16068W        W20468  17.689   5.069  27.217 -0.0842 -0.1031 -0.1426
16069W        W20469   4.900   6.313  16.125 -0.0446 -0.0432  0.0534
16070W        W20470   8.087   0.768  29.745  0.2036 -0.0219 -0.0060
16071W        W20471  24.456   7.354   4.415 -0.0302  0.0278 -0.1623
16072W        W20472  21.266   1.986  26.990 -0.1563 -0.0489 -0.0587
16073W        W20473  22.928   6.666   9.564 -0.1588  0.0149  0.1559
16074W        W20474  10.590   2.574  31.397 -0.1302  0.0907 -0.0813
16075W        W20475  13.534   1.195  22.688 -0.3467 -0.1632 -0.0277
16076W        W20476  20.993   3.152  17.658 -0.1097  0.0231  0.0417
16077W        W20477  10.393   3.439  32.531 -0.2978 -0.2180 -0.1524
16078W        W20478   4.389   1.730  31.902  0.2346 -0.0061 -0.0860
16079W        W20479   2.559   0.909   6.566 -0.1221 -0.1250  0.1583
16080W        W20480  22.846   3.788  27.615  0.1085  0.0236  0.1736
16081W        W20481   3.069   2.301  20.860 -0.0321  0.1153 -0.0733
16082W        W20482  21.978   2.953  29.855 -0.1454 -0.0968  0.2272
16083W        W20483  17.037   5.983  29.317 -0.0424  0.3765  0.2437
16084W        W20484  19.092   6.316  29.739 -0.1050  0.5494  0.0276
16085W        W20485  18.084   0.355  28.010 -0.2716  0.0138 -0.0130
16086W        W20486  19.617   1.143  16.817 -0.1424 -0.1326  0.1972
16087W        W20487  10.072   0.216  17.404 -0.1934  0.1978 -0.0879
16088W        W20488  10.789   2.736  29.377 -0.1863  0.1426 -0.1048
16089W        W20489   1.079   2.505  19.625 -0.0841  0.2041 -0.0129
16090W        W20490  10.617   2.171  26.174 -0.0297  0.1730  0.1381
16091W        W20491  15.008   2.953  31.253  0.2009 -0.0332 -0.1921
16092W        W20492  13.687   3.237  13.907 -0.1974 -0.1322 -0.4699
16093W        W20493  23.000   1.973   0.096 -0.1661 -0.0597 -0.0640
16094W        W20494   1.907   1.147   0.245 -0.3926 -0.0661 -0.1310
16095W        W20495  16.951   6.954  21.472 -0.2479  0.2116  0.0728
16096W        W20496  18.506   4.594   3.653 -0.0487  0.2190 -0.2332
16097W        W20497   8.407   1.842  15.359 -0.0941  0.0990  0.1587
16098W        W20498  13.187   6.647  28.747  0.3892  0.1011 -0.1080
16099W        W20499  11.000   3.337  23.911  0.0278  0.0176  0.2563
16100W        W20500  12.538   5.534   4.491 -0.1177  0.0824 -0.0185
16101W        W20501  17.233   7.366  25.251  0.1859 -0.0824  0.1889
16102W        W20502  13.223   1.038   0.500 -0.0393 -0.2274  0.2343
16103W        W20503   5.954   7.255  12.171 -0.0157 -0.0069 -0.1193
16104W        W20504  10.274   2.090  29.200 -0.3399  0.0095 -0.4148
16105W        W20505  10.673   3.506   3.214 -0.1327  0.2879 -0.1230
16106W        W20506   4.965   6.993  24.146  0.1271 -0.1286  0.0244
16107W        W20507  15.098   0.780   2.210  0.0070 -0.1574  0.1483
16108W        W20508  13.220   4.797  12.959 -0.2433 -0.2270  0.0591
16109W        W20509  15.914   2.921  23.441  0.1920  0.1226 -0.0379
16110W        W20510  14.492   7.336  30.682 -0.0923  0.0472  0.2178
16111W        W20511  11.316   5.314  29.873  0.1746 -0.0271  0.0016
16112W        W20512   7.454   6.147  24.841 -0.0299  0.2058 -0.1382
16113W        W20513  18.048   7.655  24.267  0.0541 -0.0263  0.0486
16114W        W20514  19.901   0.953  30.433  0.0741  0.0087  0.3438
16115W        W20515  19.543   4.193  27.503  0.1086 -0.3424  0.1473
16116W        W20516  16.596   1.138  23.522 -0.1384  0.0473 -0.1719
16117W        W20517  20.658   3.408  20.082 -0.2129  0.2089  0.0831
16118W        W20518   4.316   6.008  27.527 -0.1308  0.2093  0.2074
16119W        W20519   1.458   6.721   6.214  0.2521  0.1346 -0.1108
16120W        W20520   8.974   0.800  14.166 -0.1313 -0.1967  0.1324
16121W        W20521   2.705   1.195  11.810  0.1149  0.1298  0.2488
16122W        W20522   8.785   3.025  14.684  0.0671 -0.1485 -0.0465
16123W        W20523   3.617   0.613  27.634  0.1719 -0.1376 -0.4055
16124W        W20524  15.807   2.484  27.231  0.0885 -0.2063  0.1263
16125W        W20525   0.136   4.863  32.297 -0.1384  0.1957  0.4755
16126W        W20526  15.836   2.606  20.305  0.0561  0.0391  0.0547
16127W        W20527   4.912   3.848  15.371 -0.0056  0.2984  0.1846
16128W        W20528  17.373   1.628  25.287  0.0976 -0.0874 -0.0820
16129W        W20529  12.268   4.938  15.148 -0.0629  0.1072  0.0876
16130W        W20530   3.507   3.029   2.331  0.1211 -0.0408  0.0223
16131W        W20531  22.238   1.308  31.738 -0.2647 -0.2414  0.0493
16132W        W20532  17.748   5.076  32.455  0.0471 -0.0737 -0.0020
16133W        W20533   9.778   6.506  16.201 -0.0073  0.0245  0.3105
16134W        W20534  24.428   6.193   5.834 -0.0534  0.2915  0.0815
16135W        W20535   7.873   2.913  27.759 -0.2361  0.1644 -0.3177
16136W        W20536  11.872   0.265  30.783 -0.0762  0.0383  0.1025
16137W        W20537  15.993   0.193  11.038  0.0350 -0.1502  0.0319
16138W        W20538   7.638   2.222   6.757  0.0630 -0.0238  0.0864
16139W        W20539  23.052   2.703  17.648 -0.0346  0.1848 -0.1804
16140W        W20540  14.350   5.052  23.486 -0.0264  0.1904 -0.2080
16141W        W20541  10.968   4.860  28.707  0.0977 -0.0178  0.0839
16142W        W20542  12.785   4.500   1.435  0.2427  0.0661  0.0440
16143W        W20543  22.850   0.120   4.418 -0.4476  0.3370 -0.1321
16144W        W20544  19.441   0.569  16.002 -0.1170  0.0763 -0.4012
16145W        W20545   1.514   1.908  24.062 -0.2084  0.0611 -0.0278
16146W        W20546  14.015   1.119  30.633 -0.0005 -0.2668 -0.0332
16147W        W20547  10.949   5.865   8.071 -0.1862  0.0688 -0.0194
16148W        W20548   5.167   6.366   9.448 -0.1103  0.4395  0.1454
16149W        W20549  11.301   4.115   8.660  0.0726  0.2650 -0.1286
16150W        W20550  10.088   1.067  11.358  0.0432 -0.1638 -0.0072
16151W        W20551   5.597   0.901  28.543 -0.1248  0.0519  0.1973
16152W        W20552   3.809   4.950  12.274 -0.2530 -0.2568  0.1077
16153W        W20553   3.681   0.141  11.924  0.1197  0.2819  0.1136
16154W        W20554   3.952   5.731  26.500  0.3098  0.1356  0.3934
16155W        W20555  20.220   0.247  23.342 -0.2870  0.0062 -0.1086
16156W        W20556  21.982   7.386  23.659 -0.2133  0.0981  0.0376
16157W        W20557  21.587   4.294  27.207  0.0748 -0.3222 -0.1304
16158W        W20558   8.551   0.562   3.693  0.2033 -0.2356 -0.4089
16159W        W20559   3.494   1.246   5.524 -0.1852 -0.0981  0.4275
16160W        W20560  21.280   0.463  24.253  0.0881 -0.1286  0.1991
16161W        W20561  13.346   0.915  26.141 -0.0925  0.0537  0.5159
16162W        W20562  14.867   7.479  30.151  0.0471  0.0433  0.0034
16163W        W20563  17.050   0.340   6.997  0.0252  0.1325  0.0192
16164W        W20564   3.809   6.561   2.767  0.2135  0.3866 -0.1113
16165W        W20565   9.550   4.385  15.616 -0.3967  0.0068  0.2185
16166W        W20566   0.068   7.541  31.124 -0.1433 -0.1809  0.0254
16167W        W20567   3.420   2.175  30.232 -0.0325 -0.0783  0.0949
16168W        W20568   2.293   0.123  20.600  0.0345 -0.0928 -0.1502
16169W        W20569  16.105   3.468   2.386  0.1109 -0.1024 -0.2289
16170W        W20570  12.162   5.515  15.895 -0.0232  0.1012  0.0924
16171W        W20571   5.051   3.779  11.576  0.1742 -0.0310 -0.0766
16172W        W20572   9.538   7.565  18.661 -0.1064  0.1359  0.0330
16173W        W20573   7.186   2.447  12.369 -0.0159 -0.3731  0.0951
16174W        W20574   9.905   0.552   9.498  0.0233 -0.1562  0.2242
16175W        W20575  24.254   1.286  19.122 -0.0164  0.0455  0.0782
16176W        W20576  24.750   1.041  29.657 -0.3100 -0.0641 -0.0703
16177W        W20577   5.268   6.099   8.578  0.2471 -0.4850 -0.0144
16178W        W20578   1.220   4.065  26.352 -0.0180  0.1765 -0.0802
16179W        W20579  24.046   2.598   8.302 -0.0054  0.2023 -0.0052
16180W        W20580   0.235   1.743  17.432  0.1282 -0.1355 -0.1681
16181W        W20581  22.768   1.575  20.631 -0.1581  0.0577  0.1512
16182W        W20582  10.208   6.933  17.475 -0.0458 -0.0477 -0.0660
16183W        W20583  12.957   0.022  26.344 -0.0028  0.0725 -0.5622
16184W        W20584  19.162   3.536  30.482  0.0987  0.0670 -0.1503
16185W        W20585  10.703   0.406   1.043 -0.3795  0.0356 -0.0938
16186W        W20586   5.377   5.278   7.663 -0.2223 -0.1582 -0.0560
16187W        W20587   6.994   5.333  28.831  0.2195 -0.1801 -0.0771
16188W        W20588   7.938   6.943  32.212  0.0550 -0.0519 -0.3174
16189W        W20589  16.531   7.333  20.421  0.3675  0.0075  0.0843
16190W        W20590   5.355   3.319  27.431  0.1142 -0.2263 -0.0265
16191W        W20591  13.915   7.746   5.210  0.2853  0.1471  0.3133
16192W        W20592   7.278   6.813   8.901 -0.1293 -0.1297 -0.4776
16193W        W20593  14.593   3.234   0.105 -0.0434 -0.0573 -0.0686
16194W        W20594   3.120   3.632   9.784 -0.4266 -0.1241  0.1699
16195W        W20595   4.241   4.201  10.993  0.0444 -0.0319 -0.1606
16196W        W20596   6.026   4.429  22.559  0.0428  0.1312  0.1199
16197W        W20597   1.055   3.144  28.863 -0.1510  0.1160 -0.0235
16198W        W20598  12.588   6.033  23.989 -0.1195 -0.2070 -0.0208
16199W        W20599  11.272   1.104   7.404 -0.0695  0.0765  0.1315
16200W        W20600  11.291   4.461   9.362  0.1216 -0.2603 -0.1187
16201W        W20601  20.725   5.796   7.317 -0.1685 -0.0481 -0.0131
16202W        W20602  17.903   7.097  25.828 -0.0367  0.0007 -0.0602
16203W        W20603  16.546   2.836  21.306  0.0180  0.1547  0.1610
16204W        W20604   2.260   7.612  21.217 -0.1522  0.1316  0.0035
16205W        W20605  23.098   5.985  15.936 -0.1189 -0.2041  0.0194
16206W        W20606  16.628   3.859   0.555  0.1100  0.1583  0.2396
16207W        W20607  24.641   0.760  16.248 -0.2137 -0.3112 -0.0871
16208W        W20608   0.238   5.645   8.424  0.2822  0.2592 -0.2302
16209W        W20609  19.143   2.574  23.541 -0.1805 -0.0342  0.0626
16210W        W20610   6.744   5.343  23.800  0.0844 -0.0049 -0.1234
16211W        W20611  23.437   0.680  18.338 -0.0209  0.0019 -0.1965
16212W        W20612   5.748   3.868  32.553  0.0251  0.2571  0.0891
16213W        W20613  13.968   6.028   9.963  0.0168  0.5137 -0.3714
16214W        W20614  18.671   3.283  10.677  0.1308 -0.1905 -0.2210
16215W        W20615  23.542   6.753  31.658  0.0745  0.2188  0.2603
16216W        W20616  12.087   1.986  29.649 -0.1047  0.0641  0.0507
16217W        W20617  20.978   7.554  28.877 -0.2695 -0.0182 -0.0183
16218W        W20618  20.542   4.410   9.410 -0.1035  0.1916  0.4536
16219W        W20619  12.376   3.403  11.089 -0.0485  0.2114 -0.3258
16220W        W20620  16.195   1.178   3.307  0.0144  0.0653  0.0128
16221W        W20621   7.071   5.666  15.950 -0.1209  0.0859  0.1937
16222W        W20622   4.164   7.797  24.932 -0.0369 -0.3622  0.1258
16223W        W20623   3.700   0.200  24.754  0.0935  0.0124  0.0054
16224W        W20624   7.909   2.187  28.284 -0.3307  0.3267  0.2885
16225W        W20625  16.762   6.072   9.202  0.0056  0.2499  0.2446
16226W        W20626  24.331   0.618  31.657  0.3382  0.1225  0.2239
16227W        W20627  22.874   4.690   2.419 -0.0663  0.1027 -0.0798
16228W        W20628  22.265   2.443  26.127  0.1246  0.1640  0.0775
16229W        W20629   7.820   7.223  10.977 -0.2284 -0.1169 -0.1641
16230W        W20630  18.112   5.435  26.233  0.2235 -0.0602 -0.1756
16231W        W20631  15.475   0.425  30.913 -0.1328 -0.2202  0.0850
16232W        W20632   4.120   0.059   7.490 -0.0453 -0.1783 -0.1485
16233W        W20633  17.981   6.886  18.351 -0.1538 -0.2755  0.1627
16234W        W20634  20.100   7.476  15.491 -0.1325  0.0865 -0.0266
16235W        W20635  15.108   4.408   0.918  0.0703 -0.2031 -0.1925
16236W        W20636  12.169   2.016  13.060  0.1611  0.3210  0.1344
16237W        W20637   6.232   2.921  29.554 -0.0134  0.0716 -0.0451
16238W        W20638  18.711   5.145  30.060 -0.2550 -0.0257  0.1123
16239W        W20639  12.556   6.969  31.023  0.0028 -0.0858 -0.1738
16240W        W20640  22.996   0.833  18.541 -0.0261  0.2608  0.3058
16241W        W20641  14.934   2.422  20.476 -0.0270  0.2246  0.0335
16242W        W20642  24.692   4.771   0.907  0.1148  0.3482 -0.0201
16243W        W20643   6.626   4.153  26.351  0.1310 -0.1108 -0.0278
16244W        W20644  15.576   5.811  20.747  0.1348 -0.1309 -0.2125
16245W        W20645   3.003   2.196   1.956  0.4053  0.1079 -0.4094
16246W        W20646  24.089   4.930  29.552  0.0173 -0.0429 -0.2770
16247W        W20647  22.536   1.097  26.009  0.0539  0.2133 -0.1695
16248W        W20648  24.979   1.546   9.803  0.2447 -0.1768 -0.1317
16249W        W20649  24.206   0.365   7.953  0.0478 -0.1634  0.0003
16250W        W20650  22.311   2.011  17.164 -0.1970 -0.3471  0.1048
16251W        W20651  20.481   3.516  27.484 -0.2393 -0.0768 -0.1156
16252W        W20652  10.991   0.136   5.919  0.3021  0.0400 -0.0793
16253W        W20653  21.702   5.521  22.257 -0.3256 -0.0370 -0.0084
16254W        W20654  22.308   3.611   0.450  0.3528 -0.3388 -0.0354
16255W        W20655  17.143   6.564  21.787 -0.2666  0.0203  0.4009
16256W        W20656  20.502   6.134  16.376 -0.0014  0.0143  0.0961
16257W        W20657  14.116   5.237   3.901 -0.2091 -0.2743  0.1868
16258W        W20658   3.774   7.464  26.724  0.1009  0.3110 -0.2001
16259W        W20659   0.744   4.210   5.839 -0.2269  0.0101  0.2112
16260W        W20660  10.405   6.086  10.167  0.0561 -0.1719  0.0333
16261W        W20661  15.474   7.632   3.746 -0.2115 -0.3462 -0.3635
16262W        W20662  14.164   7.041  23.086 -0.0401  0.5295  0.2533
16263W        W20663   9.616   5.542  14.185  0.1199 -0.1287  0.0378
16264W        W20664   9.922   4.777   5.712 -0.1362  0.0686 -0.2069
16265W        W20665   8.028   3.157   0.669 -0.3755 -0.0377 -0.3437
16266W        W20666  21.340   7.424  29.147 -0.0857 -0.0534  0.0412
16267W        W20667  16.120   5.490   8.924 -0.3985  0.0241  0.0181
16268W        W20668   1.838   2.379  19.081  0.0333  0.0691  0.2083
16269W        W20669  13.377   2.823  28.741  0.2059 -0.2848 -0.4090
16270W        W20670  23.780   5.550  31.202 -0.0183 -0.0906 -0.0151
16271W        W20671  23.622   6.584  10.201  0.3351 -0.0519  0.0173
16272W        W20672  21.358   7.662  24.926  0.2413 -0.0239  0.1762
16273W        W20673  13.716   1.809   1.651  0.1856 -0.1056 -0.1002
16274W        W20674  10.024   5.048   9.568 -0.0972 -0.0172 -0.1507
16275W        W20675   4.513   7.316  29.809  0.2283  0.1766 -0.1173
16276W        W20676   5.856   6.991  14.778  0.1291  0.1347  0.0766
16277W        W20677  20.238   7.137   3.162 -0.1049  0.0105 -0.2291
16278W        W20678   9.791   5.062  22.263  0.0207  0.0284  0.2543
16279W        W20679  12.919   7.172   6.687 -0.3866  0.3313 -0.1049
16280W        W20680  18.484   2.103  26.959  0.0108 -0.1452  0.2706
16281W        W20681   6.717   2.092  28.898 -0.0118 -0.1425 -0.0670
16282W        W20682  15.687   1.943   6.727  0.0040  0.0143  0.2294
16283W        W20683   9.803   1.060  22.769 -0.1607  0.0839 -0.2289
16284W        W20684   3.665   0.946   4.642  0.2132 -0.0967 -0.2864
16285W        W20685   9.959   4.070  30.752 -0.2497  0.2318 -0.0021
16286W        W20686  19.574   7.482  15.379  0.1185 -0.0131 -0.1098
16287W        W20687  17.108   4.191  28.236 -0.2212 -0.2543 -0.0840
16288W        W20688  18.007   2.642   1.654  0.2291  0.2280  0.0157
16289W        W20689   5.279   6.202   4.366 -0.2863  0.0931 -0.2632
16290W        W20690   3.606   2.697   1.771 -0.4518 -0.1510  0.1328
16291W        W20691   7.623   1.969  30.729  0.0705 -0.1138 -0.1562
16292W        W20692  16.883   6.277   8.295 -0.3428  0.3112  0.0444
16293W        W20693  22.001   4.919  26.680 -0.0215  0.1898  0.0284
16294W        W20694  17.533   4.937   5.873 -0.0386  0.0113  0.1122
16295W        W20695  14.231   2.620  28.299  0.2346 -0.0030  0.2033
16296W        W20696  12.072   5.970   0.615  0.2098 -0.0451  0.1716
16297W        W20697   5.243   4.886  27.979  0.2079 -0.1749 -0.0700
16298W        W20698   6.138   7.687   2.665  0.3730 -0.2191 -0.1608
16299W        W20699  11.044   6.958  29.128 -0.0126 -0.1022 -0.0626
16300W        W20700  17.205   1.439  24.269 -0.0381  0.1566  0.1550
16301W        W20701   8.395   6.034   3.719 -0.1065  0.1940  0.3265
16302W        W20702   8.301   4.467  29.674 -0.3339 -0.1299 -0.0044
16303W        W20703   9.238   1.578  10.466  0.0414 -0.1692 -0.0232
16304W        W20704  17.703   4.530   4.719  0.0878 -0.1579 -0.0742
16305W        W20705  14.522   6.547  31.177 -0.2334 -0.2243  0.2043
16306W        W20706   6.217   4.305   0.664  0.0667 -0.1539 -0.1359
16307W        W20707   7.393   3.970  11.319 -0.3195  0.0794  0.1591
16308W        W20708   8.873   5.889   7.553 -0.0692  0.4446 -0.1234
16309W        W20709  14.342   4.781   4.078  0.0679  0.1090  0.0723
16310W        W20710   7.443   3.049  16.333  0.1856 -0.0484  0.0758
16311W        W20711   7.064   2.167  22.679 -0.0903  0.1316 -0.0975
16312W        W20712  21.366   2.832  30.642  0.2310  0.1015  0.0264
16313W        W20713   2.144   6.512   4.610  0.3525 -0.0815  0.1273
16314W        W20714  20.275   4.763  32.654  0.0400  0.2598  0.0989
16315W        W20715  13.909   3.193  27.540 -0.0867  0.4033 -0.0170
16316W        W20716  19.035   3.739  18.074  0.0120 -0.1493 -0.0755
16317W        W20717   8.661   2.191   1.999 -0.3705  0.2183 -0.0350
16318W        W20718  20.433   2.836   4.880 -0.1130 -0.2067  0.0847
16319W        W20719  16.218   3.786  31.113 -0.1092  0.0974 -0.2112
16320W        W20720   8.328   7.163   9.078 -0.0173  0.2582 -0.2562
16321W        W20721   9.454   4.802  12.939  0.0979  0.2246 -0.0834
16322W        W20722  17.404   0.956  28.093  0.0274  0.0355 -0.1253
16323W        W20723   1.391   4.917  32.625  0.1672 -0.0640 -0.2692
16324W        W20724  21.688   4.025  20.359 -0.0050 -0.3644 -0.0270
16325W        W20725  14.553   4.020   4.636 -0.1264 -0.0797 -0.3107
16326W        W20726  20.643   5.967  20.744 -0.1586  0.0695 -0.0172
16327W        W20727   6.473   5.785  17.453 -0.0607  0.2296 -0.0158
16328W        W20728  19.512   3.670  20.937  0.1692 -0.0919 -0.0016
16329W        W20729  20.476   1.832  20.432 -0.0744  0.1535  0.2334
16330W        W20730   7.643   6.931  22.971 -0.2676 -0.1306  0.2642
16331W        W20731  19.981   2.163  15.307 -0.1817  0.0689  0.2263
16332W        W20732  18.500   2.390   1.290  0.2640 -0.0837 -0.2940
16333W        W20733  17.895   4.535  16.696  0.4763 -0.3423  0.0783
16334W        W20734   3.610   0.896  30.363  0.2228  0.2027  0.1772
16335W        W20735   7.224   7.771  29.894  0.0616 -0.1073  0.3574
16336W        W20736   0.639   0.545  10.299  0.1789  0.1784  0.1010
16337W        W20737  23.619   4.763  15.799  0.1043  0.1166 -0.1472
16338W        W20738   7.955   7.296   2.927 -0.2014 -0.0057  0.0836
16339W        W20739   5.800   2.757   1.226  0.1309 -0.0239  0.0549
16340W        W20740   9.697   0.010  30.630 -0.0461 -0.1645 -0.3444
16341W        W20741  21.164   7.822   3.842 -0.0055  0.0356 -0.1816
16342W        W20742  18.617   7.214   8.486  0.0516 -0.0608 -0.1816
16343W        W20743  19.260   4.289   7.593 -0.1438  0.2904  0.0682
16344W        W20744  18.948   6.149  14.948 -0.2735 -0.0421  0.0540
16345W        W20745  20.634   7.150   4.035  0.3114 -0.0657 -0.1555
16346W        W20746   5.494   6.653   4.614 -0.0329 -0.1098 -0.3485
16347W        W20747   7.953   0.326  31.099 -0.1999  0.1359  0.0496
16348W        W20748  16.071   3.117   5.891  0.0424  0.3805  0.1358
16349W        W20749   3.237   0.965  30.674  0.2207 -0.0397  0.1028
16350W        W20750  23.999   4.398   8.491  0.3558 -0.0380  0.0558
16351W        W20751  24.023   4.575  25.496  0.0614  0.0431 -0.0135
16352W        W20752  18.960   5.664   0.369  0.0559 -0.1460  0.0255
16353W        W20753  23.927   4.019   1.128  0.4049  0.0178 -0.0440
16354W        W20754  17.282   7.075  31.229 -0.1929  0.3079  0.0488
16355W        W20755  11.449   0.134   8.507 -0.0961  0.1464  0.1029
16356W        W20756  14.948   3.760   2.039  0.1043 -0.2751 -0.2317
16357W        W20757  10.802   1.900  26.576 -0.1127 -0.2472 -0.3005
16358W        W20758   5.190   5.827  15.365 -0.2183 -0.0697 -0.2511
16359W        W20759  18.562   1.096  17.949  0.0822  0.1407 -0.1885
16360W        W20760  15.913   5.551  24.877  0.0845 -0.2464 -0.1549
16361W        W20761   9.122   4.195  24.582  0.2711 -0.3292 -0.0391
16362W        W20762  18.040   0.193   8.188 -0.2286  0.0119 -0.6259
16363W        W20763  23.540   5.515   8.416  0.1754 -0.0082 -0.0081
16364W        W20764   2.386   3.932   8.161  0.0328  0.0351 -0.1361
16365W        W20765   0.042   2.569   8.565 -0.0835  0.3232 -0.1553
16366W        W20766  20.418   4.585  20.490  0.0925  0.0909 -0.0831
16367W        W20767   2.762   3.169  27.527  0.3000  0.2411  0.0220
16368W        W20768   6.456   0.908   1.155 -0.0358 -0.0868 -0.1155
16369W        W20769  11.984   3.038  30.273 -0.1729 -0.1483 -0.2854
16370W        W20770   0.405   6.297  26.788 -0.1950 -0.0655 -0.0566
16371W        W20771   8.142   2.563  16.664 -0.1256  0.2569  0.3288
16372W        W20772   7.450   7.052  12.522 -0.3992  0.0578  0.2295
16373W        W20773   3.615   5.372   1.628 -0.0475  0.0506 -0.1899
16374W        W20774  11.622   2.787  21.532  0.4843  0.1991  0.0203
16375W        W20775  14.038   7.215  26.546  0.2798 -0.3220  0.0941
16376W        W20776   6.630   5.313   3.578  0.0482  0.2056 -0.0635
16377W        W20777   8.662   3.367   5.484 -0.1082  0.0138  0.1995
16378W        W20778   6.573   5.094  15.298 -0.0151 -0.0922 -0.0541
16379W        W20779  15.087   1.423   7.250 -0.2192 -0.1917  0.3242
16380W        W20780   7.836   2.106   5.747  0.2715 -0.1574  0.1073
16381W        W20781  14.430   2.687   1.154 -0.2122  0.1053 -0.0508
16382W        W20782  11.966   6.732  28.301 -0.0213 -0.0217  0.0909
16383W        W20783  20.373   0.865  16.346 -0.1958 -0.1218  0.1793
16384W        W20784   2.989   5.420  30.636 -0.0000 -0.0650  0.0595
16385W        W20785   2.803   5.724   0.766 -0.2207  0.1405  0.0638
16386W        W20786  23.803   1.923  24.177  0.1699  0.2002 -0.3165
16387W        W20787  23.064   1.895   2.857 -0.1084  0.1145 -0.3074
16388W        W20788  11.176   3.952  17.031  0.1159 -0.1352 -0.1881
16389W        W20789   5.629   5.472   4.217 -0.0033  0.1698  0.1131
16390W        W20790   7.110   7.779   5.083 -0.1038 -0.0198 -0.0794
16391W        W20791  19.739   2.533  15.006  0.1078  0.0569 -0.1016
16392W        W20792  21.553   2.211  27.795  0.1944  0.1849  0.1975
16393W        W20793   7.913   2.260   0.717  0.0581  0.2136  0.2565
16394W        W20794  23.153   0.821  20.662 -0.5476 -0.3091 -0.2346
16395W        W20795  19.412   4.849  19.054 -0.1404 -0.0280  0.0456
16396W        W20796   0.868   5.255  11.063  0.1441  0.3370 -0.1731
16397W        W20797  23.608   5.282  15.613  0.2703 -0.0335 -0.2008
16398W        W20798  22.525   5.089   8.852  0.2132 -0.0068  0.0230
16399W        W20799  12.361   1.222   8.073  0.2093 -0.0217  0.1000
16400W        W20800  17.266   7.779  16.192 -0.0953  0.0299  0.1930
16401W        W20801  11.642   3.118  15.918  0.2764 -0.0724  0.4607
16402W        W20802  14.658   5.291  25.543  0.1026  0.2288 -0.2351
16403W        W20803  10.408   6.883   7.495  0.0775 -0.0852  0.1088
16404W        W20804  10.214   7.593  11.621 -0.1181 -0.2057 -0.3545
16405W        W20805  16.857   7.822  19.005  0.1096 -0.1967 -0.1601
16406W        W20806   8.376   5.665   7.229 -0.2648  0.3656  0.1651
16407W        W20807  17.218   6.879  29.453  0.1657  0.2175 -0.1711
16408W        W20808  21.038   2.773   7.662  0.2121 -0.2793  0.0969
16409W        W20809   7.725   2.064  31.719 -0.0767  0.2128 -0.0378
16410W        W20810  13.605   0.096  14.024 -0.2266  0.0807 -0.2083
16411W        W20811   3.910   5.042  27.116 -0.3051  0.1630  0.0222
16412W        W20812  23.076   4.050  10.231  0.1140  0.2469 -0.0450
16413W        W20813  18.773   3.471  17.600 -0.0491 -0.0119  0.1290
16414W        W20814  12.295   7.788   1.001  0.1397  0.0315  0.1004
16415W        W20815   5.008   0.014   7.016  0.0833 -0.1311 -0.0015
16416W        W20816  24.807   6.240   2.847 -0.0992  0.1572 -0.1477
16417W        W20817   6.518   1.055  28.357  0.2840  0.1398  0.1030
16418W        W20818  10.864   4.048  24.508 -0.1862 -0.0483  0.2527
16419W        W20819   7.180   5.125   4.540 -0.2744  0.4465  0.4419
16420W        W20820   0.642   1.392   5.434 -0.1339  0.2528  0.0226
16421W        W20821   5.415   5.872   9.438  0.3894 -0.3054  0.1890
16422W        W20822  19.110   1.167   5.628 -0.0609  0.1062 -0.0317
16423W        W20823   3.536   3.539   5.643 -0.2853 -0.0889  0.0076
16424W        W20824  20.933   0.717  28.996  0.1565 -0.2376 -0.1370
16425W        W20825  15.104   3.986   8.378  0.2185 -0.2318  0.0503
16426W        W20826  19.312   0.572   9.601 -0.2421  0.2683  0.1790
16427W        W20827  13.945   2.916   9.059  0.1801  0.1734  0.0157
16428W        W20828  21.244   4.462  24.252 -0.0429  0.1430  0.2274
16429W        W20829   8.295   0.994   0.900  0.1092  0.1014  0.1026
16430W        W20830  16.208   3.994   7.167  0.3276  0.1811 -0.1239
16431W        W20831   3.104   0.649  25.464  0.2034  0.1120 -0.0385
16432W        W20832   0.122   1.402   5.567 -0.1285  0.0357  0.2914
16433W        W20833  12.276   6.459   9.404 -0.0139  0.0865 -0.1616
16434W        W20834  13.713   6.387  10.537  0.0977  0.1012  0.0553
16435W        W20835  17.217   3.987  27.777  0.2617  0.1047  0.2087
16436W        W20836  23.660   5.772  26.615  0.0631  0.1215  0.1483
16437W        W20837  16.992   6.415  10.781 -0.1971 -0.1707 -0.0318
16438W        W20838  16.259   5.051  22.409 -0.1623 -0.0140  0.1755
16439W        W20839  23.313   6.745   6.394  0.0478  0.0824  0.3216
16440W        W20840   3.910   6.001  13.331 -0.2875  0.2431  0.1239
16441W        W20841  18.476   6.979  29.955  0.1292 -0.0028 -0.0453
16442W        W20842  19.061   7.362   9.204  0.0312  0.0213 -0.0534
16443W        W20843  12.232   3.875  30.807 -0.2437 -0.0398 -0.0048
16444W        W20844  18.796   5.459  17.129  0.0252  0.3376 -0.0176
16445W        W20845   3.310   0.233  27.863  0.0286 -0.0874  0.0578
16446W        W20846   7.855   0.110   9.771 -0.1038 -0.0150 -0.0516
16447W        W20847   5.368   4.948   0.914 -0.0249 -0.0963  0.0439
16448W        W20848  23.091   3.321  23.068 -0.1710 -0.1211 -0.0430
16449W        W20849  12.036   4.283   2.256  0.2187 -0.2367 -0.0279
16450W        W20850   6.190   4.651  26.161 -0.0471  0.0535  0.0097
16451W        W20851   6.623   3.912  16.294  0.0838  0.1584  0.1766
16452W        W20852   7.305   3.222  28.199 -0.0173 -0.1114  0.0559
16453W        W20853  18.268   0.402  29.529 -0.0541  0.4193 -0.2257
16454W        W20854   9.670   2.897   3.936  0.4166  0.0706 -0.1972
16455W        W20855  20.063   4.138  32.223 -0.1291 -0.1243  0.2945
16456W        W20856   1.046   0.486   9.194  0.0496  0.1728  0.2131
16457W        W20857  12.825   6.643  30.053  0.2175 -0.1816  0.1094
16458W        W20858  13.817   5.520  12.762 -0.2230 -0.0424 -0.1347
16459W        W20859   5.551   5.992  31.986  0.0279  0.0765  0.3750
16460W        W20860  17.965   6.145  29.512  0.0057  0.0203  0.0331
16461W        W20861   7.419   7.089  23.476 -0.0635  0.0401  0.1523
16462W        W20862   1.081   7.448  29.209 -0.0829  0.1306  0.1722
16463W        W20863  12.966   2.012   0.999 -0.1302  0.0811 -0.0945
16464W        W20864   5.446   7.116  11.330  0.2255  0.1626 -0.1434
16465W        W20865  10.284   7.531   6.333  0.0561 -0.0235 -0.1572
16466W        W20866  13.174   1.445  25.101 -0.0578 -0.3599 -0.0502
16467W        W20867   4.605   5.362   8.158 -0.1104 -0.2177  0.3290
16468W        W20868  14.377   0.236   0.652 -0.1066  0.3024 -0.0578
16469W        W20869   6.109   7.507   5.874  0.1689  0.0023 -0.2350
16470W        W20870  11.048   3.494   0.004 -0.1303 -0.0264  0.3604
16471W        W20871   6.082   1.355  10.596 -0.2896  0.2928  0.1830
16472W        W20872   0.255   1.138  31.503  0.3477  0.1047  0.0445
16473W        W20873   3.540   4.023  27.589  0.0339 -0.1076  0.3442
16474W        W20874   1.085   4.290   9.333  0.0486  0.0035 -0.2120
16475W        W20875  11.485   4.484   8.400  0.0244  0.1108  0.0467
16476W        W20876  17.689   2.580   9.442 -0.0709  0.2698  0.0708
16477W        W20877  24.272   4.416   6.536  0.1506  0.0445  0.0105
16478W        W20878  14.803   4.124  12.734 -0.2404 -0.2328 -0.3344
16479W        W20879  10.607   3.373   8.769  0.2092 -0.3544  0.3149
16480W        W20880   2.889   3.310  23.926  0.0394 -0.0653  0.0493
16481W        W20881  17.842   0.365  25.474  0.1294 -0.2083 -0.2052
16482W        W20882   1.228   7.513   8.454  0.0499 -0.2055 -0.0700
16483W        W20883   1.267   6.902  18.087  0.1635 -0.0429 -0.0607
16484W        W20884   9.802   2.846  29.333  0.0051  0.3608  0.2977
16485W        W20885   4.688   3.673   6.140 -0.0189  0.1340 -0.0441
16486W        W20886  16.853   5.599  24.003 -0.1750 -0.0872 -0.4597
16487W        W20887   2.189   3.405  28.242  0.2023 -0.0144 -0.1944
16488W        W20888  11.998   5.573  23.516  0.3762  0.0420  0.0165
16489W        W20889   0.588   0.759   6.394  0.0304  0.2221  0.1154
16490W        W20890   9.865   2.103   7.367  0.0283 -0.2586 -0.2998
16491W        W20891   0.133   0.088  29.408  0.2098 -0.1536  0.4618
16492W        W20892  15.757   4.261   6.844 -0.2067 -0.3589  0.1059
16493W        W20893   4.604   0.735   3.112 -0.0066  0.2978  0.0441
16494W        W20894  23.834   7.334   3.601  0.0531 -0.2643  0.0255
16495W        W20895  10.109   1.511   0.893 -0.0367  0.0681  0.0608
16496W        W20896   7.697   7.274   4.728  0.1897  0.0384 -0.0838
16497W        W20897  15.429   2.185  27.472 -0.0967  0.0093 -0.0055
16498W        W20898  14.810   2.491  21.668  0.0692  0.0517  0.1466
16499W        W20899   2.670   3.292  20.896 -0.0368 -0.0042  0.0034
16500W        W20900  10.116   1.321  24.296  0.0293  0.1098 -0.0107
16501W        W20901  18.048   2.242  26.624 -0.3074 -0.1025  0.2239
16502W        W20902   9.836   7.815  26.947  0.3218  0.0369  0.0285
16503W        W20903  20.902   6.092  24.304 -0.0846  0.0010  0.0633
16504W        W20904   9.982   3.917   1.911 -0.1586 -0.0705  0.0749
16505W        W20905  14.769   6.615  11.268  0.0950 -0.0508 -0.1943
16506W        W20906   4.759   5.549  10.593  0.4004 -0.1794 -0.0594
16507W        W20907  13.761   2.406   6.989 -0.0125 -0.0332 -0.0735
16508W        W20908  11.318   6.641   0.275  0.0471 -0.0672  0.0381
16509W        W20909   9.919   1.204   5.642  0.2187 -0.1454 -0.1474
16510W        W20910   1.061   6.618  29.093 -0.0054  0.0245 -0.3621
16511W        W20911   9.680   0.613  17.449 -0.0075 -0.1557 -0.2740
16512W        W20912  16.209   5.655  31.042 -0.0476 -0.5400 -0.1199
16513W        W20913   6.420   6.663  23.707 -0.0623 -0.2478 -0.1783
16514W        W20914   9.602   6.440   2.302 -0.0421 -0.2447  0.1054
16515W        W20915  19.341   0.651  19.617 -0.0609 -0.1235 -0.0146
16516W        W20916  23.083   0.017  21.247  0.2432  0.1244  0.3702
16517W        W20917  19.205   6.457   7.558  0.2383  0.2473  0.2602
16518W        W20918  10.518   4.146  15.735 -0.0718  0.2221 -0.0767
16519W        W20919  14.063   7.395  12.594 -0.0960 -0.1654 -0.2223
16520W        W20920  11.580   0.989   0.625  0.1082  0.0674  0.0423
16521W        W20921  15.434   6.891  24.861  0.0064  0.0421  0.0762
16522W        W20922   7.342   4.426   9.276 -0.1677  0.0498  0.3501
16523W        W20923  21.703   3.364   7.634  0.2103 -0.2205  0.0846
16524W        W20924   8.534   3.564  24.846 -0.1161 -0.1863 -0.2286
16525W        W20925  11.444   6.163   3.626  0.1588 -0.1136  0.0578
16526W        W20926  13.635   5.163  23.354 -0.0170 -0.1422  0.3359
16527W        W20927  23.680   0.572   1.756 -0.1484  0.2459 -0.1434
16528W        W20928  15.884   1.367  27.580 -0.0079 -0.0157  0.0530
16529W        W20929   7.535   6.972   4.339  0.1739 -0.1812  0.2643
16530W        W20930   7.655   3.181  25.403 -0.0868 -0.2414  0.1422
16531W        W20931   5.086   3.302  32.074  0.2320 -0.0374  0.0658
16532W        W20932   8.733   4.302  17.811 -0.0982  0.1565 -0.0515
16533W        W20933  13.538   4.657   3.898 -0.3072  0.1143 -0.0648
16534W        W20934   3.745   5.046   4.128  0.0884  0.0107 -0.2224
16535W        W20935   8.673   2.653  30.894 -0.0554 -0.2199 -0.1137
16536W        W20936  15.263   5.489  21.700 -0.0600  0.3284 -0.0316
16537W        W20937   0.053   6.279  21.508  0.2773  0.3351 -0.2201
16538W        W20938   4.586   6.065   0.514 -0.0401 -0.0627 -0.1388
16539W        W20939  11.700   6.840   9.417 -0.1258  0.2237  0.2305
16540W        W20940  16.378   4.583  22.707 -0.2795 -0.0812 -0.1127
16541W        W20941   6.976   6.766  28.379  0.0991 -0.0007  0.1307
16542W        W20942   3.033   0.888  10.427  0.1170 -0.0319  0.0819
16543W        W20943  20.533   5.718  25.786  0.3533 -0.1119  0.1004
16544W        W20944   5.112   7.350   0.444 -0.0995  0.1135  0.1683
16545W        W20945  20.013   4.284   4.636 -0.0272 -0.2163 -0.1876
16546W        W20946   8.208   6.441  27.107 -0.0556  0.4113  0.2772
16547W        W20947   8.560   4.629  29.230 -0.0489 -0.1214 -0.2358
16548W        W20948  22.973   5.875  28.156  0.1769 -0.0227 -0.1636
16549W        W20949  12.187   0.155  29.370 -0.1402 -0.1676 -0.2506
16550W        W20950  24.819   3.228  24.721 -0.2505  0.2954 -0.1293
16551W        W20951  14.804   0.707  21.850  0.1357 -0.6639  0.0289
16552W        W20952  14.731   6.381   3.438 -0.1372  0.0506 -0.1431
16553W        W20953  17.894   7.585  28.838  0.1866  0.0868 -0.0046
16554W        W20954  13.864   0.417  30.247  0.1727  0.0250 -0.0546
16555W        W20955  20.613   6.179  24.702 -0.2015 -0.1396 -0.0472
16556W        W20956  20.853   6.186   6.745 -0.1560 -0.0797 -0.2227
16557W        W20957   1.255   1.178   3.366 -0.2973  0.2756 -0.0018
16558W        W20958  17.469   6.408  20.690  0.0639  0.1500  0.1918
16559W        W20959   5.931   6.557   9.913  0.0475 -0.0761 -0.1244
16560W        W20960  11.116   7.412   5.056 -0.2254  0.3806  0.0485
16561W        W20961   1.808   0.206   1.941  0.1002 -0.0468  0.1007
16562W        W20962  22.135   7.307  22.292 -0.1203  0.0367  0.0826
16563W        W20963   9.454   3.142  12.004  0.0698 -0.2028 -0.0273
16564W        W20964  18.287   0.096  23.432  0.0097  0.2477 -0.0567
16565W        W20965  24.139   3.392  28.299 -0.2617  0.2488 -0.0663
16566W        W20966  24.794   1.306  10.190  0.1667 -0.0600 -0.1537
16567W        W20967   8.452   1.244  29.727 -0.1939 -0.1118  0.1069
16568W        W20968  11.172   1.248  26.819  0.0973 -0.3247  0.0107
16569W        W20969   4.639   1.182  12.589  0.0071 -0.0596 -0.1284
16570W        W20970  16.110   0.881   4.246 -0.0792  0.0241 -0.1742
16571W        W20971  21.214   4.842  28.060 -0.2738  0.1199  0.1705
16572W        W20972  12.027   6.228  27.991 -0.0322 -0.1370  0.1207
16573W        W20973   0.652   0.316  25.736  0.0963 -0.0569  0.0446
16574W        W20974  18.411   1.423   6.128 -0.0294 -0.3190 -0.0475
16575W        W20975  23.623   0.055  21.114 -0.2613  0.0046  0.0669
16576W        W20976  10.554   4.068  17.814 -0.1291 -0.0927 -0.1961
16577W        W20977   1.847   4.036   8.859 -0.1590  0.1913  0.1720
16578W        W20978   0.059   4.855   6.394 -0.2059  0.0917  0.1432
16579W        W20979  13.266   4.326  21.664 -0.2112  0.0512  0.1328
16580W        W20980   9.408   1.568  27.727 -0.2963 -0.2053  0.0945
16581W        W20981  22.761   7.522  10.333 -0.1769 -0.1230  0.0705
16582W        W20982  24.854   0.053  23.377 -0.3092  0.0836  0.3302
16583W        W20983  10.737   2.538  16.672  0.2704 -0.0778 -0.2050
16584W        W20984  22.506   0.455   4.162 -0.2084 -0.1379 -0.0963
16585W        W20985  14.037   4.882  22.733 -0.0110  0.1201 -0.3070
16586W        W20986  20.064   6.204  18.109 -0.1538  0.1632  0.0707
16587W        W20987   4.657   0.917  28.497  0.1397 -0.0447  0.1539
16588W        W20988  12.387   1.371  15.740  0.0030  0.2364  0.1773
16589W        W20989  24.641   0.781   8.793  0.0480  0.1314 -0.3831
16590W        W20990  24.313   1.925   3.688  0.2875  0.0147  0.1100
16591W        W20991  22.108   5.355  19.390  0.0421 -0.0292  0.0232
16592W        W20992   6.770   3.148  27.958 -0.6273  0.0316  0.1744
16593W        W20993   2.689   0.373  30.100 -0.2544  0.2264  0.2334
16594W        W20994  22.331   1.559  20.424  0.2619 -0.3316 -0.3211
16595W        W20995  20.702   1.223  16.221  0.4747 -0.0413 -0.1216
16596W        W20996   3.033   6.890  26.310 -0.0923  0.1364 -0.2225
16597W        W20997   8.163   5.289  13.321 -0.3530  0.1183  0.0278
16598W        W20998  17.906   3.998  30.503  0.3040  0.0871  0.0005
16599W        W20999   9.037   7.716  13.639 -0.1066 -0.2890  0.0794
16600W        W21000  23.223   0.912  15.899  0.0376  0.0613 -0.1089
16601W        W21001   8.608   5.325  17.787  0.1561  0.0738  0.1073
16602W        W21002  14.728   2.779  27.555  0.0302  0.1951 -0.2105
16603W        W21003  17.299   7.328  30.327 -0.0057 -0.2271  0.0737
16604W        W21004  10.565   5.975   1.339 -0.4585 -0.0509  0.2059
16605W        W21005  14.178   4.575   6.821  0.3012  0.1318  0.0327
16606W        W21006  16.194   6.389  24.265 -0.4192  0.0897 -0.3390
16607W        W21007  23.709   6.194  25.340  0.1832 -0.0434  0.2345
16608W        W21008  20.997   7.804   7.323  0.1422 -0.1595 -0.2002
16609W        W21009   8.055   3.569  24.981  0.0939  0.0813 -0.1408
16610W        W21010  11.879   2.003   2.992  0.2266  0.3028  0.1934
16611W        W21011   6.705   6.711  26.063 -0.0595 -0.1789  0.2247
16612W        W21012  22.996   3.438   3.101  0.1958  0.5089 -0.1695
16613W        W21013  13.778   2.470  29.737 -0.0966  0.0501 -0.2305
16614W        W21014  11.349   3.634   2.364 -0.2059 -0.2334 -0.0705
16615W        W21015   4.188   2.991  10.677 -0.3128  0.0133 -0.0584
16616W        W21016   1.058   6.707  10.083 -0.3126  0.0322  0.1829
16617W        W21017   5.510   4.886  29.784  0.1791 -0.0195  0.3277
16618W        W21018  11.606   2.052  10.954  0.1982  0.0657  0.1067
16619W        W21019  11.022   5.134  24.483 -0.0689 -0.1957 -0.0783
16620W        W21020   1.352   0.258   8.274  0.0752 -0.4151 -0.0557
16621W        W21021  12.331   0.011  11.675 -0.3762 -0.0833 -0.0474
16622W        W21022   9.040   1.549  26.362 -0.1180 -0.0117  0.0926
16623W        W21023   2.867   4.743  31.455 -0.3035 -0.2548 -0.0002
16624W        W21024  20.111   4.978  18.525 -0.3077 -0.1928  0.1462
16625W        W21025   6.004   3.218   9.259 -0.1307 -0.0606  0.3177
16626W        W21026  24.028   5.950  30.313 -0.1203 -0.2229 -0.0816
16627W        W21027  12.840   4.288   3.081 -0.3016 -0.0536  0.1214
16628W        W21028  20.918   7.068  19.061  0.3385  0.1828 -0.1016
16629W        W21029  13.048   3.469   8.058  0.1591  0.1256 -0.0657
16630W        W21030  21.446   5.616  25.643 -0.0029 -0.0061 -0.1964
16631W        W21031   0.805   0.467  24.893 -0.1873 -0.0016 -0.0561
16632W        W21032  19.543   2.517  22.333  0.1205  0.1337  0.3092
16633W        W21033  12.722   2.251   7.343 -0.3528  0.0019  0.0551
16634W        W21034  11.035   7.141   0.525 -0.1175  0.1582 -0.0739
16635W        W21035  16.528   3.773   5.162 -0.0352 -0.0287 -0.1738
16636W        W21036  23.658   4.233  20.185 -0.2348 -0.2929  0.0855
16637W        W21037  20.138   6.649  17.260  0.0855 -0.1379 -0.1020
16638W        W21038  11.739   6.474  15.334 -0.1162  0.3380 -0.0098
16639W        W21039   7.245   5.618   8.017  0.3597 -0.0300 -0.2105
16640W        W21040   4.962   1.610   1.159  0.1799  0.1931  0.0781
16641W        W21041  12.507   1.777  23.578  0.0047 -0.1324 -0.3834
16642W        W21042  19.412   2.424  27.427 -0.0225  0.1015 -0.1127
16643W        W21043  19.301   3.439  22.525  0.0974  0.2479 -0.0786
16644W        W21044  13.468   2.861  23.605 -0.0016 -0.0324  0.0985
16645W        W21045  19.166   3.362  16.076  0.2522  0.0084 -0.0896
16646W        W21046   1.400   7.296   1.355 -0.2315  0.0749 -0.2567
16647W        W21047  22.881   6.322   6.928  0.0837  0.0675 -0.1171
16648W        W21048   3.487   1.394  21.108  0.1658 -0.0292  0.0184
16649W        W21049  21.462   1.907   5.464 -0.3479  0.1084 -0.1226
16650W        W21050  23.267   3.414  29.990  0.1151 -0.0331 -0.1426
16651W        W21051   5.412   4.214  31.463  0.2749  0.0023 -0.0285
16652W        W21052  23.512   6.891  28.675  0.0478 -0.1134  0.2610
16653W        W21053  23.795   5.471  23.196 -0.1209  0.0214  0.0387
16654W        W21054  19.529   4.638  27.802  0.1154  0.1676 -0.2956
16655W        W21055   3.946   6.572  10.258  0.1293  0.0761 -0.0969
16656W        W21056  18.153   7.236   3.964 -0.1865 -0.0721 -0.1005
16657W        W21057  19.609   5.210  25.948 -0.1384  0.3545 -0.0057
16658W        W21058   9.262   0.013   5.733  0.0635 -0.4276  0.0085
16659W        W21059   8.005   3.605  13.425 -0.0465 -0.1595  0.0928
16660W        W21060  22.884   2.234   1.560 -0.1129 -0.0754 -0.0070
16661W        W21061  14.044   6.499  10.924  0.1611  0.0597 -0.0543
16662W        W21062  21.337   7.288  32.072  0.0006 -0.1179  0.2929
16663W        W21063   8.400   4.820   3.163  0.2731 -0.0299  0.1996
16664W        W21064  15.620   2.067  24.569 -0.3771 -0.2081  0.1235
16665W        W21065  14.773   4.408   4.766  0.0117 -0.1738  0.2719
16666W        W21066  11.350   7.553   6.830  0.1455  0.0011  0.1627
16667W        W21067  11.143   7.176  22.181 -0.1788 -0.0678 -0.1092
16668W        W21068   8.457   2.442   4.420  0.0221 -0.3169  0.2923
16669W        W21069   2.379   5.002  23.562 -0.1008  0.1877  0.2807
16670W        W21070   3.318   4.252   0.830  0.2236 -0.1267  0.1181
16671W        W21071  15.044   4.351  28.690  0.1511  0.1032  0.2371
16672W        W21072   1.143   5.434  17.450 -0.2929  0.2087 -0.1731
16673W        W21073  19.279   3.017   6.488 -0.0128  0.0773 -0.0773
16674W        W21074   0.232   4.918  27.955 -0.2278  0.1154 -0.1579
16675W        W21075  14.985   4.930  24.279 -0.1822 -0.1781  0.0713
16676W        W21076   9.879   2.104  24.990  0.2771  0.1876 -0.0062
16677W        W21077   4.086   4.672   9.732  0.2768 -0.0004 -0.1589
16678W        W21078   5.499   6.991   8.707  0.0587 -0.0819  0.2924
16679W        W21079  14.685   2.092  21.437  0.3936 -0.1028  0.0353
16680W        W21080  24.542   6.409  23.926 -0.0376 -0.0065  0.0653
16681W        W21081  18.447   1.258  19.866 -0.0817  0.2022 -0.0478
16682W        W21082   7.376   4.067  16.301 -0.1616  0.0579 -0.1042
16683W        W21083  17.499   2.989   3.962 -0.0383  0.1442  0.1729
16684W        W21084   9.042   2.173  13.009  0.3860 -0.1401  0.2515
16685W        W21085  10.906   5.626   3.116 -0.0904  0.0806 -0.0037
16686W        W21086  18.089   2.513   8.680 -0.2001 -0.1322 -0.0163
16687W        W21087  21.005   7.535  23.003  0.0605  0.1288 -0.1537
16688W        W21088   5.401   6.809  30.066 -0.0767  0.0564  0.0407
16689W        W21089  10.105   2.085  23.884 -0.1083  0.0171  0.2485
16690W        W21090   5.141   7.182  26.831  0.2653  0.1725 -0.0592
16691W        W21091  11.631   2.076  27.696 -0.3644 -0.0201 -0.2700
16692W        W21092   7.692   0.713  10.552 -0.0383 -0.1440 -0.2738
16693W        W21093  16.742   3.498  29.021  0.1182  0.1322 -0.1489
16694W        W21094   7.577   6.138  17.896 -0.0139 -0.1947 -0.2325
16695W        W21095  18.829   0.623  29.894 -0.0984  0.0416  0.3589
16696W        W21096   7.834   1.071   7.694 -0.1522 -0.0494 -0.1244
16697W        W21097  17.092   3.369   6.099  0.0613  0.0637 -0.0808
16698W        W21098   8.742   2.261  11.594  0.0309 -0.2039  0.1403
16699W        W21099  10.664   1.508   1.516 -0.1741 -0.0255  0.1388
16700W        W21100  10.375   5.260  10.547 -0.0388 -0.0717  0.1127
16701W        W21101  15.012   2.433   6.846  0.0075  0.0082  0.2242
16702W        W21102   5.862   5.521   5.613  0.2518  0.1500  0.0599
16703W        W21103   2.968   0.933   2.045  0.1591  0.1716  0.3010
16704W        W21104   8.835   6.967  25.489  0.2795  0.0660 -0.2741
16705W        W21105   2.125   6.863   8.957 -0.1539  0.0487  0.1773
16706W        W21106   1.793   1.713  25.942  0.2282 -0.0746 -0.0773
16707W        W21107   3.784   1.796   2.972  0.0951  0.0935  0.4001
16708W        W21108  21.648   3.489  31.079  0.1648  0.1419 -0.3301
16709W        W21109  24.135   7.366  18.860  0.1315  0.0955  0.0092
16710W        W21110  14.494   2.866  21.884  0.1347 -0.0901 -0.1717
16711W        W21111  15.583   2.567  30.062  0.2069 -0.0668 -0.0566
16712W        W21112   4.708   7.346  24.521 -0.2581  0.3033 -0.0961
16713W        W21113   7.956   3.399  30.393 -0.0061 -0.0952 -0.2171
16714W        W21114   1.244   6.119  30.917 -0.1599 -0.0330  0.0010
16715W        W21115   9.849   6.392   6.646  0.1106 -0.0501 -0.1434
16716W        W21116  21.224   7.263  20.871  0.1675 -0.0565 -0.0676
16717W        W21117   1.187   2.809   0.239 -0.1361  0.2207 -0.0967
16718W        W21118  11.005   0.595  15.584 -0.1828  0.1368  0.0564
16719W        W21119   3.715   0.168   1.459 -0.0451  0.1114  0.1762
16720W        W21120  13.505   3.356   0.613  0.3685  0.0202 -0.0394
16721W        W21121  18.143   3.543   3.964  0.0171  0.1408 -0.2364
16722W        W21122   9.224   4.633  32.121 -0.1229  0.0799  0.0146
16723W        W21123  19.310   2.341   2.158 -0.0303 -0.0666 -0.1863
16724W        W21124  15.795   0.581  28.112 -0.0801 -0.2016 -0.2700
16725W        W21125  18.742   2.567  18.827  0.2851 -0.1414  0.0255
16726W        W21126   1.081   1.917  23.758 -0.3358 -0.1159 -0.2940
16727W        W21127  14.516   7.164   2.945 -0.0701  0.2891 -0.4177
16728W        W21128  19.158   4.814  15.427 -0.0757  0.0180 -0.5450
16729W        W21129  18.817   7.159  17.314 -0.2732 -0.0783  0.2793
16730W        W21130   7.089   3.230  31.462 -0.0468  0.0597 -0.0607
16731W        W21131   6.403   5.686  23.903 -0.3718  0.1228 -0.0916
16732W        W21132  22.368   5.519   7.773 -0.1175 -0.1197  0.2077
16733W        W21133   8.244   0.100   7.154  0.2486  0.2901  0.0582
16734W        W21134  10.692   1.359  31.786 -0.0221 -0.0792  0.2744
16735W        W21135  12.551   4.038  26.255 -0.0915  0.0337  0.0377
16736W        W21136  21.045   3.964  25.220 -0.0412 -0.1559  0.1677
16737W        W21137  12.749   2.631  30.678 -0.2827 -0.2167 -0.5083
16738W        W21138  10.021   7.755  16.113  0.0912 -0.2989 -0.0598
16739W        W21139   3.821   7.507  26.250 -0.0345  0.1087 -0.0078
16740W        W21140   6.855   3.045  11.790  0.0637 -0.1469 -0.1741
16741W        W21141  20.795   2.291  14.351 -0.0584 -0.2242  0.0570
16742W        W21142   2.340   7.100   6.787  0.3863  0.1530  0.2421
16743W        W21143  13.348   1.571  28.653 -0.0494 -0.2038 -0.0660
16744W        W21144  23.711   7.601   2.024 -0.0130 -0.0734 -0.1164
16745W        W21145   5.633   1.894   9.668  0.0275  0.2257  0.4066
16746W        W21146   0.049   4.273   5.229  0.0324  0.0592 -0.0461
16747W        W21147  21.524   3.777  24.581  0.1973  0.3460 -0.0085
16748W        W21148  21.476   6.860   2.049  0.0816 -0.1617  0.3682
16749W        W21149   4.439   2.521  29.254  0.1035 -0.0711  0.0761
16750W        W21150  10.237   6.944  13.771 -0.0767  0.0323 -0.3495
16751W        W21151   4.795   3.388   8.830  0.0583 -0.0424 -0.0324
16752W        W21152  16.085   2.829   4.853 -0.0026 -0.2569 -0.2215
16753W        W21153   8.735   4.710   3.957 -0.1244 -0.1395  0.0974
16754W        W21154  24.440   0.308   8.865  0.1547  0.0263 -0.2182
16755W        W21155  19.841   3.460   7.984 -0.2317  0.1112  0.4205
16756W        W21156  19.966   6.209   0.108 -0.3671  0.0393  0.1089
16757W        W21157  15.326   2.122  12.904 -0.1812  0.0441 -0.1849
16758W        W21158  24.051   3.352  25.410 -0.1496 -0.1516 -0.0435
16759W        W21159  16.564   4.581  30.109  0.1181  0.1027  0.1743
16760W        W21160   9.082   4.961   0.679 -0.3310  0.0382  0.3573
16761W        W21161  18.011   7.300  28.456 -0.3174 -0.0035 -0.0785
16762W        W21162  14.952   2.778   2.326  0.2412  0.2343 -0.1618
16763W        W21163   1.657   5.921   8.090  0.0684 -0.0711 -0.0026
16764W        W21164  15.877   4.923  31.000 -0.0450 -0.3536 -0.2071
16765W        W21165   0.375   4.884  30.019 -0.2479 -0.0404 -0.2285
16766W        W21166  10.863   2.919   4.102  0.2568 -0.0767 -0.1073
16767W        W21167   7.142   6.186   4.377  0.0870 -0.3097  0.1316
16768W        W21168   3.645   0.226  23.872  0.4147  0.1994  0.1442
16769W        W21169  21.357   5.011  17.353  0.0283  0.1810 -0.0497
16770W        W21170  15.660   2.975  21.466 -0.1741  0.1592  0.0239
16771W        W21171   1.633   3.742   2.462  0.0877  0.4268 -0.1144
16772W        W21172   4.319   2.627   8.397  0.2665 -0.4242  0.0515
16773W        W21173  24.656   5.947  21.032  0.1699 -0.0677  0.0206
16774W        W21174   9.887   4.887  15.696  0.0467  0.0637 -0.0872
16775W        W21175  15.893   0.622   1.231 -0.1461 -0.2782 -0.5207
16776W        W21176   8.319   3.695  31.415  0.0834  0.0381  0.1655
16777W        W21177  20.331   2.650   0.280 -0.1899 -0.1144 -0.1289
16778W        W21178   8.021   0.524  28.390 -0.0228 -0.0421 -0.0764
16779W        W21179  18.868   6.992  18.846 -0.1641  0.0850 -0.1349
16780W        W21180   1.939   7.198  20.069 -0.0123 -0.1473 -0.0998
16781W        W21181   6.521   5.887   7.236  0.3708  0.2881 -0.3336
16782W        W21182   8.094   6.041   5.468 -0.4780 -0.0705 -0.0824
16783W        W21183  14.218   2.612  29.309 -0.2848  0.1024  0.3520
16784W        W21184  13.260   0.468  23.769 -0.1866  0.0681  0.0282
16785W        W21185   2.205   2.814   1.059 -0.0753 -0.4149  0.1428
16786W        W21186  20.598   3.533   9.364  0.2348 -0.2264  0.2535
16787W        W21187   3.377   1.062  10.847 -0.0374 -0.1569 -0.2129
16788W        W21188  16.286   0.193  24.073 -0.0657 -0.3566  0.0887
16789W        W21189   1.680   6.117   7.674  0.0545 -0.1829  0.1521
16790W        W21190   4.212   3.701  27.030  0.1832 -0.1195  0.0611
16791W        W21191   7.810   3.584  18.039  0.1424 -0.1073  0.3757
16792W        W21192   7.322   2.303   8.619 -0.2510 -0.1229  0.3575
16793W        W21193  18.846   5.663  27.178  0.0197 -0.0515 -0.0343
16794W        W21194   0.575   0.098  28.960 -0.0292  0.2320  0.0058
16795W        W21195  21.128   5.237   7.769 -0.0650  0.2383  0.0068
16796W        W21196   7.025   6.544   3.092 -0.2533 -0.0835 -0.1436
16797W        W21197   0.915   6.179   7.220 -0.2842  0.1737 -0.2725
16798W        W21198   9.413   5.010   3.616  0.1854 -0.0058 -0.1965
16799W        W21199  21.400   0.138  27.522 -0.3288 -0.0796 -0.0750
16800W        W21200  18.216   4.965  23.910  0.0522  0.1964 -0.1481
16801W        W21201  24.204   0.418  26.312  0.1611  0.1017 -0.3288
16802W        W21202  19.493   0.111   8.928 -0.0389  0.2089  0.0232
16803W        W21203   4.551   4.630  12.465 -0.5530  0.0186 -0.0864
16804W        W21204  17.046   1.782   6.170 -0.1183  0.1672  0.2131
16805W        W21205  19.960   0.715   2.975  0.1301  0.5256 -0.0179
16806W        W21206  11.235   5.067  27.873 -0.0822  0.2109 -0.2358
16807W        W21207  10.944   0.301  11.306 -0.0807  0.0120 -0.0917
16808W        W21208   2.649   1.126  11.283  0.0300 -0.2110 -0.0264
16809W        W21209   1.627   3.488   9.625  0.0772 -0.1799 -0.1205
16810W        W21210   1.380   6.817   7.858  0.1169 -0.2007 -0.3055
16811W        W21211  18.285   1.997  20.957 -0.2080  0.1149 -0.0244
16812W        W21212  22.741   2.284  24.844 -0.0495  0.2487  0.4734
16813W        W21213   0.561   3.756  32.298 -0.0914 -0.0229  0.2378
16814W        W21214   9.751   5.803  31.540  0.0279  0.0029 -0.1396
16815W        W21215   8.748   4.592  24.739  0.2287 -0.2997  0.2835
16816W        W21216   4.717   0.927  26.321  0.0457  0.0192  0.2637
16817W        W21217  11.019   1.800  13.103 -0.0042  0.1784 -0.2894
16818W        W21218  17.272   4.254   4.592 -0.0300 -0.0279  0.1470
16819W        W21219  24.114   6.742  24.410  0.0536  0.2117  0.0815
16820W        W21220   4.301   0.774   4.093 -0.1712  0.2400  0.1673
16821W        W21221   6.288   2.235  27.061  0.2309 -0.2329  0.0249
16822W        W21222  15.629   4.446  28.053 -0.0056  0.1317  0.1455
16823W        W21223  17.531   4.462   8.932 -0.2177  0.0191  0.0042
16824W        W21224  19.037   1.843  17.850  0.0180  0.1892 -0.4971
16825W        W21225  12.319   5.466   3.977 -0.0101 -0.1629  0.0804
16826W        W21226   5.629   0.313  25.561  0.2308 -0.0085 -0.1468
16827W        W21227   0.303   4.782   0.043  0.2221 -0.1531  0.1853
16828W        W21228   2.730   5.166   3.085  0.0985  0.0749 -0.0648
16829W        W21229  20.391   7.085  21.436 -0.1178  0.3513 -0.3198
16830W        W21230   9.797   6.728  14.412 -0.1766  0.3787  0.4500
16831W        W21231   2.957   0.687   7.954 -0.1036 -0.2136 -0.0073
16832W        W21232  24.350   4.241  29.724 -0.2137  0.0613  0.0622
16833W        W21233  18.564   6.727   8.641  0.2100  0.1829 -0.5009
16834W        W21234  19.747   0.970  21.661  0.1546  0.1187 -0.0741
16835W        W21235  23.650   7.482  10.317 -0.1961 -0.0599  0.0606
16836W        W21236   7.022   5.102  10.730 -0.1769 -0.1357 -0.2063
16837W        W21237  20.550   2.081   7.470  0.1970 -0.1696  0.0348
16838W        W21238  11.642   1.546   4.444 -0.0085 -0.0151  0.0239
16839W        W21239   7.971   7.651   0.210  0.0457 -0.1302  0.0759
16840W        W21240  22.052   4.623  15.717  0.0587  0.0625  0.1780
16841W        W21241   3.858   3.015  22.536 -0.1645  0.0585 -0.1335
16842W        W21242  20.591   6.212  32.213 -0.1648 -0.0315 -0.1945
16843W        W21243  17.670   0.426  21.369  0.0710  0.2085  0.0233
16844W        W21244  19.114   1.706  21.334  0.2097  0.1905 -0.1123
16845W        W21245  10.894   5.710   0.053  0.1303  0.0913  0.0749
16846W        W21246   3.545   6.869   6.219  0.1334 -0.1309 -0.2340
16847W        W21247   1.917   3.381  23.161  0.0951  0.1369  0.1494
16848W        W21248  20.075   2.354  17.397  0.1436  0.0697  0.0933
16849W        W21249   0.951   7.455   2.707  0.0380  0.0448  0.1580
16850W        W21250  18.761   6.945  16.798  0.0647 -0.1657 -0.0532
16851W        W21251  12.248   5.685  27.382  0.1324  0.0819 -0.1012
16852W        W21252  21.000   4.330   9.108  0.0109  0.2824 -0.2323
16853W        W21253   0.309   1.645  31.665  0.1385  0.2056  0.1431
16854W        W21254   2.943   2.049  11.109  0.0945  0.1084  0.2897
16855W        W21255  11.551   3.434  15.302 -0.1506  0.0675 -0.3126
16856W        W21256   4.009   6.452  13.938 -0.2287  0.3924  0.1280
16857W        W21257  20.249   4.015   7.329  0.3853  0.1397  0.0320
16858W        W21258  22.782   3.812  28.274  0.0159 -0.1351  0.2075
16859W        W21259  21.877   7.775  14.953 -0.0003 -0.0140  0.1760
16860W        W21260  21.967   4.764  29.630  0.0921 -0.2300  0.0465
16861W        W21261  20.693   1.126   1.942  0.1334 -0.1349 -0.1958
16862W        W21262  19.787   1.803  21.361  0.0161  0.1683 -0.2188
16863W        W21263  11.471   7.479  26.260  0.1704 -0.0463  0.0467
16864W        W21264   1.904   5.469  19.793  0.0969 -0.0955 -0.0818
16865W        W21265  15.560   6.240  10.857  0.1536  0.1210 -0.0999
16866W        W21266   5.633   1.525  23.194 -0.0120  0.3207  0.4274
16867W        W21267  24.359   3.084  10.567  0.0057  0.0731 -0.0259
16868W        W21268  14.998   5.606  25.370  0.1007  0.0119  0.1470
16869W        W21269   4.949   6.741  28.045  0.2271  0.1128  0.1448
16870W        W21270  22.210   1.637  15.233  0.1979  0.0224  0.0186
16871W        W21271   3.659   5.399   9.170  0.0395 -0.0864  0.1777
16872W        W21272   4.188   5.290   4.038  0.0418  0.0499 -0.1533
16873W        W21273  11.878   1.385   1.823  0.0077 -0.1807  0.1136
16874W        W21274  18.872   6.605  26.665 -0.1840  0.2090  0.1433
16875W        W21275  23.036   3.498  14.737 -0.0169 -0.1121 -0.0948
16876W        W21276  13.766   4.913  25.582  0.0162 -0.0833  0.0673
16877W        W21277  20.329   2.701  31.683 -0.1038  0.4122  0.0035
16878W        W21278   5.676   0.804   4.267 -0.0691 -0.2502 -0.0303
16879W        W21279  13.821   6.688  24.358  0.3789  0.1064  0.1304
16880W        W21280   1.782   3.457  31.737 -0.1950  0.0147 -0.2276
16881W        W21281  11.917   6.539  25.340  0.1794 -0.0191 -0.1333
16882W        W21282   3.923   1.006  12.181  0.3751  0.0092  0.0561
16883W        W21283  13.661   6.057  23.086  0.1063  0.1281  0.0101
16884W        W21284   6.585   3.560  10.020 -0.1090  0.2787  0.0674
16885W        W21285  11.409   1.718  11.774 -0.3322 -0.0084 -0.0269
16886W        W21286   8.426   1.118   6.893 -0.0042  0.1912  0.0144
16887W        W21287   2.658   6.616   8.966  0.1360  0.3595  0.0565
16888W        W21288  24.378   6.347  22.550  0.0882 -0.4208 -0.0147
16889W        W21289   4.428   0.499  32.234 -0.1761 -0.2899 -0.1070
16890W        W21290   0.329   5.253  18.471  0.1310  0.2899  0.2673
16891W        W21291  19.095   6.620  20.616 -0.0457 -0.0452  0.0212
16892W        W21292   5.990   7.647   2.178 -0.0534 -0.1726  0.0133
16893W        W21293   4.529   6.886  26.101 -0.0916  0.0882  0.2298
16894W        W21294  11.643   6.930   0.095 -0.1473  0.0349 -0.1859
16895W        W21295  10.422   3.237  26.439 -0.3445 -0.2206  0.1926
16896W        W21296   9.015   1.537  24.196 -0.3631 -0.0335 -0.1772
16897W        W21297   4.141   6.355  23.788  0.0408  0.1157 -0.1902
16898W        W21298  23.742   0.059  25.752  0.0975 -0.1515  0.1202
16899W        W21299   4.561   4.450  15.422 -0.0364  0.0351 -0.3352
16900W        W21300  17.869   6.840  21.120 -0.2317 -0.2145 -0.2857
16901W        W21301   8.322   4.774  32.192  0.5000  0.2889  0.0706
16902W        W21302   5.078   5.752  29.428 -0.0546  0.3002 -0.1970
16903W        W21303  16.019   5.802   0.214  0.1411  0.2221 -0.1396
16904W        W21304  22.464   4.082   3.634  0.0632 -0.1748 -0.1013
16905W        W21305   3.248   2.978  21.867 -0.1732  0.1429 -0.2895
16906W        W21306  14.810   2.545  31.453  0.1917 -0.1932  0.1370
16907W        W21307  19.402   5.405  24.991 -0.1156 -0.2301  0.1088
16908W        W21308  22.961   1.155   3.700  0.0344 -0.0743 -0.2982
16909W        W21309  24.124   2.035  17.889 -0.1006  0.2714 -0.1910
16910W        W21310  10.325   2.803  10.707 -0.0998  0.4925 -0.0177
16911W        W21311  24.894   7.295  30.362 -0.2933  0.0318 -0.1474
16912W        W21312   0.735   5.385  28.767 -0.3408 -0.0012  0.0172
16913W        W21313   9.830   1.071  11.838 -0.1997  0.1844  0.1440
16914W        W21314   4.898   3.796  12.952  0.2124 -0.1083  0.1438
16915W        W21315  12.082   5.225   4.464 -0.2049 -0.0543  0.0518
16916W        W21316  24.586   1.899  19.782 -0.0296  0.0736 -0.1186
16917W        W21317  17.295   6.991  10.014 -0.0633 -0.0945 -0.1168
16918W        W21318   3.293   5.455  31.936  0.2113  0.1674 -0.1723
16919W        W21319   9.156   4.286   2.808 -0.0800 -0.0827 -0.0568
16920W        W21320  11.421   4.571  27.784  0.0470 -0.2362 -0.0565
16921W        W21321   8.386   1.995  27.182 -0.1344  0.3928 -0.2395
16922W        W21322   9.151   5.354  28.335 -0.2592  0.2767 -0.0412
16923W        W21323  15.378   0.150  29.042  0.1302 -0.0569  0.0617
16924W        W21324  21.357   6.610  21.977  0.0126  0.1705 -0.1639
16925W        W21325  17.379   5.015   2.997 -0.1622  0.2709 -0.2001
16926W        W21326  11.923   6.319  22.969 -0.1248 -0.2170  0.3775
16927W        W21327   8.423   1.744   1.369 -0.0781 -0.0568 -0.0266
16928W        W21328   4.868   2.194   1.834  0.3302  0.3722  0.2705
16929W        W21329  24.528   4.662  25.584  0.0499  0.0154 -0.0475
16930W        W21330   8.723   2.884   5.481  0.1076  0.0922  0.0145
16931W        W21331   1.429   5.540   9.783  0.0355 -0.0201 -0.0284
16932W        W21332   5.274   7.341  12.574  0.1086 -0.0792 -0.0564
16933W        W21333  21.924   0.818  23.013 -0.0354 -0.0776 -0.2664
16934W        W21334   4.229   4.751  27.994 -0.0385 -0.1327  0.0688
16935W        W21335  19.329   2.362  26.450 -0.2959 -0.3166 -0.1803
16936W        W21336  15.844   1.848   7.565  0.0115 -0.1910 -0.1137
16937W        W21337   1.262   3.460  19.765 -0.0809 -0.0940 -0.0263
16938W        W21338  23.956   7.567   6.048  0.1477  0.0899 -0.1460
16939W        W21339  10.629   2.372   5.991  0.2043  0.0134  0.1194
16940W        W21340  13.217   2.115   9.886 -0.2025 -0.1678  0.1991
16941W        W21341  16.357   7.679   4.966 -0.0369  0.3258 -0.0475
16942W        W21342   1.185   1.262   7.935 -0.2785  0.0417 -0.2753
16943W        W21343  14.133   5.763  27.844  0.1193  0.1519 -0.2355
16944W        W21344  17.746   1.130  19.258  0.0878 -0.3886 -0.1933
16945W        W21345  23.924   0.387   2.630 -0.0749 -0.0845 -0.1786
16946W        W21346   3.831   4.930   8.257  0.0315 -0.3961  0.2254
16947W        W21347  14.493   5.109  24.077 -0.3159  0.0563  0.0399
16948W        W21348   6.165   7.105  28.322  0.1743  0.1212  0.2160
16949W        W21349  11.271   4.931  14.895  0.0775  0.1110 -0.1211
16950W        W21350  10.987   1.583   9.780 -0.0723 -0.0749 -0.1245
16951W        W21351   3.955   4.002  28.180 -0.3081 -0.1846  0.3554
16952W        W21352   8.654   6.589   3.926 -0.0013 -0.3098 -0.0439
16953W        W21353   4.383   1.212  31.435 -0.0411 -0.3096 -0.2854
16954W        W21354  15.410   6.181   7.352 -0.0388  0.1990  0.0121
16955W        W21355  15.838   0.363  24.155  0.0137  0.0685 -0.0769
16956W        W21356  21.023   4.508   7.283  0.0528  0.1640  0.0911
16957W        W21357  13.434   7.028  23.231  0.1393  0.1095 -0.0169
16958W        W21358  23.555   3.900   7.725  0.0299  0.2588  0.2270
16959W        W21359   5.444   6.740  28.234 -0.0341  0.0733  0.1784
16960W        W21360  17.908   7.774  19.050 -0.1654  0.2974 -0.2299
16961W        W21361  19.572   3.266  15.356 -0.0715  0.0584  0.1342
16962W        W21362   7.849   5.189   8.295  0.3015 -0.0600  0.2092
16963W        W21363  20.450   1.175  31.977 -0.1635 -0.1143 -0.2457
16964W        W21364   3.423   6.404  12.661  0.2916 -0.1768  0.4356
16965W        W21365   3.124   4.391  12.486  0.2609 -0.1898 -0.1450
16966W        W21366  22.655   0.966  27.764  0.2646  0.0963 -0.3104
16967W        W21367  23.616   5.351  23.691 -0.1244  0.4838 -0.1497
16968W        W21368  21.090   3.903  14.339 -0.0286  0.1194 -0.0232
16969W        W21369  20.694   6.586  16.303  0.1600 -0.1769 -0.0929
16970W        W21370  16.195   4.141  22.659 -0.2572 -0.1430 -0.0525
16971W        W21371  18.813   4.195  20.801  0.1008  0.0058  0.0736
16972W        W21372  20.902   0.798  24.342  0.1648 -0.2110  0.0819
16973W        W21373  20.634   3.720   6.237 -0.2421 -0.0578  0.0160
16974W        W21374  22.537   5.951   7.611  0.2096 -0.1024 -0.1294
16975W        W21375   7.747   6.432  22.528  0.2087 -0.1430  0.2584
16976W        W21376   9.565   7.720  11.365 -0.1036  0.0287 -0.0137
16977W        W21377   8.739   6.272  30.039  0.0037  0.0488  0.0108
16978W        W21378  19.222   7.654  17.340  0.0648  0.0872 -0.1216
16979W        W21379  21.590   2.282  26.622 -0.0073  0.2430  0.1330
16980W        W21380  20.390   0.262  19.829  0.0321 -0.1246  0.2444
16981W        W21381   8.463   3.444  26.534 -0.0320 -0.0706  0.2800
16982W        W21382  20.341   5.379   9.309  0.1212  0.2168  0.1399
16983W        W21383  15.804   7.555  25.837  0.0932 -0.1908 -0.0151
16984W        W21384  12.510   4.571  12.329 -0.0689 -0.1528  0.0821
16985W        W21385   1.684   5.889  30.999 -0.2918  0.1637  0.1542
16986W        W21386  22.456   1.716  24.095 -0.0486  0.0247 -0.1184
16987W        W21387  16.907   1.187  27.996 -0.1839 -0.0669 -0.1451
16988W        W21388   8.409   7.361  29.179 -0.1095  0.1962 -0.0338
16989W        W21389  19.999   4.592  28.372  0.3843 -0.2200 -0.0932
16990W        W21390  12.892   6.481  27.897  0.0791 -0.0819  0.0179
16991W        W21391   2.620   4.225  26.612  0.0214  0.1542 -0.3527
16992W        W21392  12.605   5.418   2.714 -0.1937 -0.1869 -0.0358
16993W        W21393  19.565   0.554   1.227 -0.1177  0.3328 -0.0340
16994W        W21394  16.683   1.668   1.879 -0.1232  0.0265 -0.1795
16995W        W21395  19.706   4.008   2.404  0.0486 -0.2042 -0.5673
16996W        W21396  20.875   4.839   4.975 -0.1797 -0.0273  0.0225
16997W        W21397   8.432   4.970  26.833  0.1145 -0.2022 -0.2928
16998W        W21398   6.841   2.758  17.704 -0.0083 -0.0203  0.1123
16999W        W21399   4.644   0.707  12.427 -0.0198  0.0592  0.3269
17000W        W21400  24.601   1.689   9.469 -0.2378  0.0866  0.4065
17001W        W21401  24.603   7.064   3.947  0.2679  0.1729 -0.0598
17002W        W21402  11.736   2.531   7.569 -0.0625  0.0945 -0.0751
17003W        W21403   8.784   3.841  12.804  0.1454  0.1418 -0.2373
17004W        W21404  17.865   2.915  28.539  0.1044  0.0900 -0.0131
17005W        W21405  10.226   0.212   8.189  0.0470  0.0532 -0.2912
17006W        W21406  13.077   4.543   6.900  0.1506  0.1580 -0.3711
17007W        W21407   7.980   5.087   2.472 -0.1419  0.0706  0.0335
17008W        W21408  19.730   2.942   9.951  0.0138  0.0886  0.0046
17009W        W21409  11.063   2.419  30.687 -0.1406  0.0844  0.2387
17010W        W21410   3.287   5.663   9.403 -0.2022  0.1866  0.0379
17011W        W21411  18.239   6.560  29.629 -0.1481  0.0052  0.2174
17012W        W21412  10.479   6.088  29.462 -0.3199 -0.2992 -0.0502
17013W        W21413  18.561   1.744  25.222  0.0986  0.0805  0.0442
17014W        W21414  14.008   0.646   2.969 -0.0001  0.1474 -0.1738
17015W        W21415  14.602   4.920  24.686 -0.0907 -0.1357 -0.0294
17016W        W21416   4.109   0.623  10.794  0.0407 -0.2038 -0.1831
17017W        W21417  23.364   7.323   7.662 -0.4883  0.0162  0.3341
17018W        W21418  14.209   3.349  32.499 -0.2967 -0.1974 -0.3698
17019W        W21419  13.136   0.302  30.266  0.0538 -0.1162 -0.1690
17020W        W21420   3.868   4.188  31.872  0.0875 -0.0743  0.2035
17021W        W21421  19.808   6.888   3.713  0.0706  0.2052  0.1545
17022W        W21422   6.530   6.616  22.693  0.0464 -0.2095  0.0484
17023W        W21423  24.724   7.492  29.182  0.1919  0.1773  0.0413
17024W        W21424   0.576   0.323  27.855 -0.1165  0.0688  0.1940
17025W        W21425  24.392   6.687   0.275  0.2290  0.3430 -0.1873
17026W        W21426  11.033   2.779   3.608 -0.0452  0.1832 -0.1327
17027W        W21427  18.451   4.197  29.011  0.0505 -0.1813  0.2897
17028W        W21428   5.322   1.781  29.023  0.0019 -0.0555  0.0435
17029W        W21429   3.947   2.852   8.990 -0.0813 -0.1266 -0.4630
17030W        W21430  14.815   0.658  11.488  0.1206 -0.0239  0.1060
17031W        W21431  16.285   6.321  20.462  0.0459 -0.2651 -0.3573
17032W        W21432  15.771   4.061  22.300  0.3035 -0.2920  0.1357
17033W        W21433   3.225   0.837   2.779  0.0649  0.0982 -0.0091
17034W        W21434  23.627   4.671   2.475  0.2074  0.1306 -0.2593
17035W        W21435   4.113   0.078  28.207 -0.2305 -0.1826 -0.0023
17036W        W21436   8.332   6.375  13.233  0.1607 -0.3114  0.3657
17037W        W21437   9.730   0.988  28.382  0.1768  0.1270 -0.1352
17038W        W21438  21.384   1.500   1.377  0.0588 -0.3428 -0.1336
17039W        W21439  23.759   1.336  32.513 -0.0728  0.1071  0.1808
17040W        W21440   2.425   1.085  24.553  0.2916 -0.0553  0.0535
17041W        W21441  17.096   2.322   8.884  0.2453 -0.3776  0.0951
17042W        W21442  13.961   4.383  32.565  0.0928  0.1695  0.1793
17043W        W21443  14.860   4.915   2.443 -0.1269  0.2280  0.1633
17044W        W21444   8.241   0.402  30.140 -0.1209 -0.0621  0.0046
17045W        W21445  24.159   6.713   1.271  0.0365  0.2366  0.1037
17046W        W21446  17.288   1.613   0.404  0.1625 -0.0192 -0.3619
17047W        W21447  24.496   1.773   4.571  0.1272  0.1119  0.1031
17048W        W21448   8.895   0.798  31.048  0.0984  0.0960  0.3512
17049W        W21449  12.101   1.670  28.194  0.0071 -0.0762  0.1084
17050W        W21450  20.097   5.994   2.329 -0.2166 -0.1400 -0.2625
17051W        W21451  11.208   0.487  23.582 -0.3725 -0.0911  0.1050
17052W        W21452  20.129   4.856  16.377 -0.0683  0.4682  0.1759
17053W        W21453   5.318   0.996   3.356 -0.2399 -0.1934  0.0199
17054W        W21454   4.976   5.557   3.704 -0.0993 -0.2652  0.1292
17055W        W21455   5.539   6.413   1.833  0.4060  0.1369  0.0812
17056W        W21456   0.274   1.150  24.605 -0.0537 -0.1311 -0.0066
17057W        W21457  20.442   4.765  22.042 -0.1344 -0.0109  0.0322
17058W        W21458   2.486   7.011  23.546 -0.3568  0.0396  0.0089
17059W        W21459  22.818   0.464  23.173 -0.0870 -0.2257  0.1710
17060W        W21460  20.843   0.975  23.013  0.1402 -0.0502  0.0953
17061W        W21461  14.701   2.394   4.752 -0.1016  0.3394  0.1350
17062W        W21462  11.199   1.123  10.818 -0.0035 -0.2278  0.2150
17063W        W21463  17.129   3.988   1.439 -0.2385  0.0995  0.1382
17064W        W21464  11.899   0.979  16.810 -0.0788  0.1264  0.0100
17065W        W21465   2.831   1.166   0.788  0.0782 -0.0823 -0.2082
17066W        W21466   0.459   1.785  18.392 -0.0523  0.2046 -0.1642
17067W        W21467   9.560   5.262  15.415 -0.0289 -0.0505 -0.1409
17068W        W21468   7.839   5.132  24.124  0.0056 -0.0342  0.0956
17069W        W21469  21.401   7.005   2.911 -0.2922  0.0978 -0.0783
17070W        W21470   2.510   1.032   9.386  0.1055 -0.0127 -0.3224
17071W        W21471  18.503   0.362   7.969  0.1241  0.0154 -0.2348
17072W        W21472  21.207   7.060  25.997 -0.0835  0.0277  0.0624
17073W        W21473  16.831   4.920  31.993 -0.0936  0.0148  0.0676
17074W        W21474   6.641   6.637  31.460 -0.1770 -0.0649  0.0215
17075W        W21475   6.375   1.580   0.926  0.0018 -0.1750 -0.0126
17076W        W21476  13.379   3.073  32.169 -0.2225 -0.5359  0.2326
17077W        W21477   7.775   5.289  15.895  0.0569 -0.1372 -0.3625
17078W        W21478   7.334   6.235  17.440  0.0753  0.1325  0.0340
17079W        W21479   7.004   5.303  30.571 -0.0204 -0.0716  0.2951
17080W        W21480   5.243   0.424  28.729  0.1219  0.0049 -0.2153
17081W        W21481   0.079   4.412   0.408  0.0395 -0.1136 -0.2127
17082W        W21482  20.405   7.512  22.928 -0.1501 -0.2392  0.0693
17083W        W21483  24.264   6.382  30.682  0.1053  0.3429 -0.1370
17084W        W21484   0.364   7.623  16.413  0.1944 -0.0719  0.0560
17085W        W21485  17.136   4.238  26.785  0.1684 -0.2608 -0.1043
17086W        W21486  22.372   1.135  22.787  0.1160  0.1456  0.0358
17087W        W21487  22.412   3.696  19.944 -0.1003 -0.1082 -0.0967
17088W        W21488  11.564   3.345  31.928  0.2088 -0.2724 -0.0348
17089W        W21489   7.068   5.081   7.799 -0.1004 -0.0071 -0.0791
17090W        W21490  14.639   2.322   7.992  0.1220 -0.1033 -0.1736
17091W        W21491  24.103   7.374   1.965  0.0514 -0.1328  0.0785
17092W        W21492  18.811   0.206  25.321  0.1797 -0.0219 -0.1448
17093W        W21493  20.973   6.164  17.165  0.0657 -0.0431 -0.0196
17094W        W21494  22.228   1.715   7.672 -0.3000 -0.2434 -0.0686
17095W        W21495  15.297   0.218  27.966  0.2186 -0.0070 -0.0377
17096W        W21496  13.731   2.583  10.683 -0.1700 -0.5087 -0.0883
17097W        W21497  18.212   0.695  27.620 -0.0251 -0.1059  0.0486
17098W        W21498  13.136   1.413  10.281  0.1258  0.0885  0.0424
17099W        W21499  21.495   4.310  31.828  0.3755 -0.1048 -0.0274
17100W        W21500  20.127   5.711   8.650  0.0222 -0.2881  0.2307
17101W        W21501  13.025   3.212   7.363  0.1280 -0.1601  0.0800
17102W        W21502   4.022   7.774  25.885  0.1063  0.1667 -0.1613
17103W        W21503   5.575   7.171  26.551  0.1934  0.0254  0.2227
17104W        W21504  11.741   7.637  28.444 -0.0941 -0.0069  0.0810
17105W        W21505  20.608   7.502   3.222  0.2747 -0.1185 -0.1241
17106W        W21506   7.630   7.352  16.487  0.1584  0.0883 -0.2457
17107W        W21507  13.892   1.880  13.760  0.2691 -0.1630  0.4285
17108W        W21508   9.592   2.927  13.312  0.1221  0.1754  0.1717
17109W        W21509  11.382   5.858  12.206  0.0222 -0.0298 -0.0144
17110W        W21510  19.510   1.150   1.092 -0.1776 -0.2464 -0.1772
17111W        W21511  10.914   7.689  29.402  0.0420 -0.0251  0.2614
17112W        W21512  14.982   6.561   0.382  0.1185  0.0962 -0.2076
17113W        W21513  20.269   6.444   7.499 -0.3142  0.2345 -0.0174
17114W        W21514  23.058   1.093  25.139 -0.0291  0.0457  0.2132
17115W        W21515  10.843   7.013   0.086 -0.1774 -0.2402 -0.2069
17116W        W21516  13.084   3.053  27.281 -0.2886 -0.1264 -0.0549
17117W        W21517   3.383   4.732   0.723 -0.2615  0.2824 -0.1690
17118W        W21518  19.103   1.172  15.415  0.0194  0.1516 -0.2396
17119W        W21519   1.153   2.205   1.741  0.0714  0.1181 -0.1325
17120W        W21520   1.493   3.851  31.923 -0.1930  0.2758  0.0384
17121W        W21521  16.637   3.292  24.428 -0.3743 -0.1898 -0.0043
17122W        W21522  13.306   4.856  30.970  0.1299  0.0167 -0.1089
17123W        W21523   8.261   3.933  17.544 -0.0522  0.1081  0.2114
17124W        W21524   1.690   4.360  25.678 -0.0199 -0.2761  0.0466
17125W        W21525  11.185   2.989  16.019  0.3258 -0.2386 -0.0494
17126W        W21526   2.196   6.850   5.583 -0.0043  0.4803  0.0424
17127W        W21527   0.951   1.109   9.222 -0.0102 -0.0569  0.0796
17128W        W21528   8.292   6.337  16.540  0.2467  0.1439 -0.0071
17129W        W21529  18.867   5.830   2.892 -0.0578  0.4398  0.0314
17130W        W21530   9.861   0.867   7.073 -0.2379 -0.3463 -0.1160
17131W        W21531   3.290   6.340  29.213 -0.0183 -0.0926  0.0561
17132W        W21532   5.570   4.784  16.223 -0.1468 -0.2683 -0.1385
17133W        W21533  24.256   3.540   6.569 -0.0809 -0.1557  0.0971
17134W        W21534   7.700   3.071   4.577  0.1137  0.2314 -0.0269
17135W        W21535   9.103   1.541  30.435  0.2646  0.2502 -0.1533
17136W        W21536  22.595   5.935  22.458 -0.0330  0.2385 -0.0845
17137W        W21537  23.038   2.889   9.714 -0.2560 -0.0396  0.1735
17138W        W21538  15.170   1.471   1.709  0.3404  0.0783 -0.0541
17139W        W21539  15.428   6.340   0.085  0.2091  0.3572  0.1900
17140W        W21540  21.323   3.071  20.838 -0.0400 -0.0422 -0.0187
17141W        W21541   2.102   2.647  32.336 -0.1337 -0.2024  0.1277
17142W        W21542  24.889   0.468  29.450 -0.0577  0.1798 -0.3437
17143W        W21543   1.255   0.001  18.876  0.0739 -0.0456 -0.1326
17144W        W21544  17.818   7.135  24.397  0.3981 -0.2775 -0.0322
17145W        W21545  21.374   4.904  21.499 -0.0230 -0.0356  0.0499
17146W        W21546  18.403   2.776  31.828 -0.0573  0.1914  0.2014
17147W        W21547  17.968   0.863  27.037  0.0172 -0.0461 -0.1035
17148W        W21548  24.800   2.896  19.739 -0.1832  0.2388  0.0514
17149W        W21549   3.826   6.580   1.626  0.2444 -0.1312  0.0274
17150W        W21550  11.129   6.279  31.817  0.0165  0.1981  0.1262
17151W        W21551   5.402   3.879  28.164  0.1053 -0.1868 -0.2486
17152W        W21552  11.549   6.319   6.516 -0.0436 -0.0125 -0.1483
17153W        W21553   0.463   0.472  31.524 -0.0718  0.0079 -0.0081
17154W        W21554  19.813   7.680  32.127  0.0928  0.2584  0.0073
17155W        W21555  17.367   5.099  29.150  0.1452  0.4351  0.1487
17156W        W21556  18.418   6.887   3.753  0.2394 -0.0261  0.2971
17157W        W21557  20.001   0.171  16.312 -0.1404 -0.1935 -0.1360
17158W        W21558  24.064   3.131  29.140 -0.3854 -0.3877  0.3211
17159W        W21559  12.575   5.122  16.029 -0.1110 -0.0886  0.1270
17160W        W21560  10.917   1.815  28.594  0.0350 -0.0805  0.0470
17161W        W21561  13.643   0.511  31.114  0.1391 -0.1424 -0.2097
17162W        W21562   6.125   4.723  27.710 -0.2152 -0.0773  0.1041
17163W        W21563  13.015   1.153  26.422  0.1645 -0.1869 -0.1899
17164W        W21564  17.104   5.687  19.962 -0.0510 -0.1247 -0.3094
17165W        W21565  14.660   0.796   5.927  0.4140 -0.0432  0.2477
17166W        W21566  11.580   4.056   2.531  0.0293 -0.0229  0.3897
17167W        W21567   2.886   0.115  22.076  0.0677  0.2141  0.0513
17168W        W21568  19.447   2.716  21.217  0.0201 -0.4872  0.2608
17169W        W21569   5.717   4.445  17.706  0.1964 -0.0300 -0.1580
17170W        W21570  10.966   1.873   6.637  0.1276 -0.1125  0.2698
17171W        W21571  24.289   4.876  25.210 -0.3512  0.1257 -0.0868
17172W        W21572  17.223   3.247  21.739 -0.3117  0.0022  0.0490
17173W        W21573  15.222   5.864  27.775 -0.0275 -0.0311  0.2041
17174W        W21574  24.727   6.237  32.055  0.0800  0.2265 -0.0213
17175W        W21575   2.223   3.657  32.181  0.2313  0.2210  0.2319
17176W        W21576  15.137   2.397  22.271  0.0389  0.1589 -0.2148
17177W        W21577   3.029   1.065   5.326  0.0636 -0.0965  0.0489
17178W        W21578  18.581   0.416   9.312 -0.3758  0.2471 -0.2259
17179W        W21579  14.768   4.322  21.582  0.3376 -0.0584  0.0396
17180W        W21580  24.758   2.112   2.832  0.1587 -0.2196 -0.0701
17181W        W21581   0.065   3.953  15.514 -0.0054  0.2098 -0.0696
17182W        W21582  19.894   7.047  29.459 -0.0343  0.0238 -0.0985
17183W        W21583  10.144   1.691  16.836  0.4173  0.2462  0.0288
17184W        W21584  14.862   6.038   7.903 -0.0597 -0.1121  0.0949
17185W        W21585   5.995   4.173  16.868  0.0321 -0.1465  0.1423
17186W        W21586  10.709   4.326   0.224 -0.0712 -0.1252  0.0043
17187W        W21587  10.254   3.441   8.331  0.1242 -0.1020 -0.1227
17188W        W21588  16.372   4.045   9.675  0.0800 -0.2399 -0.2797
17189W        W21589   5.366   4.847  12.396  0.1020  0.0509 -0.2133
17190W        W21590  13.045   6.435  31.412  0.1242 -0.2656 -0.0757
17191W        W21591   8.367   5.724  32.431  0.1026  0.0720 -0.0645
17192W        W21592  19.384   5.448  16.589  0.2792 -0.0855  0.3034
17193W        W21593  23.117   2.940  20.144 -0.2160 -0.2281  0.2928
17194W        W21594   2.947   1.956  26.851  0.1022  0.2426 -0.2587
17195W        W21595  14.549   6.506  31.710 -0.2061 -0.1296  0.1998
17196W        W21596  21.447   4.421   1.569  0.3838 -0.3109  0.0723
17197W        W21597   0.506   6.433  23.460 -0.3128 -0.2723  0.2262
17198W        W21598  18.642   2.034   3.124  0.4251 -0.2994 -0.3182
17199W        W21599  20.883   6.773   4.863 -0.1838  0.0391 -0.1243
17200W        W21600  23.961   6.073  28.901  0.0329  0.2051 -0.2674
17201W        W21601  19.107   5.103  26.298 -0.1610 -0.1267  0.2246
17202W        W21602   6.846   4.991   8.759  0.1957 -0.1369 -0.0143
17203W        W21603  15.769   1.643   4.743 -0.1680 -0.1928 -0.1623
17204W        W21604  14.058   5.264   9.426 -0.0199 -0.2734  0.1684
17205W        W21605   7.189   4.174   3.615  0.0923  0.3093  0.2601
17206W        W21606  14.380   5.403   8.716 -0.0764 -0.0006 -0.2601
17207W        W21607  17.317   1.674  22.563  0.5840 -0.2389  0.3522
17208W        W21608  21.755   7.486  21.104  0.0882  0.0816 -0.0759
17209W        W21609   0.427   5.063  20.058  0.0236 -0.0604 -0.0865
17210W        W21610   2.415   4.182  23.067 -0.2213  0.2373 -0.3233
17211W        W21611  13.086   5.511  27.767  0.0253 -0.1947 -0.0364
17212W        W21612  10.343   4.759   2.016  0.0826 -0.0346  0.1517
17213W        W21613  20.745   0.746  29.727 -0.1568 -0.2855  0.2506
17214W        W21614   6.033   0.185  31.631  0.0700  0.1608 -0.0875
17215W        W21615  16.354   7.256   1.117  0.4017 -0.2532 -0.1177
17216W        W21616  10.792   5.693   6.961  0.1243 -0.0056  0.1422
17217W        W21617  13.135   6.682   3.214  0.0901 -0.0776 -0.1946
17218W        W21618  12.723   0.536  27.313  0.1966 -0.1001  0.0231
17219W        W21619  13.167   3.777  15.015 -0.1963 -0.0738  0.2656
17220W        W21620   6.394   0.097   5.753 -0.0624  0.1472 -0.1520
17221W        W21621  16.100   4.797  20.062  0.1833 -0.0135 -0.1075
17222W        W21622   2.546   3.376   5.608  0.0521 -0.0080  0.3387
17223W        W21623  14.666   1.427  23.214 -0.3111 -0.3215 -0.1127
17224W        W21624  24.377   3.709  23.137  0.0081  0.5980 -0.2952
17225W        W21625   8.152   6.075  27.823 -0.0601 -0.0299 -0.5173
17226W        W21626  15.464   5.766   2.377 -0.0688  0.0662 -0.1670
17227W        W21627   3.390   3.430  25.973 -0.2331  0.1650 -0.2085
17228W        W21628  19.313   0.792   6.134  0.1045 -0.2825  0.0404
17229W        W21629  10.212   6.971  31.115 -0.0408 -0.1266 -0.0319
17230W        W21630  10.198   6.723   5.665  0.1733 -0.0790  0.2212
17231W        W21631  19.038   1.354  26.549  0.1540 -0.0182 -0.1758
17232W        W21632   9.555   0.351  17.020 -0.0175 -0.2709  0.1057
17233W        W21633   4.341   5.464  31.428 -0.2100  0.1911 -0.1438
17234W        W21634  12.585   1.826  24.201 -0.1453 -0.0144 -0.2732
17235W        W21635  16.432   4.667  27.070 -0.3671  0.0147 -0.1700
17236W        W21636   5.096   4.297   3.444  0.5403 -0.2138  0.0283
17237W        W21637   7.263   4.917   6.600 -0.0913  0.1559 -0.2756
17238W        W21638  19.890   0.786  28.088  0.1132  0.1492  0.0182
17239W        W21639  17.512   0.919  31.542 -0.1092 -0.3284  0.2401
17240W        W21640  23.826   0.083   0.509  0.0431 -0.0845  0.1661
17241W        W21641  20.433   6.822  20.459  0.0353 -0.2031 -0.2172
17242W        W21642   9.094   7.299  15.520  0.2209  0.1835  0.0058
17243W        W21643  20.131   3.221  28.287 -0.1156 -0.1190  0.0776
17244W        W21644   1.622   3.934  29.692 -0.0685 -0.0350  0.2355
17245W        W21645  24.525   5.863  26.906  0.0828 -0.2795 -0.2558
17246W        W21646   2.285   1.133  29.724 -0.0971  0.0094 -0.0768
17247W        W21647   5.416   5.858  23.055  0.1928 -0.1731 -0.1367
17248W        W21648  20.436   5.699   3.165  0.2162  0.2376 -0.0685
17249W        W21649  22.972   6.747   7.227 -0.2717  0.0426 -0.0111
17250W        W21650   2.865   0.473   1.828 -0.0301 -0.1741  0.0711
17251W        W21651  11.504   7.060  11.237  0.0723 -0.2862 -0.0286
17252W        W21652  14.312   4.072  29.158 -0.2065 -0.1022 -0.1054
17253W        W21653   5.596   0.291  24.332 -0.2096 -0.0545 -0.0600
17254W        W21654  15.580   4.241  28.511  0.0405  0.0460 -0.1983
17255W        W21655  16.189   4.981  20.618 -0.0068  0.0755  0.0407
17256W        W21656   5.767   5.840   5.176 -0.1365  0.0023  0.0654
17257W        W21657  11.400   5.751  26.427 -0.1668 -0.0187 -0.3789
17258W        W21658   3.491   3.279  25.083 -0.0388 -0.0875  0.1251
17259W        W21659   9.064   2.403  13.950  0.0475 -0.1964 -0.2692
17260W        W21660  21.120   4.646  26.619  0.1435  0.2351  0.2549
17261W        W21661   4.183   4.883  21.055  0.0727 -0.1421 -0.2125
17262W        W21662   4.781   7.615  27.340 -0.0956 -0.0085 -0.0909
17263W        W21663  14.528   4.945   8.555 -0.2900  0.1152 -0.3630
17264W        W21664  11.804   0.544   8.488 -0.3652 -0.2452  0.0013
17265W        W21665   5.300   4.932  23.482  0.0362  0.0265 -0.2516
17266W        W21666   7.479   5.058   2.462  0.0870  0.1109 -0.1561
17267W        W21667  13.776   5.546   1.302  0.0877 -0.0590 -0.0420
17268W        W21668   6.077   2.874   5.220  0.1426 -0.1507  0.1752
17269W        W21669   2.869   7.489   2.036  0.0595 -0.2729 -0.1397
17270W        W21670   2.034   4.046  32.383  0.0560  0.0781 -0.0287
17271W        W21671   6.422   5.698   9.509  0.2174 -0.0463  0.0915
17272W        W21672  21.269   4.643   4.118  0.0928 -0.1547 -0.0702
17273W        W21673  19.862   6.276  30.689  0.0006 -0.3134 -0.0935
17274W        W21674  14.258   3.226  10.855 -0.0425 -0.0173 -0.2683
17275W        W21675  20.563   5.361  32.004  0.1193  0.3784  0.2780
17276W        W21676   1.057   6.767  11.278 -0.0027  0.0133  0.0259
17277W        W21677  16.768   6.741  30.851  0.0516  0.2349 -0.0467
17278W        W21678  12.538   0.467  12.168  0.0349  0.0930 -0.1738
17279W        W21679  19.642   5.719  18.853  0.0258  0.0970 -0.0047
17280W        W21680  15.059   2.470  12.687  0.0234 -0.0343  0.2367
17281W        W21681  15.706   3.458  26.683 -0.2574 -0.1647  0.1593
17282W        W21682  12.211   4.717  31.227  0.0248  0.1080 -0.1490
17283W        W21683  18.521   6.261   7.146 -0.0565  0.1463  0.0883
17284W        W21684  16.067   3.862  27.494  0.1017  0.1693  0.0602
17285W        W21685  23.293   4.033  28.357 -0.0607 -0.2401 -0.1800
17286W        W21686  10.904   4.136   9.056 -0.0089  0.0871  0.1198
17287W        W21687  11.457   6.811  15.619 -0.0483  0.1686 -0.0733
17288W        W21688  22.160   6.274   0.062  0.1405 -0.0793 -0.0014
17289W        W21689  13.338   6.507   7.045  0.1597  0.1183 -0.1530
17290W        W21690   3.865   5.581   2.803  0.2435 -0.0456  0.4909
17291W        W21691   6.380   6.639  11.430 -0.0033  0.0147 -0.0273
17292W        W21692   2.330   1.419  20.863 -0.0114  0.2313  0.0390
17293W        W21693   7.923   4.963  27.102 -0.1112 -0.0647 -0.1234
17294W        W21694  21.564   1.675  17.740 -0.1765 -0.3667 -0.1583
17295W        W21695  10.524   1.727   1.054 -0.2935 -0.2454  0.1042
17296W        W21696  17.439   2.496  19.975 -0.1159 -0.4284 -0.0256
17297W        W21697  15.090   4.855   6.864 -0.0531 -0.0678  0.0297
17298W        W21698  10.038   4.971   4.570  0.1063  0.2572 -0.1504
17299W        W21699  11.647   7.190  31.538 -0.3687  0.2506  0.0102
17300W        W21700   3.623   6.168  12.095  0.4167 -0.1842 -0.1233
17301W        W21701  15.905   0.126  12.337 -0.0497 -0.1946  0.3005
17302W        W21702  21.005   2.666   2.535 -0.2409 -0.2625 -0.1416
17303W        W21703   7.954   5.891  31.908  0.3515 -0.2125 -0.1893
17304W        W21704  23.377   5.736   9.027  0.0988  0.3968  0.2180
17305W        W21705  22.782   3.356  28.567 -0.1855  0.0716 -0.2538
17306W        W21706  23.158   4.512  17.918  0.3853  0.1868  0.0675
17307W        W21707   5.205   7.623  32.461 -0.1298 -0.0603  0.0959
17308W        W21708  18.393   0.530  24.671  0.0545 -0.1121  0.3362
17309W        W21709  23.766   1.739   0.705 -0.1088 -0.2442  0.1751
17310W        W21710  17.708   6.508   8.805  0.0068 -0.1937  0.1967
17311W        W21711  11.584   1.080   1.512  0.1093  0.0465 -0.0502
17312W        W21712  23.760   2.508  31.732 -0.2191  0.1514 -0.1367
17313W        W21713   2.919   7.606  26.574  0.2818 -0.0079  0.0299
17314W        W21714   9.374   2.055   1.344 -0.3729 -0.0218 -0.0196
17315W        W21715  11.566   6.834  15.010 -0.3370 -0.2610  0.2564
17316W        W21716   8.713   3.548   7.479  0.1737  0.0536 -0.0450
17317W        W21717  18.845   5.994  26.026  0.2169  0.0834  0.1607
17318W        W21718  12.118   0.406  14.327  0.0805  0.0814 -0.0683
17319W        W21719  19.148   3.372   1.490  0.1240  0.0051  0.0556
17320W        W21720  16.206   6.501  25.236  0.3398  0.1108  0.0578
17321W        W21721  17.246   2.610  18.853 -0.1384  0.1955 -0.6067
17322W        W21722  11.615   2.748  23.642 -0.0013  0.0766 -0.0922
17323W        W21723  17.848   5.953  31.812  0.0532  0.2362 -0.0057
17324W        W21724   4.902   7.188  12.180 -0.0473 -0.0423 -0.3854
17325W        W21725   3.812   6.117   1.866 -0.1010 -0.5624 -0.0558
17326W        W21726  18.868   7.317  17.818 -0.1921  0.1870  0.0862
17327W        W21727  13.154   5.220  14.507 -0.0960  0.0323 -0.2343
17328W        W21728  15.181   6.384  21.509  0.0572 -0.1125 -0.0239
17329W        W21729  20.498   0.413  24.715  0.1618  0.3032 -0.2983
17330W        W21730  22.953   7.463   2.599 -0.0090  0.0586  0.0676
17331W        W21731  23.711   7.386  27.730  0.1261 -0.1883  0.0919
17332W        W21732  10.616   7.188   3.608  0.0697  0.4244  0.1251
17333W        W21733  14.153   4.522   8.696 -0.3629  0.1120  0.1695
17334W        W21734  12.033   3.660   8.414  0.0583 -0.1579  0.0336
17335W        W21735  19.734   7.660   7.647  0.1021  0.2840  0.3416
17336W        W21736  23.019   6.672   2.320  0.1802 -0.0086 -0.2383
17337W        W21737  22.256   0.535  29.160  0.1165  0.2456  0.1008
17338W        W21738  15.782   6.961   4.290  0.0629 -0.2964 -0.2169
17339W        W21739  11.581   1.002  17.236  0.3735  0.0931  0.0334
17340W        W21740  10.188   7.676  12.696  0.0788  0.1476 -0.0606
17341W        W21741  19.921   0.878  31.413 -0.0992  0.2319  0.3930
17342W        W21742  12.845   3.954   0.687  0.0713  0.0564  0.1681
17343W        W21743   6.387   0.577  11.500 -0.1044  0.1059 -0.0050
17344W        W21744   3.955   1.993  27.575  0.0980 -0.0031 -0.3889
17345W        W21745   6.900   5.222  24.244  0.1406 -0.1412  0.1909
17346W        W21746  15.615   5.399  30.367  0.1243  0.2008  0.0361
17347W        W21747  23.115   4.969  29.647 -0.4823  0.0761  0.0227
17348W        W21748  13.240   2.406  29.703 -0.3259  0.2655  0.3347
17349W        W21749  21.793   7.437  31.855 -0.1216  0.0634  0.0787
17350W        W21750  20.495   7.425  28.691 -0.1208  0.1309 -0.1013
17351W        W21751  16.929   4.607  27.465 -0.1322  0.2082  0.0402
17352W        W21752   2.918   5.041   7.186  0.2542 -0.1226 -0.2206
17353W        W21753  15.712   6.477  32.328 -0.5387 -0.1323  0.3163
17354W        W21754  13.733   3.601   1.066 -0.0779  0.0077 -0.1116
17355W        W21755   1.919   5.956  10.691 -0.0688 -0.0767 -0.0737
17356W        W21756  13.068   4.252   5.371  0.1009 -0.2427  0.0623
17357W        W21757  19.562   6.140  31.033 -0.0167 -0.0586  0.2369
17358W        W21758  16.721   1.069  31.579  0.1812  0.0904 -0.1265
17359W        W21759  22.730   0.940   2.685 -0.1218  0.1539  0.0982
17360W        W21760  11.971   1.864   8.727  0.3244 -0.1774 -0.1938
17361W        W21761  14.281   2.342  32.266  0.1263  0.0944  0.0789
17362W        W21762  20.482   2.115   0.452 -0.0060  0.2063  0.0032
17363W        W21763   7.998   0.060   5.330  0.1367  0.0709 -0.2593
17364W        W21764  19.360   2.049  30.778  0.1784 -0.0128 -0.2681
17365W        W21765  11.581   2.142  29.639 -0.0767 -0.0504  0.0797
17366W        W21766   8.963   2.435  29.664 -0.0629 -0.2148 -0.0206
17367W        W21767  15.175   6.714  28.002  0.1320 -0.1022 -0.0232
17368W        W21768  15.017   1.311  29.195 -0.1819  0.2761  0.0780
17369W        W21769   6.252   1.142  29.709 -0.0608 -0.1480 -0.1973
17370W        W21770   5.120   0.071   3.613  0.0801 -0.0273  0.1937
17371W        W21771  20.682   3.464   6.791  0.2685  0.0470 -0.5482
17372W        W21772   4.674   0.959  16.883  0.0267 -0.2118 -0.1078
17373W        W21773   8.765   2.070  16.158  0.0429  0.1873 -0.0661
17374W        W21774  23.070   1.467   8.687  0.0054 -0.0872 -0.0010
17375W        W21775   4.991   5.881  31.902  0.2012  0.0194 -0.1939
17376W        W21776  11.490   5.910  17.433 -0.0599  0.0078 -0.2843
17377W        W21777  10.950   7.393  24.675  0.2220 -0.3767  0.1203
17378W        W21778  24.966   3.396  22.409  0.0962 -0.3039 -0.1635
17379W        W21779  20.537   1.630  29.469 -0.2263  0.1690 -0.1340
17380W        W21780   6.529   7.198  16.177 -0.1940  0.2031  0.2290
17381W        W21781   4.184   5.945  26.989  0.1730  0.0000 -0.0807
17382W        W21782  24.541   0.557  20.112  0.1664 -0.2231 -0.0001
17383W        W21783   9.534   3.269   9.666  0.0628 -0.0645  0.0221
17384W        W21784   0.239   7.193  18.180 -0.0196 -0.2277  0.1381
17385W        W21785  13.649   6.180  11.792 -0.3001  0.2905  0.0556
17386W        W21786  13.221   1.201  22.235  0.1072 -0.0659  0.2769
17387W        W21787  16.328   4.006  29.799  0.0977 -0.0455 -0.1050
17388W        W21788   5.304   3.341   2.365 -0.0426 -0.0412 -0.0812
17389W        W21789   3.988   5.958  25.928  0.0290 -0.1226  0.1235
17390W        W21790  14.355   7.746  27.583  0.1509 -0.2503  0.1407
17391W        W21791  21.598   0.245  20.340 -0.0650  0.1402 -0.2886
17392W        W21792   4.021   5.553  27.455  0.2503 -0.1130 -0.0311
17393W        W21793   7.747   0.480  18.445 -0.1361  0.3547 -0.2055
17394W        W21794   0.318   2.553  28.528  0.2039  0.1419  0.1901
17395W        W21795   5.550   6.173   9.798 -0.1600 -0.1204  0.1175
17396W        W21796  17.283   2.889  17.577 -0.0884  0.2381  0.4712
17397W        W21797   2.224   7.225  24.837  0.1537 -0.1071  0.1195
17398W        W21798  16.800   3.873  27.546  0.0438 -0.3584  0.1679
17399W        W21799   8.930   6.307   6.171 -0.1494  0.2064  0.0925
17400W        W21800   6.800   0.275   2.248  0.1306  0.2635 -0.0774
17401W        W21801  12.752   2.369  21.640  0.0839 -0.1128 -0.0838
17402W        W21802  23.838   6.770  20.533 -0.0514 -0.1910  0.1795
17403W        W21803  13.406   1.621  14.819 -0.0395 -0.0247 -0.1683
17404W        W21804  21.232   6.284  28.560 -0.2048 -0.1662  0.0354
17405W        W21805  16.122   3.931  19.896 -0.1377  0.0260  0.1206
17406W        W21806   7.855   4.946   8.735 -0.0013  0.0952 -0.0072
17407W        W21807  19.909   3.232  30.361  0.1337 -0.0327  0.1549
17408W        W21808   9.918   1.881  31.241  0.0690 -0.0997 -0.1357
17409W        W21809  19.846   7.706   4.402 -0.1483  0.1493 -0.0109
17410W        W21810  12.803   3.936   8.030  0.0209  0.1826  0.1426
17411W        W21811  20.473   6.550  25.796  0.1438 -0.0435 -0.3000
17412W        W21812  10.419   4.776  32.532  0.2637  0.0379 -0.1583
17413W        W21813   2.249   0.512   1.265  0.2609 -0.1541 -0.1168
17414W        W21814   2.461   1.087  32.056  0.1882 -0.1007  0.0226
17415W        W21815  20.163   0.100  26.228  0.2660  0.0815  0.0809
17416W        W21816  18.887   4.470   0.782  0.0133 -0.1364 -0.1643
17417W        W21817  15.148   4.611  25.656 -0.0962  0.1694  0.0905
17418W        W21818  15.493   5.621   4.270 -0.2661 -0.1994  0.0428
17419W        W21819   9.057   3.942   0.910 -0.2403 -0.1519  0.1033
17420W        W21820   4.165   7.559   2.744 -0.4608 -0.0580  0.0260
17421W        W21821  11.537   1.101  14.592 -0.1820 -0.3789  0.5236
17422W        W21822  20.338   1.589   0.587 -0.0423  0.3807  0.2130
17423W        W21823   5.222   5.157   5.559 -0.1696  0.1450 -0.1213
17424W        W21824   6.839   1.847   4.641 -0.1546  0.0385  0.0911
17425W        W21825   1.608   3.515  22.799 -0.0175  0.1097  0.0652
17426W        W21826  20.106   2.190   0.777  0.0621  0.0051 -0.1481
17427W        W21827  17.996   6.265  19.868  0.1573 -0.1585 -0.2513
17428W        W21828  23.399   3.500   4.160  0.0486 -0.2103  0.1274
17429W        W21829  17.444   3.404  26.594  0.1885  0.1710  0.0649
17430W        W21830  13.384   7.617  25.987  0.1615  0.1769 -0.0428
17431W        W21831  19.069   4.761   6.997 -0.0759  0.0292 -0.2084
17432W        W21832   2.131   4.308   2.309  0.0753 -0.3507 -0.1681
17433W        W21833  21.540   5.672  32.134 -0.2068 -0.2253 -0.0828
17434W        W21834  18.493   0.897   1.571 -0.0605 -0.2383 -0.0689
17435W        W21835  11.487   4.876   2.892 -0.0101  0.1071 -0.1310
17436W        W21836  13.891   2.223  32.603  0.4488 -0.3429  0.2469
17437W        W21837  12.793   4.067  13.274 -0.0567  0.2702  0.0913
17438W        W21838  22.749   0.742   3.690  0.0082  0.1194  0.0265
17439W        W21839  23.151   3.438  16.301  0.0235 -0.0443  0.0959
17440W        W21840   9.561   7.183  13.726 -0.0731  0.1194 -0.1743
17441W        W21841  23.667   2.189   7.379 -0.0738  0.1958 -0.2673
17442W        W21842   7.336   2.361  10.824  0.0052 -0.1141  0.2721
17443W        W21843   5.433   6.937  32.682  0.0033  0.0515  0.1353
17444W        W21844   5.628   1.467  22.267 -0.0827 -0.0483 -0.0084
17445W        W21845  23.178   3.000  21.273  0.1729  0.3442 -0.2197
17446W        W21846   9.789   2.158   8.938  0.0943  0.1144  0.2221
17447W        W21847   2.050   2.889   3.613 -0.1043 -0.1614 -0.3383
17448W        W21848   7.557   2.736  14.942 -0.0438  0.3619 -0.0114
17449W        W21849  11.911   6.197   3.602 -0.3425 -0.0658  0.0213
17450W        W21850   5.210   3.832   8.110  0.1308 -0.0111 -0.1500
17451W        W21851   9.828   7.765  25.123  0.4824 -0.0035  0.1530
17452W        W21852  24.343   1.839  16.237  0.0912 -0.0499  0.3071
17453W        W21853  24.237   2.809  19.263 -0.2123 -0.0460  0.0270
17454W        W21854   2.678   5.868  32.427 -0.2526  0.0921 -0.0815
17455W        W21855  23.321   4.870  20.110 -0.4361 -0.1714 -0.2305
17456W        W21856   5.467   3.874  31.846 -0.2053 -0.0184  0.0248
17457W        W21857   3.335   0.883  26.220  0.1146  0.2569 -0.0273
17458W        W21858  17.805   4.318   8.553 -0.1483  0.0081 -0.3096
17459W        W21859  17.473   1.557   4.586 -0.2923 -0.1028  0.1394
17460W        W21860  22.082   6.368  19.715  0.0294  0.0689  0.0475
17461W        W21861  13.210   5.647   3.292 -0.1687  0.0953 -0.2152
17462W        W21862  16.779   7.245  21.837 -0.1927  0.0348 -0.4892
17463W        W21863  23.026   3.046   7.324 -0.0497  0.0145  0.1645
17464W        W21864  16.191   6.250  31.160  0.0482 -0.1218  0.2101
17465W        W21865   1.196   6.373   6.485  0.0928  0.0586 -0.0135
17466W        W21866   4.520   0.563  29.777  0.1067  0.1628  0.2341
17467W        W21867  22.567   3.947  24.627  0.1856  0.4262  0.1183
17468W        W21868   8.927   2.638  22.565  0.0946  0.0928 -0.0784
17469W        W21869  18.652   1.382  24.346  0.0461 -0.0811  0.2497
17470W        W21870  22.649   1.332  18.311 -0.3130 -0.2994 -0.1689
17471W        W21871   0.845   7.238   4.240 -0.0487  0.0486 -0.0714
17472W        W21872  11.650   4.769   7.958  0.0397  0.1663 -0.3338
17473W        W21873  21.242   1.471  16.321 -0.0731 -0.2113 -0.3722
17474W        W21874  15.272   1.386  20.087 -0.0019  0.2261 -0.1767
17475W        W21875  19.802   1.291  14.731  0.0956 -0.4084 -0.2276
17476W        W21876  23.807   6.545   7.273 -0.1528 -0.1818  0.0729
17477W        W21877  20.243   5.064  31.405  0.0661 -0.0416 -0.0638
17478W        W21878  14.322   5.903   3.143 -0.2456  0.0210 -0.3156
17479W        W21879  18.282   2.171  31.493 -0.1317  0.0369 -0.1650
17480W        W21880  12.588   4.282  10.881  0.0231  0.0815 -0.0663
17481W        W21881  16.608   3.786  32.361  0.3113 -0.3143 -0.1920
17482W        W21882  24.813   0.896  27.677  0.1145 -0.1236 -0.0557
17483W        W21883  18.783   2.757  24.735  0.0654 -0.4004 -0.1281
17484W        W21884   3.006   7.118  27.949 -0.0722 -0.3098 -0.1904
17485W        W21885  19.665   5.139  26.993  0.1316  0.0808  0.2279
17486W        W21886  22.654   7.489   0.031 -0.2076 -0.1544 -0.1588
17487W        W21887   2.154   6.726  23.164  0.0084  0.2539 -0.0265
17488W        W21888   5.466   5.949  14.366 -0.2221 -0.1529 -0.0189
17489W        W21889  19.889   4.005   5.652 -0.2244 -0.3393 -0.1322
17490W        W21890   4.603   5.863  13.049 -0.1111  0.2831 -0.1942
17491W        W21891  24.469   5.681   0.603  0.3951 -0.0435 -0.0297
17492W        W21892  23.137   1.161  18.030  0.0821  0.1320 -0.0977
17493W        W21893  21.045   5.460  26.030  0.0768  0.0301 -0.0518
17494W        W21894  17.322   0.672   1.072  0.2433  0.0649  0.1239
17495W        W21895  15.162   0.745   8.399 -0.1323 -0.1429  0.0064
17496W        W21896   1.521   2.890  30.899  0.2969 -0.1340 -0.0093
17497W        W21897   2.551   5.224  24.270 -0.0862 -0.0254 -0.2338
17498W        W21898   2.908   2.841  21.087  0.3246  0.0310 -0.1510
17499W        W21899  22.675   4.351  15.013 -0.1368 -0.0963 -0.0612
17500W        W21900   4.333   1.131   0.932  0.2293 -0.2143 -0.1443
17501W        W21901   7.328   6.744  11.067  0.2333 -0.3019 -0.2476
17502W        W21902   5.828   6.959   1.316 -0.2737 -0.2366 -0.2118
17503W        W21903  19.723   1.567   0.109 -0.2969 -0.1269 -0.0242
17504W        W21904   6.515   1.753   5.688 -0.0262  0.0819  0.1697
17505W        W21905   3.806   0.375  21.827  0.0436 -0.0199  0.3338
17506W        W21906  20.303   4.139  16.022 -0.0645 -0.2814  0.0154
17507W        W21907   4.502   3.980  23.902 -0.4371  0.0933 -0.2777
17508W        W21908   2.237   7.161  26.350  0.0899 -0.1003  0.1608
17509W        W21909  17.788   3.564  27.147 -0.1344 -0.1047 -0.2117
17510W        W21910  15.965   0.191  26.041  0.3437 -0.0124  0.1469
17511W        W21911  17.540   0.911  29.410  0.1137  0.2538 -0.2531
17512W        W21912  12.725   0.230  31.952  0.0029  0.1808 -0.0546
17513W        W21913  20.859   4.460   2.179  0.1074 -0.1455  0.3158
17514W        W21914   6.482   1.731  31.262 -0.1756 -0.0225 -0.2271
17515W        W21915   0.041   3.777   3.463  0.1267 -0.2735  0.0954
17516W        W21916   0.449   2.223  30.884  0.2316 -0.0926  0.0673
17517W        W21917   0.099   2.643  16.804  0.0855 -0.1974  0.0624
17518W        W21918  12.792   4.825  23.424 -0.0679  0.0708  0.1038
17519W        W21919  12.087   7.375   2.849 -0.0574 -0.3082 -0.0117
17520W        W21920  20.464   6.998  29.589  0.0795  0.3360  0.0105
17521W        W21921   8.675   4.562   7.658 -0.2915 -0.2482  0.3761
17522W        W21922   1.388   0.157  26.071  0.0601  0.0660 -0.0541
17523W        W21923   0.252   4.762  23.041  0.0059  0.1903  0.2873
17524W        W21924   8.771   6.231   8.912  0.2016  0.1927  0.2531
17525W        W21925   5.036   4.376  15.445  0.5681 -0.2826 -0.1195
17526W        W21926   7.305   7.495   6.617  0.0716  0.2184  0.2796
17527W        W21927   2.284   3.113  24.504 -0.1908 -0.2612  0.0143
17528W        W21928  24.742   1.581  28.076  0.1672 -0.3404 -0.2084
17529W        W21929  13.358   6.315   5.786 -0.2049 -0.2010  0.1052
17530W        W21930   2.922   1.558  26.545 -0.2363 -0.0289 -0.1005
17531W        W21931   3.742   1.715   1.603 -0.1142 -0.2470 -0.1132
17532W        W21932  23.984   3.375  20.918 -0.1159 -0.1247 -0.1100
17533W        W21933   0.184   7.106   8.289  0.0881 -0.0282  0.0593
17534W        W21934  13.335   5.448   1.566  0.0943 -0.0618  0.0290
17535W        W21935  21.797   4.910  26.017  0.1869 -0.1879 -0.1837
17536W        W21936  21.289   0.038  32.135  0.2062  0.0882  0.2156
17537W        W21937  13.390   1.554  27.930 -0.1908 -0.2761  0.2063
17538W        W21938  24.635   0.877   2.505 -0.1854 -0.0555  0.2066
17539W        W21939  16.824   7.556  22.744 -0.0488 -0.1192 -0.2571
17540W        W21940   0.601   1.686  26.520  0.0775  0.3678  0.0844
17541W        W21941   4.709   4.748  14.549 -0.2833 -0.2186 -0.1233
17542W        W21942  13.419   4.232  29.383  0.2620 -0.1457  0.3536
17543W        W21943  10.809   0.842  31.164  0.1748  0.2408  0.1067
17544W        W21944  10.893   4.604   5.277 -0.2747  0.0264 -0.1562
17545W        W21945   2.472   3.423   1.255  0.0281  0.1526  0.0493
17546W        W21946  18.859   4.313   8.796  0.0413 -0.0099 -0.1560
17547W        W21947   9.392   4.554  28.076 -0.3012 -0.3405 -0.1670
17548W        W21948  10.581   0.095  12.880  0.3511 -0.0697 -0.0907
17549W        W21949  18.140   4.768   7.259 -0.1704  0.0321  0.2652
17550W        W21950   1.540   3.809   1.935  0.0815 -0.1652  0.0280
17551W        W21951   1.601   0.736  20.258 -0.2637  0.3123  0.4942
17552W        W21952   6.588   2.686  14.767 -0.1778  0.0284 -0.4174
17553W        W21953  12.773   1.415   2.470  0.0266  0.0560 -0.4605
17554W        W21954  17.663   3.422  20.532  0.0543 -0.1790 -0.2499
17555W        W21955   0.057   6.481  18.719  0.0499 -0.0154  0.0423
17556W        W21956   2.976   5.118  12.346  0.0092 -0.0013  0.1847
17557W        W21957  17.576   6.870  26.163  0.0213  0.0829 -0.0686
17558W        W21958  16.125   5.260   7.875  0.1025  0.1450 -0.1059
17559W        W21959   1.389   4.870  31.850 -0.1757 -0.2919 -0.2030
17560W        W21960  13.692   5.307  10.670 -0.0600  0.0951 -0.2076
17561W        W21961  16.824   3.731  22.993 -0.1804 -0.0599 -0.0866
17562W        W21962  15.460   2.548   9.307 -0.0772 -0.0493  0.0489
17563W        W21963   2.237   7.081  23.987  0.1523 -0.0761 -0.0315
17564W        W21964   6.455   4.584   6.579  0.1566 -0.0114 -0.2152
17565W        W21965   4.797   2.725   1.073  0.1695  0.1221  0.0857
17566W        W21966  11.883   1.686  22.951 -0.1578 -0.1663 -0.0401
17567W        W21967   4.322   4.681  30.752  0.0775  0.3664  0.1139
17568W        W21968  11.090   4.349   9.852 -0.0794 -0.0316  0.3982
17569W        W21969   5.835   0.279  14.010  0.2624 -0.2266  0.0235
17570W        W21970   2.738   4.622  12.369 -0.0068  0.0757 -0.0014
17571W        W21971  18.320   0.980   5.349  0.0295  0.2083  0.1604
17572W        W21972   2.604   3.586   0.270 -0.0146 -0.0985 -0.0192
17573W        W21973   6.278   7.766  13.332  0.1624  0.0499  0.1376
17574W        W21974   5.810   3.246   5.500  0.0595 -0.0744 -0.0019
17575W        W21975  20.332   4.412  27.246 -0.0893 -0.0402  0.1719
17576W        W21976   9.450   1.367  23.536  0.1553 -0.1842 -0.0998
17577W        W21977  11.360   1.925   9.963 -0.2035  0.3377  0.0920
17578W        W21978  14.996   6.395  31.892  0.2017  0.1024  0.0894
17579W        W21979   0.736   1.649  29.839  0.0135  0.0596 -0.0738
17580W        W21980   6.737   4.307  29.054  0.1143  0.1505  0.1254
17581W        W21981  10.295   1.011  28.309  0.3706  0.1538  0.1182
17582W        W21982  17.869   1.487  23.065 -0.0883 -0.2518  0.2895
17583W        W21983  20.206   6.601   8.818 -0.2880  0.1955 -0.1844
17584W        W21984  20.488   5.592  21.461  0.3314  0.1082  0.0597
17585W        W21985  22.863   6.884   6.710  0.0365 -0.0922 -0.0088
17586W        W21986   1.114   7.454   0.980  0.0437  0.1508 -0.0327
17587W        W21987  13.695   0.690  27.464 -0.1439  0.0121 -0.0171
17588W        W21988   8.646   1.773   8.928  0.0892 -0.0555  0.1839
17589W        W21989  13.859   0.760   4.211  0.0584 -0.1762 -0.0527
17590W        W21990  13.329   3.862   1.877 -0.1337 -0.6006 -0.0532
17591W        W21991   8.847   1.506  17.160 -0.0982  0.6022 -0.1052
17592W        W21992   2.581   1.463   3.992 -0.1022  0.0505 -0.0047
17593W        W21993  11.558   6.246   1.906  0.0440 -0.2187  0.1121
17594W        W21994   4.970   3.805   5.128  0.1759  0.0236 -0.0694
17595W        W21995  17.869   6.924  20.610  0.2061  0.1429  0.0879
17596W        W21996  12.714   4.308   5.730 -0.0765  0.1473 -0.0324
17597W        W21997  10.631   5.320   3.534 -0.1523  0.0354  0.0639
17598W        W21998  15.670   4.737  27.157 -0.0015 -0.2168  0.0749
17599W        W21999  13.052   7.067  13.357  0.0660 -0.2343  0.0869
17600W        W22000  19.712   4.376  29.659  0.0339 -0.1871  0.0567
17601W        W22001   5.332   0.076  29.128 -0.0263 -0.3818  0.0824
17602W        W22002  19.693   6.767  27.957  0.0278 -0.1059 -0.0861
17603W        W22003   5.439   4.771   3.258 -0.0893  0.1868 -0.1716
17604W        W22004  24.767   6.051  29.112  0.0495 -0.0613 -0.1127
17605W        W22005   1.523   1.268  18.505  0.1037  0.1228  0.1412
17606W        W22006  20.551   2.445  31.252 -0.3923  0.1778 -0.1512
17607W        W22007   4.712   0.181  31.715  0.0153 -0.2185  0.0978
17608W        W22008  22.812   5.851  23.411 -0.2954  0.2119 -0.0121
17609W        W22009  11.768   4.499   6.573 -0.1583  0.0379  0.2774
17610W        W22010  20.779   3.329  31.329  0.2122 -0.2493  0.2826
17611W        W22011  14.316   0.739  21.463  0.0349 -0.1061  0.1838
17612W        W22012  15.629   4.231   2.292  0.0006 -0.0732  0.0630
17613W        W22013  19.792   5.530  22.313 -0.2383 -0.1304  0.0342
17614W        W22014  15.269   3.653  23.178  0.0532  0.4357 -0.2358
17615W        W22015  17.179   4.095   2.902  0.1302 -0.3594 -0.1651
17616W        W22016  23.257   4.083  27.631 -0.1689  0.0834  0.0665
17617W        W22017  20.856   5.644   6.551  0.0894  0.1048  0.1080
17618W        W22018  10.567   2.719  14.257  0.1467  0.0708  0.1538
17619W        W22019  13.489   4.201  26.039  0.1187 -0.2996  0.0229
17620W        W22020  14.946   6.575  29.983  0.0094  0.0178 -0.0321
17621W        W22021  22.903   1.884  18.918  0.0677  0.0154  0.2909
17622W        W22022  18.535   6.935   9.138 -0.1604  0.2177 -0.0454
17623W        W22023  20.128   3.319  15.520  0.1605 -0.3890  0.0354
17624W        W22024  17.519   2.350   2.085  0.2191  0.0257 -0.0455
17625W        W22025  16.287   3.601  28.224  0.3302 -0.1065 -0.2438
17626W        W22026  24.598   5.705   7.580  0.0992  0.1097 -0.1685
17627W        W22027   8.701   5.964  29.037  0.4770 -0.0873  0.1105
17628W        W22028  19.623   5.650  24.109 -0.3706  0.1266 -0.3064
17629W        W22029   7.186   1.698  24.681  0.2969  0.2777  0.0487
17630W        W22030  14.047   6.791   8.708  0.1598 -0.0278 -0.1140
17631W        W22031  10.840   5.048  10.673  0.3948  0.2110  0.0012
17632W        W22032   0.402   5.202  21.616  0.0137 -0.1078  0.2386
17633W        W22033  17.224   0.041  17.596  0.1232  0.2557 -0.1193
17634W        W22034   6.284   4.595   2.643 -0.0330  0.0054 -0.0892
17635W        W22035   7.080   0.294  30.645 -0.1432 -0.2996 -0.4070
17636W        W22036  18.648   3.361  25.804  0.0844 -0.0966 -0.1320
17637W        W22037  11.472   4.226  23.467 -0.2418  0.3637 -0.0982
17638W        W22038  10.686   6.801   3.190  0.1995  0.2008 -0.0413
17639W        W22039  21.507   5.023  24.222  0.3363 -0.0763  0.1980
17640W        W22040  11.541   5.464  23.167  0.0195 -0.0873 -0.1740
17641W        W22041  18.274   5.638  29.266  0.0760  0.0482 -0.4122
17642W        W22042  17.326   2.087   5.520 -0.1710 -0.0733 -0.2342
17643W        W22043   8.260   4.889  24.930  0.3261  0.2517 -0.1731
17644W        W22044   8.166   5.547  10.243 -0.0452 -0.2869 -0.0542
17645W        W22045   8.607   7.587   8.128 -0.2491  0.0622 -0.3821
17646W        W22046   8.097   4.595   2.839 -0.1489 -0.2112  0.1509
17647W        W22047   2.726   1.422  25.751 -0.2197 -0.1555  0.1291
17648W        W22048   4.322   1.098  22.532  0.1524  0.0766  0.0520
17649W        W22049  18.808   0.180   2.081  0.1351  0.2923  0.2481
17650W        W22050  19.270   1.501  32.611 -0.0355  0.1680  0.0820
17651W        W22051  20.691   6.396   9.097 -0.0007 -0.0060 -0.0256
17652W        W22052  12.129   1.594   5.833  0.0852 -0.0190 -0.0012
17653W        W22053  21.384   1.436  15.467  0.1899 -0.2175  0.0741
17654W        W22054  17.192   6.025  25.301 -0.0434  0.2095 -0.2360
17655W        W22055  18.038   4.468  24.752 -0.1201 -0.0861  0.0212
17656W        W22056  20.404   7.302  16.602 -0.2286  0.0387  0.0333
17657W        W22057  17.135   5.856   4.802  0.0427  0.1479  0.1087
17658W        W22058   6.641   5.795  17.996 -0.0769 -0.2169 -0.0221
17659W        W22059  17.830   3.455  19.989 -0.0626 -0.3094  0.0185
17660W        W22060  11.699   7.122  12.871 -0.2429 -0.1448 -0.2227
17661W        W22061  12.465   1.447   8.605 -0.1919 -0.2387  0.1590
17662W        W22062   7.476   1.780  27.756 -0.1182 -0.0293  0.1624
17663W        W22063   4.110   6.483   3.194 -0.1626  0.0592  0.0086
17664W        W22064   9.059   7.300  13.932  0.0018 -0.0831 -0.0414
17665W        W22065   4.380   5.033  22.705  0.0954 -0.1263 -0.0174
17666W        W22066  11.826   0.930  25.791 -0.2631 -0.1777 -0.1498
17667W        W22067  11.194   4.261  25.842 -0.1843  0.1892 -0.0750
17668W        W22068  14.263   3.919  26.560  0.2074 -0.2673 -0.1707
17669W        W22069  21.792   5.840  25.901  0.0444  0.0503  0.1839
17670W        W22070  23.353   2.505  21.977  0.0361 -0.0756 -0.0225
17671W        W22071   0.103   5.500  17.664 -0.1460 -0.1162  0.1614
17672W        W22072   5.170   5.070  27.029 -0.1829  0.1052  0.0593
17673W        W22073  22.572   7.613  22.046  0.0558  0.0610  0.0151
17674W        W22074   9.208   2.753  24.549 -0.1582 -0.1187  0.0927
17675W        W22075  23.508   1.624  25.959  0.0204 -0.1680 -0.0436
17676W        W22076  20.131   3.660   1.896  0.0663 -0.4069  0.2171
17677W        W22077  14.133   3.007   0.102 -0.0532  0.2415  0.2547
17678W        W22078  12.234   5.747   1.410  0.1907 -0.0642 -0.3188
17679W        W22079  24.306   3.012   8.491  0.0616  0.1417 -0.2146
17680W        W22080  20.972   5.042   2.698 -0.2165 -0.0017  0.0547
17681W        W22081  23.928   0.615   8.258 -0.2487 -0.2151 -0.1949
17682W        W22082   6.577   3.972   9.407  0.0263 -0.0980 -0.0580
17683W        W22083   0.603   6.720  31.230  0.1242 -0.1411  0.0664
17684W        W22084  21.622   7.727  21.559 -0.3436  0.0846 -0.0815
17685W        W22085  22.200   0.728   5.796  0.1827 -0.2244 -0.0879
17686W        W22086  21.859   3.213   6.589  0.0421 -0.3479 -0.0028
17687W        W22087  18.807   3.310  20.610  0.1377  0.1000  0.1898
17688W        W22088  23.776   4.969   1.617  0.1766 -0.0885 -0.0835
17689W        W22089  15.676   6.312  30.727  0.0830 -0.1628 -0.2852
17690W        W22090   8.635   6.897  26.817  0.1920  0.2455  0.0007
17691W        W22091   7.197   4.588  28.914 -0.1967 -0.0645 -0.0535
17692W        W22092   5.653   6.766   3.115 -0.2064 -0.1482  0.0676
17693W        W22093  18.653   3.946   7.762  0.0737 -0.1364  0.0385
17694W        W22094  10.820   1.686  10.973 -0.2994  0.1114  0.0734
17695W        W22095  17.672   1.270  31.929  0.0803  0.3395  0.3877
17696W        W22096  17.004   0.823  29.757  0.2542  0.0767 -0.2753
17697W        W22097   8.425   2.457  25.853 -0.0610 -0.0954  0.1500
17698W        W22098  14.698   0.547  21.279  0.0885  0.0800  0.1964
17699W        W22099  16.982   6.060  21.852 -0.0791 -0.0142 -0.1628
17700W        W22100  14.005   7.554  27.861  0.2206  0.1929 -0.0551
17701W        W22101  15.918   7.452  32.488 -0.4037  0.4335 -0.1628
17702W        W22102  16.861   4.587   7.584  0.2303  0.2159 -0.0256
17703W        W22103  18.191   5.215  10.277 -0.2641  0.1655  0.0660
17704W        W22104  15.081   0.635  30.719  0.0154 -0.2845 -0.3310
17705W        W22105   6.954   6.373  24.888 -0.1006  0.1521 -0.0830
17706W        W22106   7.171   7.168  31.909  0.1426 -0.2290 -0.1200
17707W        W22107  21.318   6.158  21.098 -0.3374 -0.0666  0.0651
17708W        W22108  16.825   0.420  27.385  0.1323 -0.2221  0.3007
17709W        W22109  11.280   5.439   1.665  0.1922 -0.4876 -0.1655
17710W        W22110   1.276   2.889   7.041 -0.0581 -0.0311  0.3105
17711W        W22111   7.896   0.304   0.093 -0.2618 -0.2389  0.0842
17712W        W22112   2.412   3.651   4.663  0.1446 -0.3365  0.1660
17713W        W22113   0.955   1.583  31.603 -0.0540 -0.2602  0.3967
17714W        W22114  12.441   1.577  10.584 -0.3614 -0.2271 -0.0031
17715W        W22115  19.581   2.710  18.844 -0.0338 -0.1289 -0.1327
17716W        W22116   4.035   0.642  22.314  0.3337  0.0081  0.0784
17717W        W22117  23.357   1.798  30.329  0.2032  0.0070  0.0687
17718W        W22118   0.462   5.772   2.414  0.2545  0.0181  0.0279
17719W        W22119   6.524   1.249   5.484  0.1231 -0.1883 -0.0656
17720W        W22120  21.125   3.864  29.041  0.0361  0.0801  0.3066
17721W        W22121  13.557   3.492  32.383  0.0403  0.4542  0.2061
17722W        W22122   7.965   2.652   4.727 -0.0851  0.2062  0.0647
17723W        W22123   5.129   1.948  31.491 -0.1435 -0.1779 -0.3498
17724W        W22124  11.886   7.691  31.828 -0.1134  0.0276  0.0348
17725W        W22125   7.363   2.701  15.977 -0.1092 -0.1557 -0.0479
17726W        W22126  18.335   5.317  23.595  0.0833 -0.2577 -0.0009
17727W        W22127  24.053   2.756   5.616  0.1263 -0.0282  0.0487
17728W        W22128   9.344   4.371  28.570 -0.0508  0.2337 -0.0491
17729W        W22129  23.604   2.810  10.887  0.1546 -0.2444 -0.1405
17730W        W22130   6.864   2.295   7.045  0.2435  0.0061 -0.0327
17731W        W22131   4.797   0.314  29.133 -0.3215  0.2333 -0.0603
17732W        W22132  14.941   5.906  32.437  0.0581  0.0053  0.1287
17733W        W22133  15.022   4.933   8.419 -0.2253 -0.0643 -0.2226
17734W        W22134   3.385   6.042   4.225 -0.0175 -0.1225 -0.2503
17735W        W22135  15.516   4.983   8.523  0.2697  0.2448 -0.1187
17736W        W22136   9.522   1.710   9.332 -0.1012  0.3971 -0.1333
17737W        W22137  22.807   7.149   8.404 -0.0345 -0.1226  0.0447
17738W        W22138  20.078   1.227  18.498 -0.2954  0.0100  0.0727
17739W        W22139   9.054   7.538  27.049 -0.2527  0.0006 -0.0771
17740W        W22140   7.320   6.876  28.736 -0.0404  0.1891 -0.1743
17741W        W22141   2.779   1.838  25.405  0.3055  0.1514  0.1202
17742W        W22142  18.305   5.376  26.716 -0.3284 -0.2766 -0.2508
17743W        W22143  11.709   0.434  12.237 -0.1763 -0.3022 -0.2526
17744W        W22144  22.828   4.518   4.343 -0.0366  0.2588  0.0527
17745W        W22145   9.887   1.736  17.270 -0.0118  0.0338  0.0738
17746W        W22146  12.107   0.114  15.360 -0.2028  0.0246 -0.0850
17747W        W22147  11.995   4.554  31.756  0.0918  0.1428  0.1008
17748W        W22148   8.081   6.507   8.350 -0.0767 -0.2414  0.1098
17749W        W22149  22.910   7.803  25.593 -0.0539 -0.1706  0.1652
17750W        W22150   7.978   1.234   7.055 -0.0939  0.0082 -0.2364
17751W        W22151   2.447   5.899   5.246  0.3204  0.2269  0.1340
17752W        W22152   1.540   0.076  21.907 -0.2625  0.0489  0.1029
17753W        W22153  19.843   5.845   1.631  0.2117  0.0006 -0.2341
17754W        W22154   9.541   6.425  12.975 -0.2431  0.1353 -0.0231
17755W        W22155  12.516   3.473  30.802  0.2555 -0.0379  0.1931
17756W        W22156   5.265   0.913  26.920 -0.2214 -0.0831 -0.0449
17757W        W22157  23.029   2.068  17.934 -0.2905 -0.1063  0.0862
17758W        W22158  20.042   0.300   9.010 -0.1428  0.0348 -0.0723
17759W        W22159  10.382   6.095   2.295  0.0023  0.1886 -0.2307
17760W        W22160  10.844   3.212  14.673 -0.1912 -0.1966  0.1959
17761W        W22161  23.221   1.765  17.079 -0.0808  0.0445 -0.0099
17762W        W22162  16.981   0.227  20.646  0.0141 -0.0492 -0.1631
17763W        W22163   8.739   2.600   6.642  0.1016  0.0786  0.3005
17764W        W22164  15.600   6.757   5.061 -0.0875 -0.1362 -0.0537
17765W        W22165  24.423   7.251   2.376  0.0111  0.3470 -0.0084
17766W        W22166  14.950   1.323   0.178  0.0538 -0.1642  0.0561
17767W        W22167  14.911   7.616  23.944  0.2310 -0.0593 -0.1287
17768W        W22168  13.226   4.958  11.366  0.0235 -0.1477 -0.5335
17769W        W22169  22.657   0.940  15.355  0.3800  0.0574  0.4369
17770W        W22170  19.719   1.542  18.272  0.1896 -0.1711  0.0133
17771W        W22171  13.007   0.885  13.055 -0.3359 -0.0646 -0.1566
17772W        W22172  20.516   5.450  18.951 -0.2908  0.0724  0.0075
17773W        W22173  10.890   4.527  15.534 -0.0392  0.0702  0.0355
17774W        W22174  17.330   2.193   6.264 -0.0974  0.2653 -0.1358
17775W        W22175  16.540   0.337   2.959 -0.3808 -0.0413  0.1047
17776W        W22176   1.692   6.259   0.853 -0.2519  0.0131  0.0946
17777W        W22177   3.212   5.385  32.615  0.0202 -0.1986 -0.0870
17778W        W22178  20.476   1.038  18.137 -0.0000  0.1628  0.1011
17779W        W22179   6.767   4.686  15.581 -0.0898  0.0276  0.1984
17780W        W22180  17.695   5.646   7.063  0.2796  0.1927 -0.4599
17781W        W22181  20.693   0.188   5.221  0.4799 -0.2140  0.2338
17782W        W22182  16.049   1.366  10.015  0.0211 -0.0186  0.1805
17783W        W22183   2.333   7.137  19.756 -0.1893 -0.0786 -0.0525
17784W        W22184   6.108   2.444  11.553 -0.1036  0.0127  0.0018
17785W        W22185   9.885   6.506  22.815 -0.2274  0.1015  0.2882
17786W        W22186  20.983   5.092  29.510 -0.1364  0.0561 -0.1938
17787W        W22187   1.930   3.507  29.917 -0.1916 -0.0885  0.3971
17788W        W22188  19.073   3.372  15.530 -0.2094  0.0878  0.2216
17789W        W22189   7.652   2.229   0.274 -0.0612 -0.0802 -0.0375
17790W        W22190  11.946   1.010   5.775 -0.1541 -0.1249 -0.0325
17791W        W22191  19.277   0.721  18.562 -0.0426 -0.1293 -0.0785
17792W        W22192  20.293   6.856   4.395 -0.2995 -0.3437 -0.0102
17793W        W22193  14.884   4.572   1.370 -0.1253  0.0490 -0.1883
17794W        W22194   4.093   3.738  11.884 -0.0950  0.1183  0.1988
17795W        W22195  17.673   0.557  17.990  0.1183 -0.2498 -0.1184
17796W        W22196  10.397   2.116  24.803  0.1200 -0.2062  0.1350
17797W        W22197   9.655   1.704   2.438 -0.2051  0.2100 -0.0832
17798W        W22198  20.176   0.100  31.890  0.4029 -0.2768 -0.0265
17799W        W22199   1.047   4.366  24.917  0.2405  0.1258 -0.0184
17800W        W22200   7.810   0.470  25.732  0.1182 -0.0779  0.1322
17801W        W22201  14.671   5.133  27.381  0.1280  0.3307 -0.0045
17802W        W22202  24.941   5.276   6.629 -0.0022  0.2003  0.1351
17803W        W22203   1.443   0.902  20.839  0.0018 -0.3177  0.0349
17804W        W22204  12.646   1.850  27.744 -0.0149 -0.2369 -0.2048
17805W        W22205  24.179   2.271   7.324  0.1714 -0.1101 -0.0687
17806W        W22206   0.781   1.519   0.729  0.0320 -0.1160 -0.0545
17807W        W22207  14.482   7.713  30.309  0.2417  0.0373  0.3081
17808W        W22208  18.651   3.010  17.716  0.2116  0.2673 -0.0711
17809W        W22209  11.431   2.764  12.780  0.0110 -0.3276 -0.1809
17810W        W22210   3.819   2.786  23.264 -0.1934 -0.1365 -0.2303
17811W        W22211  12.536   5.650  13.894 -0.2248 -0.1594 -0.0114
17812W        W22212  11.812   6.889  29.270 -0.0004 -0.1743  0.0444
17813W        W22213  11.219   5.952  17.010 -0.1101 -0.3082  0.0289
17814W        W22214  16.364   6.214   2.110 -0.1145 -0.1387  0.0383
17815W        W22215  21.013   3.331  18.919 -0.1767  0.1355  0.0877
17816W        W22216  12.654   4.053  24.535 -0.1811 -0.0016 -0.0977
17817W        W22217   6.755   2.154  31.306  0.0541  0.0844 -0.1463
17818W        W22218  19.127   0.557  10.066 -0.3379  0.1088 -0.0097
17819W        W22219   0.472   5.046  31.619  0.0863  0.1767 -0.0086
17820W        W22220  20.976   0.175  25.638  0.4177  0.0219  0.1296
17821W        W22221   4.729   3.753   0.375  0.0908  0.0919 -0.0750
17822W        W22222   9.117   1.683  17.578  0.0123  0.0321 -0.0053
17823W        W22223   4.235   6.460  25.869 -0.3226  0.2360 -0.2440
17824W        W22224  20.411   4.933  28.077 -0.1450 -0.3545  0.3535
17825W        W22225   7.738   6.226   1.876  0.0669 -0.0601  0.1236
17826W        W22226  13.492   0.885  24.279 -0.0823  0.0168  0.0730
17827W        W22227  12.335   5.801  31.919  0.0918  0.3421 -0.2348
17828W        W22228   1.796   2.931   7.170 -0.0030 -0.1214 -0.0475
17829W        W22229  12.437   0.440  30.906 -0.0090  0.1402  0.2532
17830W        W22230   9.601   3.864   4.209 -0.1409  0.0732 -0.0804
17831W        W22231  19.319   6.973  31.148  0.0458  0.0378  0.3899
17832W        W22232   2.685   2.047  27.437 -0.1955 -0.2550  0.1414
17833W        W22233  24.028   2.271  23.740  0.0761  0.3646 -0.3074
17834W        W22234  20.236   1.033  28.401 -0.0428  0.1122  0.1691
17835W        W22235  17.615   3.877  22.136 -0.1662  0.0876 -0.0078
17836W        W22236   7.519   4.218  21.862 -0.0685  0.1252  0.1034
17837W        W22237   8.758   6.199  27.822  0.0368  0.1024 -0.0872
17838W        W22238  22.020   1.105   0.820  0.2387 -0.0383 -0.1561
17839W        W22239  14.111   5.680   4.177  0.1805  0.1290  0.0699
17840W        W22240  17.341   3.395  19.825 -0.2406 -0.1945 -0.1853
17841W        W22241  17.246   2.547   5.277 -0.2909 -0.1419  0.0965
17842W        W22242   9.357   2.925   9.171  0.0498 -0.2318 -0.2051
17843W        W22243   3.794   3.224   5.934 -0.0677  0.2976  0.0064
17844W        W22244  24.125   6.155   8.907 -0.1343 -0.0725  0.0284
17845W        W22245   4.895   0.935  30.374  0.1038 -0.0917  0.0979
17846W        W22246  19.246   6.673  18.616  0.0787 -0.1916 -0.2025
17847W        W22247   8.546   1.108   3.174 -0.0362  0.0314 -0.1365
17848W        W22248  13.536   5.674   6.415  0.0999  0.0022  0.1572
17849W        W22249   5.961   4.969   0.018 -0.2046 -0.2798  0.0422
17850W        W22250  22.050   1.518  16.074 -0.1083 -0.2553  0.0054
17851W        W22251   0.731   4.665  23.251  0.1699  0.2114 -0.3357
17852W        W22252  23.967   3.429  14.270  0.1253 -0.0802  0.0827
17853W        W22253  21.693   4.047   2.957  0.0513  0.0128  0.0275
17854W        W22254  10.837   0.964  12.811  0.0050 -0.2213 -0.0274
17855W        W22255   4.371   1.383  22.943  0.2388 -0.4487 -0.2429
17856W        W22256   5.173   3.830  26.089 -0.2413 -0.1862  0.4568
17857W        W22257  12.066   6.016  25.285  0.1347 -0.1515  0.0518
17858W        W22258   4.643   5.053   7.131 -0.3380  0.2678 -0.0166
17859W        W22259   1.000   6.090  10.176 -0.0951  0.0938 -0.3986
17860W        W22260  13.773   1.557  24.822  0.1745  0.3216  0.0955
17861W        W22261   2.029   7.194  21.868  0.0258 -0.1106 -0.2230
17862W        W22262   1.978   6.469   5.186  0.1337 -0.1302 -0.0501
17863W        W22263   4.706   2.597  31.961 -0.1587  0.1261 -0.0604
17864W        W22264  17.391   6.161  21.579  0.1162  0.1795 -0.0580
17865W        W22265  13.407   0.260  29.712  0.1893  0.4661 -0.0992
17866W        W22266   0.638   3.001   5.017  0.1576  0.2180  0.0981
17867W        W22267  10.828   4.428  16.996  0.3571  0.0286 -0.1482
17868W        W22268   9.570   7.545  17.835 -0.1196  0.0604 -0.0159
17869W        W22269   0.453   7.587   8.274  0.2860 -0.0308 -0.0356
17870W        W22270  10.863   0.975   7.719 -0.0364 -0.0069  0.1583
17871W        W22271   0.429   2.692  21.734  0.0915  0.1508  0.0901
17872W        W22272   9.039   0.833   7.127 -0.1571  0.1848 -0.0926
17873W        W22273   0.561   5.616  31.514 -0.0517  0.0881 -0.1690
17874W        W22274  15.251   1.735   6.065  0.0554  0.3529  0.1081
17875W        W22275  19.233   7.053   6.287  0.0511  0.2261  0.0227
17876W        W22276   1.320   6.341  23.160  0.0613  0.1212  0.1571
17877W        W22277   0.908   6.425  22.922  0.1510  0.1043 -0.3078
17878W        W22278   0.136   5.134   8.226 -0.2096 -0.1309  0.0762
17879W        W22279  11.355   2.149  13.249 -0.3089  0.2129 -0.5863
17880W        W22280  12.626   3.349   9.344 -0.0981 -0.1318  0.0256
17881W        W22281   1.946   4.761   8.713 -0.2211 -0.2763 -0.2667
17882W        W22282  17.394   6.685   9.524  0.1203  0.1282  0.3157
17883W        W22283   7.676   1.037   5.191 -0.1336 -0.0927 -0.1600
17884W        W22284  11.580   1.029   9.471  0.0807  0.2506 -0.4212
17885W        W22285  14.347   4.364  11.158  0.1107 -0.1885 -0.2245
17886W        W22286  19.048   7.122  30.670 -0.0362 -0.4019  0.1970
17887W        W22287  22.517   2.431  20.416 -0.0487 -0.0616  0.2177
17888W        W22288  23.598   6.255  27.451 -0.0531 -0.1326 -0.0976
17889W        W22289  18.574   4.772  16.127  0.1470 -0.1086 -0.1153
17890W        W22290  21.346   1.530  19.488  0.1044 -0.2242 -0.1870
17891W        W22291  20.371   5.996  18.949 -0.0178  0.1295  0.1029
17892W        W22292  10.821   4.368   1.225 -0.0193 -0.1724 -0.0025
17893W        W22293   9.582   7.066  15.486  0.0800 -0.2220 -0.0328
17894W        W22294   3.579   3.113   3.987  0.0098 -0.0007  0.1670
17895W        W22295   9.312   1.242   9.197 -0.1319  0.1237 -0.0900
17896W        W22296   0.645   5.590  21.932  0.0127  0.3966 -0.2924
17897W        W22297   1.748   4.572  28.804  0.2642  0.2288 -0.0271
17898W        W22298   3.011   4.751  27.101 -0.3232 -0.1483 -0.1324
17899W        W22299   0.421   1.755  23.670 -0.1954 -0.0019 -0.0135
17900W        W22300  22.963   4.543  20.166 -0.0720 -0.0318 -0.0091
17901W        W22301   8.596   1.889  22.460 -0.3053  0.2696 -0.1610
17902W        W22302  10.681   5.842   5.949  0.0014 -0.0531  0.0224
17903W        W22303  22.396   0.065  23.031  0.1182  0.1593  0.0650
17904W        W22304  21.212   4.791  19.197  0.3034 -0.3452  0.0217
17905W        W22305   2.528   3.153  10.149 -0.1421  0.0439 -0.2633
17906W        W22306   0.307   6.368   9.911  0.3860  0.0269 -0.0744
17907W        W22307  10.100   7.692   6.872  0.1253 -0.1262 -0.0176
17908W        W22308  22.118   6.995  26.445  0.1343  0.1788 -0.3185
17909W        W22309   9.064   3.271   4.144  0.4610  0.3964  0.0544
17910W        W22310  15.839   3.802  25.716  0.3112 -0.1314  0.0385
17911W        W22311  10.165   1.573  26.367 -0.2263  0.1824 -0.0451
17912W        W22312  13.602   1.675  29.863  0.2802  0.0088 -0.0648
17913W        W22313  19.181   6.196   6.068 -0.0351 -0.0633  0.0764
17914W        W22314  17.134   6.499  21.209  0.0524 -0.2177 -0.1859
17915W        W22315   8.422   6.184  14.118 -0.1706  0.0935 -0.0167
17916W        W22316   9.916   4.392  11.854  0.2146  0.0846 -0.2019
17917W        W22317   1.346   4.990  27.027 -0.0521 -0.1297 -0.0672
17918W        W22318  15.250   4.947  23.527  0.1951 -0.0536 -0.1970
17919W        W22319   4.074   0.952   0.485  0.0302  0.2826 -0.0081
17920W        W22320  20.446   2.450   9.706 -0.2283 -0.1119 -0.2049
17921W        W22321  15.681   7.448  11.686 -0.0825  0.0418  0.0668
17922W        W22322  12.909   6.477  12.144  0.0689 -0.1320 -0.0077
17923W        W22323  17.194   5.827   3.862 -0.3527  0.2479 -0.1382
17924W        W22324  14.303   4.097  21.062  0.0886  0.1803  0.0394
17925W        W22325   6.225   4.000  28.851 -0.1700  0.3751 -0.0445
17926W        W22326   1.871   2.098  20.797  0.3982  0.2702 -0.0531
17927W        W22327  16.449   5.077  29.810 -0.0566  0.2250  0.0153
17928W        W22328  11.856   2.193  22.732  0.2223  0.1147  0.0721
17929W        W22329   4.751   6.658  22.748  0.1290 -0.1504  0.0876
17930W        W22330  13.484   5.147  22.768 -0.0129 -0.0601 -0.4227
17931W        W22331   9.337   6.802  24.280 -0.0434 -0.0180 -0.1330
17932W        W22332   8.405   1.615   7.086  0.1126  0.2319 -0.1845
17933W        W22333  12.629   2.341  22.254 -0.0117  0.2673 -0.3736
17934W        W22334  18.284   5.660   9.057 -0.1581 -0.0843 -0.0881
17935W        W22335  24.595   6.260   7.288  0.1406 -0.1159  0.1194
17936W        W22336   8.646   5.439  29.446 -0.1219 -0.0643 -0.2418
17937W        W22337   2.067   7.447   9.612  0.0216 -0.5027  0.0663
17938W        W22338  16.834   2.117  21.838 -0.0735 -0.1263  0.2940
17939W        W22339  20.012   0.735  16.690 -0.2808  0.2185 -0.1014
17940W        W22340  16.768   5.754  19.041 -0.1689  0.0498 -0.2382
17941W        W22341  23.011   0.325   7.310  0.4196  0.0336  0.0980
17942W        W22342  11.117   2.352  13.642 -0.0188  0.0819 -0.1150
17943W        W22343   0.121   7.465  28.744 -0.1548  0.1678 -0.0091
17944W        W22344   8.775   2.766  26.038  0.0364  0.0079 -0.1352
17945W        W22345  23.087   4.566  19.019  0.0295  0.3626 -0.1940
17946W        W22346  10.279   6.404  14.916  0.0120 -0.3562  0.3262
17947W        W22347   6.727   0.777   6.749  0.0169  0.1250  0.0798
17948W        W22348  21.694   2.133   4.706  0.0012 -0.1826  0.0510
17949W        W22349  16.683   1.780  20.530  0.2760  0.2350  0.0501
17950W        W22350   8.745   0.763  17.758  0.0474 -0.2109  0.0820
17951W        W22351   1.949   7.118  10.019  0.2108  0.0796 -0.0874
17952W        W22352  14.330   1.727   6.475 -0.0359  0.2467  0.0783
17953W        W22353   1.508   2.669   4.063  0.1138  0.2018 -0.1052
17954W        W22354   5.920   0.634  17.207 -0.1761 -0.1475  0.3824
17955W        W22355  13.852   2.484  11.399  0.1890  0.1292  0.1211
17956W        W22356  23.969   3.082  26.347  0.4520  0.2612 -0.0470
17957W        W22357  16.023   1.354  20.615  0.1376  0.1929 -0.1647
17958W        W22358   5.597   2.989  23.887  0.2354  0.1331 -0.3571
17959W        W22359  15.303   7.631   3.244  0.0187 -0.2110  0.2064
17960W        W22360   8.419   6.898  18.331  0.2021 -0.0415 -0.1612
17961W        W22361  12.074   3.866  26.435 -0.1529  0.1426  0.2219
17962W        W22362  10.279   6.771   3.863  0.0977  0.2334  0.0831
17963W        W22363  14.399   5.667   1.226  0.1128  0.2295 -0.0459
17964W        W22364  13.170   3.818  31.493 -0.0753  0.1729 -0.1046
17965W        W22365  17.910   3.018  24.345 -0.0739 -0.1002 -0.0174
17966W        W22366   9.897   0.433  24.900  0.0575  0.2031 -0.2645
17967W        W22367   9.174   4.447   7.615 -0.0210  0.2327 -0.1108
17968W        W22368   1.474   6.917  26.955 -0.3241  0.0889 -0.4529
17969W        W22369   0.713   3.729   5.734 -0.1032  0.2072  0.1804
17970W        W22370  13.475   4.150  24.919 -0.0256  0.3123  0.1290
17971W        W22371  22.019   2.687  16.231  0.2430 -0.1107 -0.0547
17972W        W22372  11.231   4.369   6.507  0.3268 -0.1978 -0.1307
17973W        W22373  12.669   6.882   2.609 -0.0925 -0.1696  0.1867
17974W        W22374   4.009   3.738  28.596  0.0307  0.2075  0.1669
17975W        W22375  23.003   4.174  16.015 -0.2431 -0.0396 -0.2913
17976W        W22376   3.128   5.434  28.787  0.0841 -0.2807 -0.4370
17977W        W22377  24.003   4.605  17.486  0.0098  0.0354 -0.0079
17978W        W22378   8.254   2.390   0.280  0.1359  0.0673 -0.1936
17979W        W22379   3.255   2.966  26.708 -0.1307  0.4063  0.7465
17980W        W22380   7.768   1.479   7.426  0.1353 -0.1218  0.0086
17981W        W22381  15.421   7.094  11.143  0.0789 -0.3367 -0.0934
17982W        W22382  22.517   2.462  23.015 -0.2536 -0.1390 -0.1868
17983W        W22383  15.963   4.481  23.542 -0.2368 -0.0017 -0.0915
17984W        W22384  13.986   4.901  26.697 -0.4602  0.0902  0.3084
17985W        W22385   8.578   2.401   3.425 -0.0462 -0.1459 -0.4043
17986W        W22386   3.912   4.000   0.619  0.1089  0.3247 -0.2391
17987W        W22387  17.025   4.146  30.157  0.0050  0.0642 -0.0951
17988W        W22388  17.788   1.239  25.199 -0.0556 -0.0915 -0.0309
17989W        W22389  18.962   7.032  31.949 -0.1382 -0.1580  0.4651
17990W        W22390  15.930   0.570   5.155 -0.0767 -0.1225 -0.0001
17991W        W22391  20.678   1.960  26.878  0.1834  0.1089 -0.1591
17992W        W22392   2.322   6.674  29.647 -0.3241 -0.1993  0.2400
17993W        W22393  23.045   4.178   1.732 -0.3333  0.0708  0.0857
17994W        W22394  13.640   4.320  12.864 -0.2476  0.0710  0.1871
17995W        W22395  11.470   3.378  12.791  0.0140  0.2168 -0.0325
17996W        W22396  22.445   2.415   7.483  0.3277  0.1065 -0.0136
17997W        W22397   5.639   1.735  28.183  0.1421  0.1737 -0.0737
17998W        W22398   1.298   6.902  23.100  0.0111 -0.0232  0.5152
17999W        W22399  18.361   0.067  10.036  0.1693  0.1907  0.0741
18000W        W22400  18.330   6.809  24.966 -0.2695 -0.0248 -0.1867
18001W        W22401   9.783   6.486  24.736  0.0859  0.2632  0.1529
18002W        W22402  20.864   3.570  26.107 -0.2601 -0.2562  0.1899
18003W        W22403   9.708   0.344   5.718 -0.2482 -0.1205 -0.0118
18004W        W22404   8.548   3.462  24.348  0.0987  0.0250 -0.0208
18005W        W22405  14.883   7.387  28.672 -0.0577  0.0615  0.0732
18006W        W22406  16.692   5.400  19.827 -0.2013  0.0528 -0.0397
18007W        W22407  22.746   2.197  21.628 -0.2839 -0.1168  0.0702
18008W        W22408  10.724   1.404   8.476  0.1109  0.3742 -0.2446
18009W        W22409   3.016   6.532  27.498  0.1163  0.1247 -0.0693
18010W        W22410  23.965   5.982  22.433  0.0070 -0.0594 -0.2267
18011W        W22411  16.681   6.858   4.012 -0.0866  0.0774  0.1973
18012W        W22412  12.483   2.024  10.308 -0.0617 -0.3635 -0.1564
18013W        W22413  17.030   5.601  18.221  0.1540 -0.0336 -0.1192
18014W        W22414   6.553   1.457   3.440  0.0133 -0.1591 -0.2778
18015W        W22415  16.475   2.523  25.623 -0.0617  0.0911  0.1867
18016W        W22416   5.923   5.607  10.246  0.2788  0.0829 -0.0592
18017W        W22417  11.254   1.791  26.725 -0.3982  0.1118  0.1732
18018W        W22418   1.716   0.679   5.579  0.0271 -0.1105 -0.0842
18019W        W22419   3.235   1.409   5.925 -0.0035 -0.0845  0.1242
18020W        W22420  10.772   0.717  28.334  0.1097  0.1356  0.1044
18021W        W22421  20.420   1.362  20.495 -0.1549 -0.1899 -0.0967
18022W        W22422   0.829   3.105  19.582  0.2398 -0.2326  0.1718
18023W        W22423   0.821   2.581  27.916 -0.0233  0.1898  0.2233
18024W        W22424  13.324   6.891   8.003 -0.2145  0.1647  0.2616
18025W        W22425  13.087   4.854  24.236  0.2721 -0.1258 -0.2002
18026W        W22426  17.862   2.277  17.697 -0.1490  0.0962 -0.2387
18027W        W22427   0.788   0.815  10.864 -0.0704  0.1904  0.0573
18028W        W22428   3.041   4.156   7.600  0.0134 -0.0594 -0.0522
18029W        W22429   1.387   5.642   2.691  0.2448 -0.2503 -0.0151
18030W        W22430   8.596   6.356  29.322  0.1343  0.1416 -0.0172
18031W        W22431  11.316   1.371   3.427 -0.0132 -0.0514  0.1287
18032W        W22432  13.173   2.624   3.679 -0.1565 -0.0112  0.1386
18033W        W22433  21.538   4.445  28.134 -0.3090 -0.1239 -0.0096
18034W        W22434  16.397   0.845   0.643  0.2089  0.0162  0.1535
18035W        W22435  13.247   4.077   7.121  0.0597 -0.0097 -0.0032
18036W        W22436   3.072   6.120  23.875  0.2431 -0.2627  0.4647
18037W        W22437   1.877   3.650  19.374  0.0257 -0.1053  0.1506
18038W        W22438  10.410   7.710  22.721 -0.0838  0.0180 -0.0843
18039W        W22439  19.444   2.869  27.641 -0.0631 -0.1604 -0.0955
18040W        W22440   8.308   6.025  25.514 -0.0610  0.0783  0.0932
18041W        W22441  11.331   2.333  16.597 -0.3986 -0.0412 -0.1214
18042W        W22442  17.350   4.577  28.475  0.2233  0.0757  0.1159
18043W        W22443   8.324   3.965  10.311  0.0942  0.0502  0.2404
18044W        W22444  14.933   5.989  30.217  0.2444  0.0848  0.0462
18045W        W22445  15.527   3.670   5.220  0.0438 -0.2023 -0.2693
18046W        W22446  18.679   1.537  25.727 -0.2258  0.0578  0.1514
18047W        W22447  12.678   0.231  26.875  0.2386  0.0241  0.1139
18048W        W22448   2.773   1.020  19.657 -0.0302 -0.0244 -0.0470
18049W        W22449   9.213   3.778   5.344  0.1297 -0.0247 -0.1236
18050W        W22450  10.546   4.287  31.954  0.1009 -0.0016  0.1370
18051W        W22451  18.384   6.227  27.857  0.1779  0.1438 -0.1500
18052W        W22452  19.530   0.237  16.555  0.0419 -0.1515 -0.0635
18053W        W22453  22.083   0.095  16.957 -0.0185  0.2294  0.0052
18054W        W22454   6.984   0.066   6.724 -0.0147 -0.0568  0.2061
18055W        W22455   3.549   6.691   6.832 -0.0421  0.3436 -0.0302
18056W        W22456  20.483   6.561   3.096 -0.0263 -0.3566  0.1689
18057W        W22457  17.577   7.185  28.715 -0.2035  0.3179 -0.0232
18058W        W22458  21.390   3.229  26.789 -0.1267 -0.2076  0.0781
18059W        W22459  23.342   4.063  28.869  0.1924 -0.0212 -0.4065
18060W        W22460  14.829   0.565   3.274  0.2008  0.0185 -0.3101
18061W        W22461   9.874   3.150  28.158 -0.0421  0.3253 -0.4419
18062W        W22462   1.477   4.565  11.142 -0.1627  0.0955  0.0553
18063W        W22463  23.584   4.624  14.913 -0.0295 -0.0586 -0.0565
18064W        W22464  21.746   5.661   4.535 -0.0649 -0.1301  0.1625
18065W        W22465  17.627   6.741  21.771  0.2051  0.0025 -0.3179
18066W        W22466  11.772   0.041   9.461  0.1502 -0.1742 -0.1174
18067W        W22467   3.624   2.337  23.527  0.1613  0.0229  0.0728
18068W        W22468  19.209   5.919  16.656 -0.1609  0.0843  0.0782
18069W        W22469  13.981   4.072   8.315 -0.0447 -0.1999  0.1117
18070W        W22470  23.625   6.898  20.062 -0.0781  0.1585 -0.0188
18071W        W22471   9.294   2.892  32.069  0.1151 -0.1393  0.2314
18072W        W22472  10.238   3.522   6.847 -0.0251 -0.1201 -0.1051
18073W        W22473   7.601   6.502  29.225  0.1743  0.2510 -0.0196
18074W        W22474  15.479   6.572  20.211  0.0360 -0.2166 -0.0977
18075W        W22475   3.597   3.198   8.207  0.1115  0.1887 -0.1396
18076W        W22476  12.459   7.401  32.192  0.0580  0.2240  0.3848
18077W        W22477  10.854   6.206  14.249  0.2999 -0.1566 -0.2161
18078W        W22478   5.807   7.550  23.956 -0.1769  0.2371  0.1789
18079W        W22479  18.271   7.277   1.057  0.0053 -0.1637  0.1231
18080W        W22480   1.044   3.064  25.383 -0.2034  0.3910  0.0769
18081W        W22481  16.993   2.425  29.055 -0.3378  0.0851  0.1533
18082W        W22482  11.158   7.316  23.176  0.0110 -0.1726 -0.0842
18083W        W22483  16.556   5.289   8.700  0.0218 -0.0935 -0.1828
18084W        W22484  21.331   0.919   7.633  0.0416  0.1646 -0.1371
18085W        W22485  13.998   4.050   1.094  0.0360 -0.1109 -0.0574
18086W        W22486  10.288   0.380  24.031 -0.2808 -0.3529  0.0462
18087W        W22487  10.372   2.829   0.059 -0.3713  0.0981  0.0685
18088W        W22488  10.056   4.040   3.521  0.0159 -0.1157 -0.1385
18089W        W22489   2.437   4.051  28.022  0.0316 -0.1416 -0.1787
18090W        W22490   9.636   4.222  30.477  0.0450 -0.0113 -0.3613
18091W        W22491   7.650   4.875   4.867  0.0242  0.3042 -0.1522
18092W        W22492  13.957   6.378   4.652 -0.3612  0.1048 -0.0123
18093W        W22493  21.586   3.712  17.345 -0.0452  0.2391  0.0207
18094W        W22494   4.503   6.914   5.268 -0.0935  0.1618 -0.0242
18095W        W22495  13.706   4.167   7.841  0.0457 -0.3273 -0.1377
18096W        W22496  20.320   0.196  26.649 -0.0683 -0.0581  0.1433
18097W        W22497   6.765   5.070  28.355  0.0650 -0.2551  0.3166
18098W        W22498   0.559   4.207   0.735  0.1151  0.1872 -0.2316
18099W        W22499  14.221   7.625  13.105 -0.0452 -0.0021 -0.0038
18100W        W22500  14.355   7.580  29.830  0.2545  0.1197  0.0540
18101W        W22501  10.630   2.346  26.701 -0.1931 -0.1962 -0.1001
18102W        W22502   6.630   4.574  17.802 -0.1533 -0.2467 -0.1626
18103W        W22503  23.151   0.264   7.781 -0.0884  0.1653 -0.3848
18104W        W22504  23.912   2.051   5.031 -0.1924  0.2467  0.2254
18105W        W22505  24.377   0.699  27.436 -0.2109  0.0208 -0.0990
18106W        W22506  14.020   0.665  22.083  0.2343 -0.1105  0.0658
18107W        W22507  17.304   3.813  23.489  0.0961 -0.2184  0.4197
18108W        W22508  19.468   1.814  31.261 -0.3425  0.0581 -0.0425
18109W        W22509   4.926   0.888  15.986  0.0914  0.1826  0.2155
18110W        W22510  19.854   6.582   4.726  0.1885 -0.1565 -0.2409
18111W        W22511   4.043   3.998  27.427  0.0733  0.1361 -0.2950
18112W        W22512  12.595   2.076  14.599 -0.0608  0.2508  0.2061
18113W        W22513  11.107   6.816  26.691  0.0326  0.1295 -0.2197
18114W        W22514   7.083   5.006  23.818 -0.4009 -0.2824  0.1006
18115W        W22515  12.267   2.989  15.133 -0.1694 -0.0788 -0.0653
18116W        W22516  12.864   5.871  10.523  0.2574 -0.0966  0.1808
18117W        W22517  23.706   4.949   9.557 -0.2076 -0.3081  0.0816
18118W        W22518   6.028   5.223  11.480  0.2283  0.0234  0.1237
18119W        W22519  10.161   0.796  27.224 -0.3664  0.0358  0.0340
18120W        W22520   3.056   2.541  20.005  0.1273  0.0282 -0.0300
18121W        W22521   9.734   4.300   8.190 -0.0807  0.2620 -0.2359
18122W        W22522  19.719   3.903   9.783 -0.1706  0.0709  0.3940
18123W        W22523   4.059   1.010  29.096 -0.0914  0.0547  0.1355
18124W        W22524  24.414   4.728  23.172 -0.0896 -0.0351  0.1713
18125W        W22525  24.406   6.614   0.808  0.0556 -0.0175 -0.4724
18126W        W22526  24.298   3.836   0.824  0.0632 -0.0196 -0.0693
18127W        W22527  15.863   4.814  20.949 -0.0248 -0.0814  0.2129
18128W        W22528   5.050   0.557  31.721 -0.1192 -0.2177 -0.1352
18129W        W22529  14.583   0.158   8.370  0.0004 -0.2182  0.0754
18130W        W22530  11.065   0.377   4.355 -0.3926  0.2224 -0.0921
18131W        W22531  23.106   7.141  25.886 -0.4039  0.0000 -0.1301
18132W        W22532   8.287   1.849   1.900  0.1690 -0.0536  0.0092
18133W        W22533  23.483   5.331   3.545  0.0368  0.1452  0.2226
18134W        W22534   1.190   1.167   2.056 -0.0321 -0.1749  0.1488
18135W        W22535  23.559   2.466   8.250 -0.1488  0.0981  0.0054
18136W        W22536   6.919   7.826  30.290 -0.0803 -0.2748 -0.0022
18137W        W22537  19.052   6.614  31.472 -0.2016  0.2700  0.1366
18138W        W22538  20.731   4.890  22.969  0.2483 -0.1492 -0.1935
18139W        W22539   8.163   0.407  28.882 -0.0195  0.1719 -0.1705
18140W        W22540  13.523   7.391   8.220 -0.0081 -0.2613  0.2248
18141W        W22541  16.179   3.134   7.242  0.3575 -0.1155  0.0668
18142W        W22542  16.019   1.583  32.063  0.2254 -0.0450  0.3325
18143W        W22543  24.797   5.663  17.202 -0.4915 -0.0724 -0.2273
18144W        W22544  11.747   6.754  13.174 -0.1252 -0.1090  0.1989
18145W        W22545  15.791   3.963  29.880  0.3415  0.0363  0.1475
18146W        W22546  20.653   0.281  13.820  0.1876 -0.0761  0.1026
18147W        W22547  11.627   0.452  22.835 -0.1297  0.1361 -0.1023
18148W        W22548  19.350   5.210  20.264 -0.2000 -0.1158 -0.0066
18149W        W22549  14.255   7.693   1.736 -0.1073  0.2948 -0.0749
18150W        W22550   0.799   3.513  10.643 -0.2159  0.2882 -0.0099
18151W        W22551  18.250   3.040  23.962 -0.0902  0.1002  0.1286
18152W        W22552  23.570   3.307  22.948 -0.2938  0.0619 -0.0083
18153W        W22553  17.116   6.762  28.188 -0.1895  0.2492  0.0525
18154W        W22554  13.253   2.234  31.375 -0.0012 -0.1681  0.2011
18155W        W22555  24.722   5.541  16.129  0.2996 -0.3245  0.0053
18156W        W22556   8.029   5.937  25.127  0.0310 -0.1714  0.5215
18157W        W22557  12.076   2.108   7.481 -0.1263  0.0082  0.1399
18158W        W22558   0.939   5.774  11.056 -0.0049 -0.0096 -0.0072
18159W        W22559   2.875   6.989  21.604 -0.0961  0.4355  0.2760
18160W        W22560  18.119   4.452   2.004  0.0950  0.0622 -0.0907
18161W        W22561   5.725   6.897  22.699  0.0540 -0.1019 -0.1091
18162W        W22562  23.474   1.617   2.793  0.2038  0.2742  0.2943
18163W        W22563  17.042   3.574  20.254 -0.1211 -0.3146 -0.0637
18164W        W22564   5.916   5.115  24.357 -0.2231 -0.4245  0.0741
18165W        W22565  24.332   1.271  17.479  0.1123 -0.0930 -0.0274
18166W        W22566  17.765   2.396  16.460 -0.1435 -0.2030  0.0423
18167W        W22567   0.053   1.213  18.898 -0.2440  0.1295  0.0379
18168W        W22568   8.748   1.106  15.184 -0.1538 -0.0606 -0.3816
18169W        W22569  21.343   0.421  19.173 -0.0415  0.1552 -0.1423
18170W        W22570  15.885   7.354   3.388  0.1357 -0.0597 -0.0179
18171W        W22571  24.509   7.010   1.081  0.0353 -0.1105  0.2575
18172W        W22572  19.914   3.369  18.531  0.0697  0.3760  0.0128
18173W        W22573  11.252   4.590   2.393 -0.2532  0.0454 -0.0222
18174W        W22574  22.533   4.808  15.785  0.0740  0.2949 -0.0750
18175W        W22575   9.601   3.967  29.171 -0.0859  0.3052  0.1125
18176W        W22576   0.915   1.929  32.524  0.1405  0.1121  0.1081
18177W        W22577  16.316   1.624  28.740  0.1255  0.0293 -0.1356
18178W        W22578   5.469   5.150  11.536  0.0153 -0.1744  0.1023
18179W        W22579  16.958   2.840  28.298 -0.2914  0.5833 -0.0685
18180W        W22580   3.206   2.647  21.513  0.1993  0.2491  0.2372
18181W        W22581   6.707   0.169  23.985  0.0008  0.0038  0.0097
18182W        W22582  20.404   1.766  22.902 -0.0769 -0.3918 -0.2003
18183W        W22583  14.078   0.973  29.736 -0.4703  0.0975  0.1334
18184W        W22584  13.506   3.801  21.603  0.1541  0.1153  0.0623
18185W        W22585  18.961   1.806  28.794  0.3355  0.0965 -0.0366
18186W        W22586   1.481   2.415   2.259 -0.0668  0.1235  0.1382
18187W        W22587   5.315   0.028  23.603  0.0220 -0.3106 -0.2932
18188W        W22588   4.460   4.857  28.428 -0.0477 -0.1033 -0.2640
18189W        W22589   6.131   6.324  30.804  0.2625  0.1643 -0.1754
18190W        W22590  20.338   2.266   5.886 -0.0994  0.4262 -0.0541
18191W        W22591  24.010   3.063   6.559  0.0537 -0.0171 -0.0401
18192W        W22592   5.395   3.033  11.967  0.0980  0.0431 -0.0799
18193W        W22593  19.893   4.927   6.130 -0.1103 -0.0960 -0.1439
18194W        W22594  15.585   6.452   1.605  0.0321  0.1302 -0.1002
18195W        W22595  21.931   1.017  23.445  0.1445  0.1229 -0.0816
18196W        W22596  10.751   7.054   7.197 -0.2042  0.0742  0.0512
18197W        W22597   8.117   3.313   4.373 -0.2408  0.2325 -0.0820
18198W        W22598  11.000   6.340  23.287  0.0209  0.0518 -0.1553
18199W        W22599   5.974   7.619  31.931  0.0156 -0.2386 -0.0767
18200W        W22600   2.179   1.626   3.569  0.2343 -0.0507 -0.2506
18201W        W22601  18.061   0.883   9.445 -0.0831  0.0120 -0.1552
18202W        W22602  15.720   7.063  31.524  0.0262  0.0162  0.1696
18203W        W22603  10.045   6.888  30.137  0.3986 -0.0614 -0.0744
18204W        W22604   2.806   4.616   0.075 -0.0608 -0.0409  0.1533
18205W        W22605  11.184   3.193  23.056  0.1220  0.0438  0.1895
18206W        W22606   6.947   3.909  11.683  0.2857  0.1271 -0.2030
18207W        W22607  12.165   1.645   4.428 -0.1982 -0.2679 -0.1690
18208W        W22608  21.314   7.497  30.983  0.0912 -0.0350  0.1307
18209W        W22609  22.203   7.465   6.228  0.0495 -0.0892 -0.1707
18210W        W22610  12.209   5.435  32.317 -0.0997 -0.1055 -0.2911
18211W        W22611  19.811   4.254   7.537  0.0872  0.0526 -0.1851
18212W        W22612  16.221   7.725  28.730  0.0632  0.1002 -0.0411
18213W        W22613  11.281   6.444  11.783  0.2542  0.0973  0.2953
18214W        W22614  13.923   4.559   0.892 -0.1089  0.0046  0.3504
18215W        W22615  17.229   3.147  23.773  0.1778 -0.0494 -0.3878
18216W        W22616  23.668   5.634  28.969  0.1609  0.0683 -0.0197
18217W        W22617   6.762   0.163   0.343 -0.0090  0.1843 -0.1197
18218W        W22618  21.606   6.067   3.763  0.0785 -0.0579 -0.3420
18219W        W22619  11.136   2.576  32.183  0.0801 -0.1564  0.1667
18220W        W22620  10.288   7.766  28.545  0.0268  0.0620 -0.0966
18221W        W22621  15.276   5.545  29.629 -0.0453  0.0729  0.1254
18222W        W22622  19.743   3.863  18.408 -0.2231  0.0806  0.1424
18223W        W22623  11.128   7.823   2.056 -0.0801 -0.0782 -0.0078
18224W        W22624  11.144   6.874   1.434 -0.2440  0.2251 -0.2703
18225W        W22625   8.303   5.262   2.836  0.1676 -0.0908 -0.3121
18226W        W22626  11.922   5.577  31.776  0.1222 -0.1242 -0.0219
18227W        W22627   5.511   6.563   8.339 -0.0964  0.2860 -0.2809
18228W        W22628   7.792   4.082  28.344  0.3263  0.3430  0.3080
18229W        W22629  17.228   6.662   1.216  0.1394  0.0753 -0.0607
18230W        W22630   2.881   3.125   2.268  0.0880 -0.0037 -0.0968
18231W        W22631  15.987   2.145  22.287  0.0106 -0.1850 -0.0553
18232W        W22632  12.957   6.169  14.248  0.0082  0.0492  0.2230
18233W        W22633   0.186   3.411   5.079 -0.2175  0.1099 -0.0841
18234W        W22634  10.942   7.373   0.931 -0.1500  0.0035 -0.2634
18235W        W22635   8.795   2.862  10.910  0.0169 -0.0361  0.5321
18236W        W22636  18.935   6.982   3.294  0.1921  0.2284  0.0625
18237W        W22637   9.898   4.361   5.388  0.1669  0.0079  0.0742
18238W        W22638   0.106   2.093  18.620 -0.1298 -0.0061 -0.1360
18239W        W22639   9.726   5.740  14.634 -0.0794 -0.0967  0.0334
18240W        W22640  23.071   7.469  20.219  0.1565  0.0494 -0.3735
18241W        W22641   4.175   5.532   7.777 -0.2756 -0.0376  0.0872
18242W        W22642  23.866   3.267   2.743  0.0917 -0.1946  0.0954
18243W        W22643  21.887   2.162  25.104  0.0164  0.3318 -0.2799
18244W        W22644  17.188   0.372   3.420  0.2711  0.1007  0.2338
18245W        W22645  24.238   2.137   4.705 -0.2850 -0.2664  0.1065
18246W        W22646  12.447   2.093   8.661 -0.1110 -0.0230 -0.2503
18247W        W22647  18.340   0.609  32.514  0.0208  0.2541  0.4786
18248W        W22648   4.796   2.364   7.320 -0.0753  0.2241  0.0402
18249W        W22649  20.146   7.608  17.351 -0.0038 -0.3094 -0.2015
18250W        W22650  25.002   0.050  32.201  0.2251  0.0410  0.1742
18251W        W22651   8.224   4.823   0.521 -0.1213  0.3294 -0.0304
18252W        W22652   5.202   1.548  27.555 -0.2629  0.1067  0.2321
18253W        W22653  12.914   1.072  14.056  0.4330  0.1405 -0.4181
18254W        W22654  24.375   1.565   4.023 -0.0024 -0.1179 -0.1441
18255W        W22655  18.902   2.446  28.269  0.2721  0.1666  0.0436
18256W        W22656  22.653   5.873  28.875  0.1683  0.0532 -0.1630
18257W        W22657  22.819   3.969   7.475 -0.0396  0.1869 -0.3053
18258W        W22658   4.391   2.024  25.057 -0.0877 -0.0949 -0.2345
18259W        W22659  21.849   4.484  30.013 -0.1734  0.1416 -0.3174
18260W        W22660   0.641   7.532  28.622  0.0916 -0.0732 -0.3884
18261W        W22661  21.747   7.780   7.349  0.1391  0.2346 -0.2077
18262W        W22662   5.244   4.617   9.932 -0.3003  0.4680 -0.1412
18263W        W22663  22.013   1.261   3.781 -0.3049 -0.2877  0.1395
18264W        W22664  20.473   6.942  28.360  0.3313 -0.1532  0.2627
18265W        W22665  11.057   6.016  30.686  0.0368 -0.2411  0.0256
18266W        W22666  17.353   4.465  26.024  0.0649 -0.1582 -0.3863
18267W        W22667  24.513   0.512   6.409 -0.2877  0.1300 -0.2412
18268W        W22668  16.186   0.725   3.063  0.2323  0.0078  0.1073
18269W        W22669  17.977   6.736  22.139  0.0223  0.0484  0.3037
18270W        W22670   0.989   5.898   2.482 -0.0971  0.0033  0.1242
18271W        W22671  17.212   6.457  11.293  0.0176  0.0720  0.1964
18272W        W22672  10.149   0.050  12.023 -0.0932  0.2165  0.0169
18273W        W22673   0.534   1.957   9.388  0.0526  0.0357  0.4293
18274W        W22674  24.340   4.929   1.343 -0.2642  0.0545  0.0458
18275W        W22675   1.559   1.120  25.275  0.0575 -0.0430  0.1956
18276W        W22676   3.315   6.703   1.588 -0.1582  0.0675  0.3715
18277W        W22677  13.215   3.083   7.817  0.2738  0.1024  0.1374
18278W        W22678  24.156   5.301  19.106  0.3695 -0.0543  0.1950
18279W        W22679   0.864   3.625  28.854 -0.1018 -0.1063 -0.1070
18280W        W22680  13.995   3.468  31.558  0.0057  0.3327  0.0843
18281W        W22681   1.432   7.213  28.158 -0.1543 -0.0206  0.1662
18282W        W22682  15.851   0.964   6.220  0.0443 -0.0402 -0.2391
18283W        W22683   6.831   1.263   0.284 -0.0235  0.3509  0.1082
18284W        W22684  19.464   3.700  26.080  0.1118 -0.0014 -0.1815
18285W        W22685  24.356   6.440  16.189  0.1783 -0.2400  0.0157
18286W        W22686  10.125   7.149   7.151 -0.2808  0.3543 -0.0521
18287W        W22687  23.851   5.666  29.768 -0.2970 -0.0537 -0.0798
18288W        W22688  15.359   1.876   4.569 -0.1629  0.2169  0.2566
18289W        W22689  19.033   1.253  20.218 -0.0573  0.4242 -0.0179
18290W        W22690  16.635   5.707   8.890  0.1304 -0.0441 -0.1258
18291W        W22691  23.518   2.645  25.709  0.0553  0.0105  0.2226
18292W        W22692   0.472   6.406  21.721  0.1523 -0.1783  0.3718
18293W        W22693   4.133   2.686   3.314 -0.0200  0.0555  0.0312
18294W        W22694   7.370   6.519   5.646 -0.4124  0.1894  0.1220
18295W        W22695  17.878   3.655  23.329 -0.0274  0.0765 -0.1004
18296W        W22696  22.200   7.775   9.157  0.0702  0.3509 -0.0749
18297W        W22697   8.166   7.571   9.723 -0.1505  0.1490 -0.0174
18298W        W22698   8.640   1.586  12.372 -0.1170  0.1672 -0.1416
18299W        W22699  23.242   3.938  20.786  0.0252 -0.2850 -0.0079
18300W        W22700  14.320   1.878  26.165 -0.0422 -0.0028  0.4105
18301W        W22701   4.058   7.469  11.872  0.3076  0.2506  0.1197
18302W        W22702   3.143   2.945  11.471 -0.0376 -0.1271  0.0871
18303W        W22703  16.543   0.854  22.438 -0.0003  0.5315  0.1122
18304W        W22704  22.460   2.981  28.530 -0.0289 -0.1173  0.1384
18305W        W22705   1.020   0.158   9.644  0.3420 -0.0988  0.3672
18306W        W22706  23.193   3.263  24.325  0.0200 -0.2217  0.2204
18307W        W22707   8.842   1.358   1.470 -0.3276 -0.2830  0.1121
18308W        W22708  13.483   2.721  22.334  0.0357  0.2653  0.0038
18309W        W22709   9.542   3.357  10.403 -0.1516 -0.3282 -0.2486
18310W        W22710   4.331   4.142   5.602  0.0045  0.0206  0.1244
18311W        W22711  20.160   6.271  26.100  0.0561 -0.1696 -0.0345
18312W        W22712   1.299   6.779   1.303  0.1861 -0.0615 -0.1693
18313W        W22713   7.044   4.580   9.642 -0.1208  0.1862 -0.3534
18314W        W22714  19.694   6.022   7.514  0.0891  0.0225 -0.1772
18315W        W22715  11.872   2.422   3.412 -0.0607 -0.0622  0.0601
18316W        W22716  21.760   3.481  14.754 -0.0060  0.0593 -0.1721
18317W        W22717  16.339   6.877   8.792 -0.1934 -0.1495 -0.1205
18318W        W22718  24.323   7.511   7.063 -0.1176 -0.0705  0.1270
18319W        W22719  11.208   6.372  30.357  0.1378  0.2620  0.0251
18320W        W22720  13.498   5.932   4.711  0.2163  0.2959  0.2772
18321W        W22721   0.585   7.774  31.303 -0.1036 -0.3654  0.0139
18322W        W22722   6.293   6.338  27.287 -0.1705 -0.1933 -0.0107
18323W        W22723   6.627   4.315   2.357  0.2131  0.2298  0.0564
18324W        W22724  20.732   0.564   0.702  0.0955 -0.0622 -0.2197
18325W        W22725  16.424   2.267   5.145  0.1878 -0.0633 -0.3007
18326W        W22726  14.062   0.579  10.393  0.5508 -0.0702 -0.0701
18327W        W22727  16.411   4.938   8.246 -0.0530  0.2249  0.1885
18328W        W22728  20.560   1.250   3.532 -0.0715 -0.4417 -0.0514
18329W        W22729   2.884   4.739  21.708  0.0958 -0.0641  0.1815
18330W        W22730   4.664   7.594   1.899 -0.0719  0.0045 -0.0687
18331W        W22731  10.698   1.798  12.292 -0.0289 -0.3732 -0.0596
18332W        W22732  10.263   5.321  29.043  0.0231  0.1277  0.2073
18333W        W22733  24.243   1.666   9.023  0.1938  0.0146  0.3018
18334W        W22734  23.830   6.115  24.573 -0.3754  0.0678 -0.1527
18335W        W22735  15.247   2.480   9.885 -0.2777 -0.0303  0.1572
18336W        W22736   7.326   1.922   3.648  0.1616 -0.1705 -0.0644
18337W        W22737  19.164   0.488  30.480 -0.4206  0.0008 -0.0731
18338W        W22738  18.753   1.147  25.274  0.0291  0.0018  0.0181
18339W        W22739  18.988   3.645  18.578  0.2280  0.4344 -0.0532
18340W        W22740  16.692   3.458  31.654 -0.1012  0.0251 -0.1420
18341W        W22741  14.733   3.341  27.180 -0.1081 -0.0897  0.0630
18342W        W22742  15.537   4.876   4.796 -0.0447 -0.5256 -0.4209
18343W        W22743   2.009   1.829  11.401 -0.0119 -0.2057  0.0317
18344W        W22744  21.074   4.093  22.036 -0.1515  0.0270 -0.0853
18345W        W22745   8.165   5.972  26.017 -0.0487  0.0638 -0.1789
18346W        W22746   0.041   6.912  18.973 -0.0903 -0.1289 -0.0949
18347W        W22747  21.803   5.394   2.919  0.1809 -0.0798 -0.0208
18348W        W22748   0.319   5.637  22.329 -0.0929  0.1259  0.0121
18349W        W22749  23.312   6.480   8.729  0.0764 -0.0313 -0.1069
18350W        W22750   2.102   0.608  32.279  0.0105  0.3625  0.0857
18351W        W22751   5.464   3.483  25.321  0.2804  0.0329  0.1043
18352W        W22752  15.996   0.499   9.588  0.0716  0.1410  0.2973
18353W        W22753   7.789   3.289  17.073  0.1887  0.0728  0.1447
18354W        W22754   4.444   3.630  13.214 -0.1633 -0.2070 -0.1934
18355W        W22755  14.891   2.309  27.410 -0.0914  0.1294 -0.1604
18356W        W22756   5.132   2.368  11.248  0.3448 -0.2006 -0.2750
18357W        W22757   2.891   6.712   9.377 -0.4125 -0.2065  0.1389
18358W        W22758  17.644   6.318  22.049  0.0819 -0.2200  0.2883
18359W        W22759  24.554   2.051   4.116 -0.2280  0.3070 -0.1491
18360W        W22760  21.035   4.070  17.736  0.0081  0.1506 -0.1494
18361W        W22761   0.921   1.300  19.391  0.0557  0.1794  0.0620
18362W        W22762  20.078   6.425   7.057 -0.0069  0.1813 -0.0928
18363W        W22763  23.543   1.183  18.505  0.2864  0.0928  0.0130
18364W        W22764  13.115   2.810  24.719 -0.0236  0.2708  0.1209
18365W        W22765   4.365   3.489  12.687  0.0382  0.1163 -0.2220
18366W        W22766   0.097   0.122  28.735 -0.0439 -0.0890 -0.0471
18367W        W22767   6.172   7.662   1.638  0.0472 -0.1156  0.0125
18368W        W22768  24.409   6.846  17.316 -0.3370 -0.1641  0.2385
18369W        W22769  22.301   6.296  18.290  0.0594 -0.2586 -0.1502
18370W        W22770   9.131   3.447  15.797 -0.0487 -0.1056 -0.1478
18371W        W22771  15.602   4.247   5.282  0.3837  0.0875  0.0862
18372W        W22772  12.525   5.927  14.333 -0.1231 -0.2503 -0.0883
18373W        W22773   6.156   7.061   0.850  0.0698  0.2276 -0.0043
18374W        W22774  10.890   5.759  29.249 -0.0496 -0.2205 -0.2470
18375W        W22775  12.360   0.648  12.968  0.1348 -0.0842 -0.2072
18376W        W22776  15.907   7.548  26.322 -0.2333  0.1600  0.0732
18377W        W22777   2.664   6.167  21.859  0.1170  0.3474 -0.1887
18378W        W22778   4.578   1.059  12.110  0.0358 -0.1893  0.1863
18379W        W22779  18.869   0.118  24.080  0.0594 -0.0867 -0.0473
18380W        W22780   0.888   3.737  11.838 -0.0188 -0.0823 -0.0513
18381W        W22781  23.289   5.479  21.876 -0.1255  0.0652  0.2427
18382W        W22782   9.040   7.663  25.098  0.0686  0.3318 -0.4251
18383W        W22783   2.656   3.362  21.387  0.1118 -0.1439  0.0502
18384W        W22784   6.881   0.848   7.699 -0.0637 -0.0403 -0.4152
18385W        W22785  23.865   1.301  29.593  0.3665  0.1355  0.1611
18386W        W22786  17.146   6.436  29.636 -0.2196 -0.1438  0.2117
18387W        W22787  15.895   6.187   7.979  0.0925 -0.0186 -0.0117
18388W        W22788   3.486   5.637  30.833  0.0781  0.1853  0.4387
18389W        W22789  22.962   2.127  31.915 -0.0184  0.3921 -0.3555
18390W        W22790  23.488   5.842  15.591  0.1296 -0.0702 -0.0570
18391W        W22791   1.755   6.503  10.700  0.3205  0.0458  0.2049
18392W        W22792   8.565   6.066  24.286 -0.1744  0.1212  0.1089
18393W        W22793   8.990   0.081  10.261  0.0772  0.2061 -0.1196
18394W        W22794  15.279   6.001  29.247 -0.1799  0.0639 -0.0607
18395W        W22795  25.007   7.307   0.208  0.3899 -0.2489  0.0689
18396W        W22796  24.511   1.671  17.822  0.0376 -0.1909 -0.1068
18397W        W22797  21.128   6.961   6.272 -0.0747  0.0536  0.0103
18398W        W22798  19.444   3.768   5.694 -0.0275 -0.1829 -0.1781
18399W        W22799   5.137   4.446   6.065 -0.3051  0.1464  0.0978
18400W        W22800   7.871   7.154  24.776  0.0618  0.3762  0.3453
18401W        W22801  20.742   2.684  25.217  0.0968  0.0558 -0.0734
18402W        W22802   1.764   3.840   0.638 -0.0396  0.4331  0.1189
18403W        W22803   0.122   2.888  26.290  0.2061 -0.2604 -0.0413
18404W        W22804  14.206   3.606  20.254  0.0746  0.2627  0.0662
18405W        W22805   2.981   0.383  19.909 -0.0050 -0.1323 -0.0972
18406W        W22806  12.969   0.671   0.783 -0.3045  0.1045 -0.1458
18407W        W22807  16.943   5.498  29.105  0.0919 -0.3729  0.2440
18408W        W22808  18.264   2.724   6.511 -0.0996 -0.0457 -0.0768
18409W        W22809  19.202   3.807  32.517 -0.0498  0.2035 -0.1409
18410W        W22810  13.754   4.092  12.450  0.1842 -0.1039  0.4972
18411W        W22811  22.495   5.932   3.145  0.2304 -0.1357 -0.0799
18412W        W22812   2.571   6.879  25.097 -0.0568 -0.2420  0.1086
18413W        W22813  13.438   2.109   2.471 -0.0564  0.1196  0.1570
18414W        W22814  13.097   5.333  24.023 -0.0928 -0.0262 -0.1342
18415W        W22815   5.591   1.388  10.868 -0.0753 -0.0647 -0.0315
18416W        W22816  12.351   5.479  29.316 -0.0372  0.0177 -0.2133
18417W        W22817   6.122   3.566  32.313 -0.2114 -0.3067 -0.1459
18418W        W22818  17.483   7.213  10.456 -0.1133 -0.2257  0.1714
18419W        W22819  23.090   4.644  15.821 -0.0363  0.0824 -0.0134
18420W        W22820  20.357   5.726   0.899 -0.2048  0.1084  0.2341
18421W        W22821   6.093   3.747  27.591  0.3997  0.1029  0.0469
18422W        W22822   0.610   5.096   1.048  0.3034  0.1700 -0.1529
18423W        W22823  16.144   5.797   5.164 -0.0685  0.0930 -0.0942
18424W        W22824  23.192   3.633   6.533 -0.0424  0.4331  0.0341
18425W        W22825   6.782   1.316   8.507  0.2313  0.1405 -0.1158
18426W        W22826   1.951   5.490   2.564  0.5514 -0.1074  0.0634
18427W        W22827   4.705   5.301   9.053 -0.0364 -0.0386 -0.1702
18428W        W22828  11.988   2.501  10.913  0.1062  0.0209 -0.0230
18429W        W22829   5.271   6.759   9.158  0.2376  0.1273 -0.1389
18430W        W22830  24.104   7.459  10.059  0.0986 -0.1794 -0.2081
18431W        W22831  16.702   3.685  29.867  0.0454 -0.0464 -0.1145
18432W        W22832  23.154   2.043   4.360 -0.0976  0.0184 -0.0237
18433W        W22833   7.545   1.545   7.850 -0.1196  0.0266 -0.2331
18434W        W22834  14.639   6.365  21.360 -0.2637 -0.4611  0.3205
18435W        W22835   1.139   5.715  22.283  0.0695 -0.2011 -0.3645
18436W        W22836   5.975   2.786   9.916  0.0963  0.0317 -0.0916
18437W        W22837   5.529   0.519  23.514 -0.2012  0.1333 -0.0354
18438W        W22838   6.905   5.087  26.555  0.0936 -0.3435  0.0962
18439W        W22839  10.846   7.097  23.814 -0.2275 -0.1217  0.1697
18440W        W22840  12.997   0.437   5.937  0.0367  0.0437 -0.3418
18441W        W22841  12.475   6.578   4.458 -0.1291  0.0238 -0.0834
18442W        W22842   5.204   3.991  24.612  0.0153  0.1598 -0.0954
18443W        W22843   4.120   5.188  28.208 -0.0321  0.1331 -0.2006
18444W        W22844  16.070   4.251   2.904 -0.0460  0.1082  0.0244
18445W        W22845   1.124   5.914  28.147 -0.0152  0.0707  0.0580
18446W        W22846  17.848   2.817   4.681 -0.2028  0.1342 -0.3326
18447W        W22847   2.049   3.852   2.131  0.5482  0.0126  0.2208
18448W        W22848   8.756   3.747  15.456 -0.1540 -0.1982 -0.1644
18449W        W22849   4.926   0.386   9.451 -0.2821 -0.1967 -0.0020
18450W        W22850  17.247   5.188   0.095  0.3654 -0.2320  0.4218
18451W        W22851  14.365   4.180   0.715 -0.0250  0.1421  0.0664
18452W        W22852   7.171   4.485  23.423  0.2147 -0.1234 -0.1840
18453W        W22853   4.002   3.622  24.661 -0.3009  0.0452  0.0131
18454W        W22854  14.887   4.329   6.111  0.0362 -0.0209 -0.3558
18455W        W22855   9.926   7.394  15.269 -0.3434  0.1518  0.2173
18456W        W22856  14.564   5.266  10.638  0.0139  0.1525  0.1525
18457W        W22857  20.502   7.296  26.897 -0.2555  0.0594  0.0536
18458W        W22858   8.572   0.318  28.473  0.1266  0.0964  0.2512
18459W        W22859  21.978   1.808  22.866 -0.1716  0.1409 -0.2591
18460W        W22860   7.669   4.594   2.547  0.2197 -0.1125 -0.1036
18461W        W22861   8.110   2.070  17.403 -0.0787 -0.2452  0.1758
18462W        W22862  11.016   7.636  25.587  0.1542  0.2620 -0.0016
18463W        W22863   0.542   4.546  27.526 -0.1041  0.0301  0.2673
18464W        W22864  23.490   6.164   2.974  0.2666 -0.0097 -0.1374
18465W        W22865  14.560   4.224  31.859  0.3284 -0.1430 -0.0343
18466W        W22866  14.791   1.182   1.516 -0.2062 -0.0415  0.3522
18467W        W22867  19.634   6.883   6.437 -0.2390  0.0543 -0.2142
18468W        W22868   3.028   6.797  26.853  0.2563  0.0659 -0.2231
18469W        W22869  24.573   1.818  16.661 -0.0678  0.2183  0.1197
18470W        W22870   7.746   3.039  15.946 -0.1412 -0.1754  0.1762
18471W        W22871  21.422   4.179   4.558  0.1338  0.1816  0.2801
18472W        W22872  14.343   5.536  12.686 -0.0679 -0.1811 -0.0525
18473W        W22873  18.000   3.739  18.307 -0.0137 -0.1354 -0.0956
18474W        W22874  13.074   6.268   1.107  0.0941 -0.2215  0.1614
18475W        W22875  24.256   0.743   3.781 -0.0469 -0.0142  0.1514
18476W        W22876   8.443   6.172   6.495  0.2518  0.0518  0.0727
18477W        W22877   0.806   1.713  23.336 -0.0518  0.1356 -0.0354
18478W        W22878  21.163   7.109  15.821  0.1509  0.0340  0.1407
18479W        W22879  13.071   0.207   1.966 -0.0322  0.1020 -0.2352
18480W        W22880  24.986   7.357  25.769 -0.0968  0.0570 -0.0895
18481W        W22881  24.053   3.928   6.234 -0.1283  0.0191  0.2228
18482W        W22882  19.085   5.966  26.813  0.2600  0.0211 -0.1185
18483W        W22883   6.840   2.760   4.592 -0.1236 -0.1188  0.0130
18484W        W22884   3.914   6.448  31.159  0.2779 -0.2634  0.2871
18485W        W22885  19.378   4.146   9.569  0.1068  0.1457 -0.0428
18486W        W22886   6.251   3.816  26.944 -0.1129  0.0582  0.1058
18487W        W22887  15.125   6.288   8.301 -0.0389 -0.0081 -0.3747
18488W        W22888   0.237   3.135  21.555  0.0961 -0.0475 -0.5170
18489W        W22889   6.187   4.861  12.554 -0.1016  0.1269  0.1656
18490W        W22890  21.403   6.552  24.154  0.3988  0.2393 -0.2050
18491W        W22891  10.753   0.517   2.990 -0.1593 -0.2506  0.1582
18492W        W22892   5.433   2.136   1.878  0.0329  0.0858 -0.1041
18493W        W22893  24.780   1.518   7.107  0.4730 -0.0572  0.2693
18494W        W22894   2.464   4.361   9.331 -0.2774 -0.0880 -0.0890
18495W        W22895  19.041   3.712  22.174  0.2817  0.2426  0.1501
18496W        W22896   8.479   1.354  32.176  0.1629 -0.0133 -0.0579
18497W        W22897  13.698   4.624  29.152 -0.0014  0.0781 -0.0437
18498W        W22898   1.549   4.284  24.077  0.3303 -0.2097  0.0577
18499W        W22899  12.660   3.684  10.785 -0.1728 -0.0495 -0.0479
18500W        W22900  13.518   6.118   8.490 -0.2268 -0.1497 -0.1830
18501W        W22901   8.297   7.364  24.827  0.0569  0.0481  0.0110
18502W        W22902  14.979   6.548   7.913  0.1512  0.0409 -0.1495
18503W        W22903   1.621   0.421   4.733  0.3168 -0.1170  0.1634
18504W        W22904  10.803   6.005  15.661  0.2617  0.0979 -0.0662
18505W        W22905  14.925   5.661   3.025  0.1990 -0.0937  0.0686
18506W        W22906  20.651   6.301  21.749  0.0271 -0.2329  0.2198
18507W        W22907  15.844   0.968   8.565  0.0514 -0.0276  0.1024
18508W        W22908   8.859   4.460  29.701  0.0896 -0.2449 -0.1939
18509W        W22909   3.950   0.901  27.312  0.0187  0.1082  0.3235
18510W        W22910  17.951   5.176  18.373  0.0995  0.1963  0.3852
18511W        W22911  14.882   4.607  28.240  0.0514  0.0401  0.1749
18512W        W22912  16.048   3.550  24.504  0.2076 -0.1717 -0.0906
18513W        W22913  14.909   5.648   9.054 -0.0277 -0.2136 -0.0089
18514W        W22914  24.191   0.895   0.619 -0.3588 -0.2462 -0.0917
18515W        W22915   7.151   5.684   3.149  0.0568  0.0488  0.3092
18516W        W22916  10.275   2.703  12.569  0.0189 -0.1798  0.0088
18517W        W22917  21.550   6.217  30.336  0.0676 -0.0201 -0.1517
18518W        W22918  17.658   5.553  10.154 -0.2047  0.1291  0.0019
18519W        W22919  10.091   3.060   5.709 -0.2064 -0.0496 -0.0413
18520W        W22920   2.978   0.835   8.906 -0.2514 -0.1363 -0.0053
18521W        W22921  13.266   5.375  29.569 -0.1117 -0.0705 -0.0863
18522W        W22922  20.532   6.609  20.022 -0.2716  0.0032  0.1331
18523W        W22923   3.943   5.154  32.315  0.2433 -0.3080  0.1742
18524W        W22924   7.625   6.428  32.491  0.0405 -0.0816  0.2971
18525W        W22925   6.103   7.685   4.938  0.1335  0.0809  0.1048
18526W        W22926   0.222   3.168  11.175  0.1110 -0.1608 -0.0953
18527W        W22927  18.734   6.332  20.894  0.1387  0.0379  0.1514
18528W        W22928  23.915   3.162  16.826  0.1361 -0.0632 -0.0448
18529W        W22929   1.595   7.810  25.284 -0.0632 -0.3093 -0.1097
18530W        W22930   9.661   4.970   0.002 -0.1996 -0.1823 -0.2195
18531W        W22931   7.279   4.637  10.869 -0.0896 -0.0485  0.1079
18532W        W22932   7.318   5.490  10.936 -0.0007  0.0742 -0.3109
18533W        W22933  13.122   1.724   4.106 -0.3812 -0.1258  0.1879
18534W        W22934  24.688   5.115   3.073  0.1460 -0.1530 -0.0723
18535W        W22935  10.535   4.859  25.987  0.1124 -0.1266 -0.2523
18536W        W22936   4.932   2.458   5.555 -0.1232 -0.1121 -0.2368
18537W        W22937  18.931   7.065  29.812  0.2936 -0.1617  0.1019
18538W        W22938  20.742   1.698  25.599 -0.3267  0.0148  0.0006
18539W        W22939   7.441   2.978  16.887  0.1012  0.0152 -0.0434
18540W        W22940   0.224   1.396  11.259  0.0565  0.0440  0.0129
18541W        W22941  16.570   5.838   3.112 -0.1214  0.5551 -0.0759
18542W        W22942  14.909   6.441  24.667 -0.1597 -0.0997  0.3167
18543W        W22943  20.182   1.465   9.700 -0.0983  0.0725 -0.0535
18544W        W22944   8.285   2.034  30.417  0.1386  0.0128  0.2137
18545W        W22945  20.485   3.952  30.665 -0.2726  0.0108  0.1342
18546W        W22946   2.579   6.219  20.301 -0.2155 -0.0543 -0.3048
18547W        W22947  11.533   1.878   5.311 -0.0824  0.1453 -0.1885
18548W        W22948  16.099   6.104  26.577 -0.3223  0.1873  0.1183
18549W        W22949   3.450   0.290  28.994  0.1092  0.1381 -0.2001
18550W        W22950  21.853   5.750   5.456  0.2528 -0.0056  0.1277
18551W        W22951   0.344   0.991  24.010 -0.0871  0.0659  0.0057
18552W        W22952   8.691   1.852   3.796  0.0575  0.0255  0.0286
18553W        W22953   0.012   6.805  16.705  0.1639  0.0852  0.2388
18554W        W22954  17.455   1.726  27.748 -0.2033  0.0162  0.0329
18555W        W22955  21.596   7.296   3.332 -0.0258  0.1520  0.1542
18556W        W22956   5.580   7.141   9.179 -0.0481 -0.0318 -0.0222
18557W        W22957  13.366   6.015  31.506 -0.0350 -0.1885 -0.0731
18558W        W22958   4.785   7.475  32.123  0.2235 -0.3121 -0.2001
18559W        W22959   0.712   4.477   3.837  0.0081  0.1346  0.2382
18560W        W22960  24.069   5.197  27.467 -0.2608 -0.0172  0.0619
18561W        W22961  24.121   1.003   8.571 -0.1043 -0.0515 -0.2606
18562W        W22962   1.478   0.680   9.091  0.1313 -0.0359 -0.3242
18563W        W22963  16.977   4.483   2.238 -0.3962  0.1518 -0.0951
18564W        W22964  15.812   0.497  26.623 -0.3657 -0.0539 -0.2209
18565W        W22965  18.724   1.413  23.511  0.1296 -0.0150 -0.0455
18566W        W22966   5.622   2.194  21.804 -0.0753 -0.1267  0.2159
18567W        W22967  13.522   6.930   8.602  0.1874  0.3626 -0.0337
18568W        W22968  21.604   4.531  30.490 -0.2124 -0.1131  0.1750
18569W        W22969  10.408   3.876   8.845  0.1004 -0.0225  0.1788
18570W        W22970  10.653   3.665  23.672  0.0814 -0.0771 -0.0088
18571W        W22971   3.117   5.608  25.842  0.1700  0.0532 -0.0362
18572W        W22972   1.731   4.831  21.357 -0.0786  0.1885 -0.1062
18573W        W22973  16.912   1.509   7.488 -0.1164 -0.1341 -0.0192
18574W        W22974   4.848   3.477  32.519  0.1099 -0.0190  0.1349
18575W        W22975   4.696   4.067  26.003 -0.1702 -0.1373 -0.0280
18576W        W22976  23.676   5.150   8.127  0.1815 -0.3234 -0.2581
18577W        W22977  18.310   2.958   8.488  0.0109  0.1327  0.0176
18578W        W22978   0.298   4.937  20.678 -0.2957  0.2170 -0.1061
18579W        W22979   1.127   1.439  29.355 -0.0722 -0.1494  0.1765
18580W        W22980   5.969   5.050  25.912 -0.0104  0.0757  0.0779
18581W        W22981  14.057   2.929   4.232  0.0694  0.0095  0.4226
18582W        W22982  24.372   7.106   6.690 -0.1738  0.0309 -0.1703
18583W        W22983  14.670   3.424  12.612 -0.0703 -0.0307 -0.1685
18584W        W22984   6.846   6.785   5.668 -0.1614 -0.2314 -0.0009
18585W        W22985   9.197   2.954  16.536  0.1412  0.1939  0.1971
18586W        W22986  18.895   5.528   1.686 -0.0105 -0.0524 -0.3401
18587W        W22987  12.368   7.089   5.438  0.0850 -0.1716  0.1749
18588W        W22988  11.783   7.651  14.172  0.0677  0.1141  0.0346
18589W        W22989   6.680   7.708  17.338 -0.1743 -0.2649 -0.0056
18590W        W22990  13.531   6.303  24.546  0.0064 -0.1236  0.0455
18591W        W22991  14.255   7.142  14.006  0.0421 -0.0403 -0.0066
18592W        W22992  18.328   2.548  17.763  0.1440 -0.1571 -0.0583
18593W        W22993   9.544   0.676  15.293  0.0706 -0.0349 -0.3684
18594W        W22994   6.899   4.137  10.370 -0.0913 -0.1089 -0.0556
18595W        W22995  24.745   0.807  32.608  0.0398  0.0316 -0.1395
18596W        W22996  19.414   0.466   8.240 -0.1059  0.0601 -0.2522
18597W        W22997  14.033   6.127   3.871  0.3003 -0.1844  0.1192
18598W        W22998  13.437   6.920  24.534 -0.0040 -0.2199  0.1494
18599W        W22999  14.443   5.571   1.735 -0.0436 -0.1601  0.0894
18600W        W23000  10.389   1.924  11.057 -0.1887  0.0380 -0.2075
18601W        W23001   9.934   6.956  24.973 -0.2243 -0.1407 -0.1769
18602W        W23002  16.153   1.245  21.205 -0.2654 -0.2894  0.0792
18603W        W23003  16.080   7.379  24.470 -0.0501  0.2451  0.2207
18604W        W23004   7.830   3.149   5.538  0.0216  0.0839 -0.2634
18605W        W23005   3.925   5.883   9.185 -0.0533  0.2955 -0.1269
18606W        W23006  20.555   1.070  14.051 -0.1809  0.1041  0.0608
18607W        W23007  18.681   3.265   8.826  0.1459  0.0541  0.0922
18608W        W23008  14.451   4.195  32.552 -0.3354  0.0884  0.2018
18609W        W23009  15.913   0.040  21.120  0.0692  0.2008  0.0102
18610W        W23010  13.212   4.263  14.883  0.1584 -0.1803  0.0784
18611W        W23011  20.422   7.656   7.445 -0.2476 -0.3247 -0.3465
18612W        W23012  23.576   2.814  28.681  0.0268 -0.3008  0.0006
18613W        W23013  16.399   1.181   9.315  0.3898 -0.0865  0.0567
18614W        W23014   6.280   6.608  15.512 -0.1290 -0.0893  0.0641
18615W        W23015   1.654   3.320  28.356  0.1114 -0.0358 -0.2246
18616W        W23016  14.258   4.450  26.753  0.0365  0.0208 -0.0517
18617W        W23017  10.568   3.241   1.932 -0.0488 -0.0053 -0.0255
18618W        W23018   1.862   1.592  23.799  0.2175 -0.1550 -0.1083
18619W        W23019  16.762   2.605  23.132 -0.0893  0.0820 -0.1612
18620W        W23020   7.383   3.258  22.682 -0.0186  0.1225 -0.0129
18621W        W23021  11.117   6.070  27.902 -0.0301 -0.0591 -0.0059
18622W        W23022  15.510   1.640  25.787 -0.2793 -0.3636 -0.2992
18623W        W23023  15.399   5.882  19.389  0.1445  0.2423 -0.1694
18624W        W23024   4.012   5.427   5.902  0.0231 -0.0263 -0.1577
18625W        W23025  23.874   6.308   1.392 -0.2236  0.0853  0.0688
18626W        W23026   7.353   1.069  30.912  0.0729  0.0322 -0.1511
18627W        W23027  22.107   6.515   8.604 -0.0559  0.0787 -0.0331
18628W        W23028  17.062   7.352  29.888 -0.0794  0.0822  0.1601
18629W        W23029   8.033   1.850   6.172  0.1050 -0.1837 -0.0230
18630W        W23030  21.399   5.794  31.131 -0.1685 -0.0500  0.0222
18631W        W23031   3.829   4.600  23.361 -0.1742  0.0628 -0.1220
18632W        W23032  15.698   2.307   4.832  0.1219 -0.0795  0.3235
18633W        W23033  20.003   1.135  32.673  0.2241 -0.0229 -0.3028
18634W        W23034   7.475   1.690  27.146  0.1310  0.1758 -0.2509
18635W        W23035   8.933   2.427   0.107  0.1299  0.2097  0.0625
18636W        W23036  17.452   6.969   5.303  0.0984  0.1462  0.1127
18637W        W23037  18.886   2.642  23.008  0.0310 -0.1022 -0.0014
18638W        W23038  23.362   4.274  30.956 -0.0878 -0.1230 -0.2140
18639W        W23039  14.575   1.837  24.899 -0.1000  0.1393  0.0070
18640W        W23040  18.234   3.299  15.377  0.1268  0.1862  0.0278
18641W        W23041   8.494   2.737   1.446  0.0931  0.0494 -0.1861
18642W        W23042  21.002   0.592   7.535  0.0210 -0.0001  0.1841
18643W        W23043  23.575   4.673  17.250  0.0468 -0.2032  0.2231
18644W        W23044  24.401   4.337   3.600  0.0072 -0.0849  0.3791
18645W        W23045   5.834   6.194  31.592  0.1736 -0.2389  0.0930
18646W        W23046   6.385   6.467  26.399  0.1405 -0.2345  0.1353
18647W        W23047  14.472   7.165  26.782 -0.2383 -0.0904  0.0711
18648W        W23048   6.405   0.860  13.800 -0.2244 -0.0627 -0.0302
18649W        W23049  21.659   7.398   2.838  0.0649 -0.0291 -0.2252
18650W        W23050   1.774   1.891   3.341  0.1268 -0.1882  0.0087
18651W        W23051  10.480   5.551  30.921 -0.3288  0.0517  0.2194
18652W        W23052  19.394   0.515  22.700 -0.2780 -0.0378 -0.1754
18653W        W23053  23.287   7.495  24.955  0.0811 -0.2472 -0.2614
18654W        W23054  21.442   5.899  14.477  0.0476 -0.0001 -0.0335
18655W        W23055  11.524   5.266  31.680  0.1224  0.1081 -0.0833
18656W        W23056   5.064   1.204  26.012 -0.0240 -0.0608  0.1387
18657W        W23057   1.220   5.115  25.506 -0.1970  0.0187  0.0655
18658W        W23058   2.119   2.858  10.119 -0.1722  0.1285  0.3014
18659W        W23059  22.431   6.275   1.386 -0.1313  0.0509 -0.1786
18660W        W23060   3.859   4.252   6.221  0.0308  0.1706 -0.0682
18661W        W23061   6.421   7.394  10.275 -0.5216 -0.2864  0.0996
18662W        W23062   9.358   7.239  30.649 -0.0878  0.1556  0.1305
18663W        W23063   4.097   2.154  12.688 -0.0398 -0.0761  0.0321
18664W        W23064   1.217   6.701  25.663  0.1932 -0.2281 -0.0355
18665W        W23065   4.415   0.824  27.628 -0.2121 -0.0424 -0.3625
18666W        W23066  11.281   3.252  26.555  0.0580 -0.0440  0.0626
18667W        W23067  15.897   1.756   8.410  0.0283 -0.0926  0.0382
18668W        W23068  14.940   6.070   4.260  0.1069  0.1973 -0.0362
18669W        W23069   4.245   5.382  26.429 -0.1284  0.0440  0.2332
18670W        W23070   2.675   4.275  21.932  0.0954 -0.2773 -0.2795
18671W        W23071   2.076   3.627  30.871 -0.0141  0.1247 -0.1365
18672W        W23072   3.898   7.751  27.121 -0.2861 -0.0929 -0.0841
18673W        W23073  14.980   5.259  30.859  0.0862 -0.2025  0.1312
18674W        W23074  23.985   6.726  21.736 -0.1833 -0.1368  0.0962
18675W        W23075  16.576   3.861  29.372 -0.1015 -0.2711 -0.0650
18676W        W23076  21.291   6.793   2.478  0.1866 -0.2759  0.2138
18677W        W23077   7.730   0.517   5.340 -0.0838 -0.3852 -0.1471
18678W        W23078   6.682   6.728   6.438 -0.0546 -0.0990  0.1105
18679W        W23079  23.813   1.575  28.565 -0.1712  0.2246 -0.1478
18680W        W23080  15.065   6.060  22.472  0.0145 -0.1838  0.0970
18681W        W23081  20.110   7.616   2.089  0.2246  0.1105  0.0483
18682W        W23082  24.263   6.107   2.149  0.1211  0.3349 -0.2268
18683W        W23083   0.625   5.905  22.582 -0.0109 -0.0820  0.0589
18684W        W23084  22.273   1.101  30.588  0.3478 -0.1648  0.0469
18685W        W23085   6.920   7.100  17.925 -0.0862  0.3313  0.2026
18686W        W23086  10.143   0.865  24.036  0.2393  0.0240 -0.0869
18687W        W23087   9.128   2.945  30.710  0.0186  0.2763  0.4253
18688W        W23088  16.479   0.360  22.281  0.1127 -0.0017  0.1678
18689W        W23089  18.457   7.713  21.141  0.0127  0.3415 -0.1238
18690W        W23090  12.411   2.718   0.201  0.1464 -0.1040  0.0428
18691W        W23091   2.544   5.179   0.975  0.0723  0.3108  0.0551
18692W        W23092   1.814   5.402  26.861 -0.1097  0.2764  0.2491
18693W        W23093   8.204   7.462  17.287 -0.1274  0.0492  0.0334
18694W        W23094  23.041   3.299   6.121  0.2804  0.3623 -0.1000
18695W        W23095  11.643   4.114  21.715 -0.1226  0.0195 -0.1475
18696W        W23096  22.482   7.817  30.302 -0.3242  0.0650  0.0828
18697W        W23097  17.838   2.116  10.375 -0.0805  0.2411  0.2035
18698W        W23098  23.214   2.112  21.650 -0.1301 -0.2661 -0.3531
18699W        W23099   9.366   2.498  12.398  0.0678  0.2711  0.0326
18700W        W23100  18.195   7.424   9.810 -0.0815  0.0321  0.6014
18701W        W23101   6.696   1.058   0.727  0.2044 -0.1534 -0.1311
18702W        W23102   7.080   4.036  28.335  0.1194  0.0413 -0.3214
18703W        W23103  24.461   0.100  21.404  0.1775  0.0700 -0.3608
18704W        W23104   9.104   7.285  14.429  0.1597 -0.0568 -0.0311
18705W        W23105  11.740   5.434   4.101 -0.0035  0.0219 -0.1033
18706W        W23106  24.004   2.504   6.480 -0.0049  0.1300 -0.0339
18707W        W23107   7.233   6.821  16.517  0.1123 -0.0638 -0.0884
18708W        W23108  13.247   0.819   2.337  0.2095 -0.0053 -0.1712
18709W        W23109  17.080   0.243   0.895  0.2106 -0.2380 -0.0978
18710W        W23110  14.675   4.816   5.017  0.0944 -0.1718 -0.0727
18711W        W23111  20.386   5.394   2.147  0.1671 -0.2710 -0.1624
18712W        W23112   9.615   0.388  27.105 -0.3121 -0.0712 -0.2310
18713W        W23113  23.594   6.697   5.951  0.0249  0.0078  0.0639
18714W        W23114  16.154   1.113  24.419 -0.0137  0.0208 -0.0834
18715W        W23115  22.728   5.535  30.492 -0.1041 -0.0377  0.0996
18716W        W23116  14.838   1.999   5.891  0.1138  0.2354 -0.0666
18717W        W23117   2.647   2.414  22.657  0.3698 -0.0452 -0.0774
18718W        W23118   5.172   3.897  23.294 -0.0105  0.1200 -0.0470
18719W        W23119   1.047   6.419  23.929 -0.2292  0.1858  0.2363
18720W        W23120   5.486   3.837   7.389 -0.0369 -0.0807  0.2009
18721W        W23121  20.744   2.080   8.362 -0.2747 -0.1477  0.2691
18722W        W23122   8.870   5.946  11.894  0.1292  0.2430  0.0974
18723W        W23123  19.871   1.697  16.546  0.2121 -0.0832 -0.1144
18724W        W23124  16.616   4.804  10.043  0.0372 -0.0394 -0.2400
18725W        W23125   9.191   2.255  11.998  0.0987  0.1168  0.0302
18726W        W23126  19.920   2.196  25.224 -0.0163 -0.1041 -0.0042
18727W        W23127   3.281   4.799   6.958 -0.0920  0.1971  0.0352
18728W        W23128  11.498   2.875   8.731  0.2193 -0.1657  0.0008
18729W        W23129  22.367   7.072  20.838 -0.2900 -0.2446 -0.0603
18730W        W23130  23.595   0.512   1.259  0.0144 -0.0147 -0.0686
18731W        W23131  14.333   0.051   5.452 -0.0607 -0.0377  0.0152
18732W        W23132   3.492   1.971  27.896 -0.0574 -0.0964 -0.0713
18733W        W23133  18.265   3.297  21.758 -0.1818  0.2456  0.0766
18734W        W23134   0.595   2.848  25.744  0.0432 -0.0034  0.0864
18735W        W23135  21.582   0.091   1.514 -0.0437 -0.1479 -0.2257
18736W        W23136   0.616   7.527  19.717 -0.0893 -0.0428 -0.1895
18737W        W23137  14.435   7.659  25.105  0.1778  0.1654 -0.0446
18738W        W23138  18.595   1.895   7.675  0.1173  0.1281 -0.1242
18739W        W23139   7.079   3.707   0.054  0.0419  0.0275 -0.1531
18740W        W23140  24.398   4.857   8.222  0.2187  0.0743  0.1249
18741W        W23141   9.465   6.757   0.751  0.1726 -0.0733 -0.2602
18742W        W23142  18.299   3.584  26.983  0.0113  0.3665  0.2338
18743W        W23143  22.806   4.795  31.637  0.0310  0.2822 -0.1594
18744W        W23144   2.340   3.927  12.101 -0.0252 -0.0660  0.0807
18745W        W23145  12.241   2.432   9.035 -0.1105  0.0181 -0.2919
18746W        W23146  11.514   5.411  10.738  0.0512  0.0397 -0.1333
18747W        W23147  13.282   1.765  25.717 -0.2107 -0.4641  0.2770
18748W        W23148  13.629   5.291   3.453  0.0143  0.0400  0.0005
18749W        W23149  16.168   4.297  31.667  0.2203  0.1227 -0.2567
18750W        W23150   5.707   6.021   0.572  0.1691 -0.1093 -0.1407
18751W        W23151  14.002   1.692   4.856 -0.2546  0.1720 -0.2935
18752W        W23152   5.904   3.210  27.518  0.0919 -0.1416  0.1126
18753W        W23153  11.793   5.668  11.542  0.0101  0.1755  0.0115
18754W        W23154  12.966   3.770  12.790  0.0740 -0.0392 -0.2133
18755W        W23155  11.547   1.633   8.561  0.1202  0.1976  0.1245
18756W        W23156   4.186   0.591  15.172  0.0562 -0.0482 -0.3469
18757W        W23157  22.454   1.588  25.761 -0.0672 -0.1990  0.5458
18758W        W23158  18.371   1.641  18.625  0.0658  0.1724  0.2024
18759W        W23159   2.613   1.652  26.151  0.1629 -0.0103  0.0306
18760W        W23160   1.479   1.358  12.024  0.3144  0.2454  0.2664
18761W        W23161  15.557   2.863  31.981  0.0377  0.2895 -0.1173
18762W        W23162  17.762   1.939   2.940 -0.2111  0.1444 -0.0869
18763W        W23163  23.337   5.003  23.991 -0.1747  0.4539 -0.1532
18764W        W23164   1.089   5.013  26.403 -0.1381  0.1215 -0.0464
18765W        W23165   6.905   0.822  22.044  0.0167 -0.0761  0.1079
18766W        W23166   6.500   0.916  22.414 -0.2383 -0.4563 -0.1537
18767W        W23167  24.077   3.717   2.893 -0.3898  0.2617 -0.1945
18768W        W23168  16.999   1.268   0.547 -0.0855 -0.4095 -0.0458
18769W        W23169   9.209   7.684  15.795  0.0978 -0.0868  0.2029
18770W        W23170  20.701   6.440  30.781 -0.2678  0.1529  0.0162
18771W        W23171  10.824   4.741  13.584  0.0033 -0.0062 -0.1903
18772W        W23172  20.677   7.035  25.845 -0.0080  0.2485 -0.1065
18773W        W23173   0.566   6.604  29.075 -0.2878  0.1405 -0.2007
18774W        W23174  22.187   2.092   0.127  0.2018 -0.0314 -0.0896
18775W        W23175  14.388   1.655   7.504 -0.0328 -0.2892 -0.0781
18776W        W23176  22.903   5.461  28.922  0.1104  0.1451  0.0490
18777W        W23177   2.987   0.493  29.095  0.0930  0.0488 -0.2762
18778W        W23178   2.655   2.775   4.124  0.0210 -0.0216 -0.0865
18779W        W23179   9.495   2.616  30.550  0.1823  0.1890  0.0106
18780W        W23180  21.486   0.645  15.871 -0.0026  0.0234  0.0056
18781W        W23181   5.336   5.675  12.158  0.0007 -0.1202  0.2196
18782W        W23182   1.428   1.366  27.571 -0.1701 -0.1652 -0.1309
18783W        W23183  24.685   7.030  23.774  0.3016 -0.2067 -0.2600
18784W        W23184  19.734   6.552   7.437  0.1516  0.0542  0.1121
18785W        W23185   5.625   3.575   0.960 -0.0117 -0.2248 -0.2811
18786W        W23186  13.936   7.282   8.484 -0.0876  0.4460  0.0111
18787W        W23187   9.790   1.792  26.635 -0.0364 -0.2104  0.0585
18788W        W23188  20.179   5.102  15.920  0.0939  0.0395  0.0646
18789W        W23189  12.874   1.044  27.533  0.0353  0.1823 -0.1001
18790W        W23190   0.706   7.480  21.484  0.0341  0.1586 -0.2504
18791W        W23191   9.763   5.127  23.689 -0.2885 -0.0030  0.0934
18792W        W23192   7.706   0.146   7.956  0.0179 -0.1716  0.3634
18793W        W23193  18.722   0.108  22.042  0.2012 -0.4227 -0.1729
18794W        W23194   3.204   5.438  24.824  0.1588  0.1701  0.0397
18795W        W23195  20.480   6.060   7.684  0.4587  0.1797  0.0066
18796W        W23196   4.292   5.309   5.407 -0.0611 -0.0502  0.4333
18797W        W23197  16.980   7.717   0.529 -0.1004  0.0491 -0.1368
18798W        W23198   4.376   6.844  30.529  0.0151 -0.0408  0.2185
18799W        W23199   5.163   6.374  11.586  0.1404 -0.0745  0.0142
18800W        W23200   0.026   1.632  24.773  0.3034  0.0315 -0.1033
18801W        W23201  13.626   0.466  12.131  0.3747  0.2121  0.1850
18802W        W23202  13.239   0.432   3.653 -0.0832 -0.0315 -0.3004
18803W        W23203  11.126   1.274  13.137  0.0944  0.1388 -0.1535
18804W        W23204   9.072   1.876  10.904 -0.3065  0.1045 -0.1964
18805W        W23205  18.960   6.008   0.762  0.0007  0.1698 -0.0661
18806W        W23206   1.686   5.125   1.900  0.0331 -0.1101 -0.0336
18807W        W23207  19.061   7.344  10.235  0.1686 -0.1185 -0.1696
18808W        W23208   4.172   2.349   8.795  0.0249  0.1418  0.0871
18809W        W23209  16.475   1.317  26.937 -0.1133 -0.0710  0.1054
18810W        W23210  16.194   1.912  23.861  0.0831  0.2233  0.1034
18811W        W23211  23.108   6.822  21.536  0.1421 -0.0692  0.2584
18812W        W23212  14.785   0.469  27.362  0.0001  0.4344  0.2277
18813W        W23213   5.736   6.808  27.415 -0.1202 -0.0781 -0.1183
18814W        W23214  21.057   1.981  25.950  0.0970  0.2497 -0.0255
18815W        W23215   8.520   6.752  19.129  0.0887 -0.0872  0.1369
18816W        W23216  12.293   4.448   6.020  0.3086 -0.0395 -0.0319
18817W        W23217   3.130   3.946  27.356 -0.1372  0.0329 -0.1544
18818W        W23218   3.559   3.488   9.592 -0.1976  0.1219  0.1589
18819W        W23219  10.664   5.731  31.357 -0.1862  0.1475 -0.0382
18820W        W23220  10.552   6.159  32.646 -0.0689  0.1001 -0.0691
18821W        W23221  10.203   3.755  12.975 -0.3592  0.1317  0.1296
18822W        W23222  21.632   4.505   5.818  0.0245  0.0556 -0.2853
18823W        W23223  14.994   1.203  11.128 -0.1783 -0.2323  0.2122
18824W        W23224   3.347   1.380   8.716  0.0059  0.0212 -0.0803
18825W        W23225   9.832   0.200   7.861 -0.0183 -0.0086  0.1001
18826W        W23226  16.730   3.221   4.287  0.0653  0.1084 -0.3746
18827W        W23227   1.233   4.341   5.039  0.1182  0.0653  0.2241
18828W        W23228   1.243   1.435  23.359 -0.0728  0.2047  0.3911
18829W        W23229   9.855   5.422   4.619 -0.0750  0.2409 -0.0008
18830W        W23230  20.374   4.269  21.838  0.3217 -0.1513 -0.0768
18831W        W23231   6.192   5.897  15.831  0.0178 -0.0890  0.0027
18832W        W23232  17.889   0.277  28.869  0.3621  0.0831 -0.1211
18833W        W23233   6.060   7.671   4.398  0.0688  0.0497  0.0852
18834W        W23234   6.793   3.917  11.203 -0.0474 -0.0068  0.2289
18835W        W23235  23.091   4.041   5.162 -0.0482 -0.1628  0.3993
18836W        W23236   6.918   4.064   0.636  0.1560 -0.2203  0.2223
18837W        W23237  22.598   0.013   7.518 -0.0616  0.1188  0.0534
18838W        W23238  24.344   0.546   0.216  0.0126  0.0018  0.1880
18839W        W23239   7.254   4.919  28.443  0.1394  0.1015 -0.3423
18840W        W23240   5.134   3.218  22.813 -0.0958  0.0817 -0.0482
18841W        W23241  24.754   0.394  21.104  0.0432  0.1323 -0.0464
18842W        W23242  13.045   6.612  29.528 -0.0628 -0.3790  0.0196
18843W        W23243  24.636   6.205  17.930  0.0843 -0.0425 -0.0007
18844W        W23244   1.535   5.849  28.810  0.1411  0.0706  0.1750
18845W        W23245  20.164   2.131   9.428 -0.0025  0.2463 -0.0336
18846W        W23246   9.393   1.239  13.793  0.0062 -0.2343  0.0014
18847W        W23247   1.618   0.320  18.640  0.0249  0.0112  0.3023
18848W        W23248   5.977   7.126  26.861  0.0445  0.0215 -0.1932
18849W        W23249  11.972   5.863  16.260 -0.1212  0.1412  0.0102
18850W        W23250  24.403   6.901   1.940  0.2189 -0.1898  0.0157
18851W        W23251  14.394   2.190   0.487 -0.1802  0.0155 -0.0038
18852W        W23252  15.797   6.066   5.975 -0.0708 -0.2280  0.0160
18853W        W23253  20.679   3.811  21.787  0.2762  0.1250  0.1005
18854W        W23254  19.249   1.869  19.672  0.0707 -0.0790 -0.0369
18855W        W23255  11.013   5.860   4.668 -0.2148 -0.2862 -0.2382
18856W        W23256  23.760   6.257  15.598 -0.1206 -0.1371  0.2315
18857W        W23257  13.484   5.503   4.938 -0.2438  0.0509  0.1386
18858W        W23258  14.717   6.075   0.164 -0.0912 -0.4012  0.1125
18859W        W23259  22.729   6.812  27.033 -0.0110 -0.1480  0.0348
18860W        W23260  24.725   0.727  23.452 -0.1802  0.0239 -0.0947
18861W        W23261   5.113   3.602   1.215  0.1522 -0.0204  0.0542
18862W        W23262  18.366   3.242  19.259  0.1609  0.1131  0.1646
18863W        W23263  16.825   2.311  22.643  0.0480 -0.0233 -0.0464
18864W        W23264  13.016   2.483  22.025  0.0592 -0.0961  0.0832
18865W        W23265   8.179   0.688   0.075  0.1315 -0.1482 -0.3564
18866W        W23266  16.897   1.236  23.923  0.3197 -0.1140  0.1838
18867W        W23267  17.965   4.776   0.706  0.0106  0.2329  0.0113
18868W        W23268  13.708   7.355  25.662 -0.0201 -0.1467 -0.2134
18869W        W23269   6.900   2.196  14.098  0.1322 -0.6072 -0.2085
18870W        W23270  13.856   6.666  23.817 -0.2261  0.2033 -0.2293
18871W        W23271  22.238   5.511   8.657 -0.0356  0.0527  0.0491
18872W        W23272   3.074   2.399  13.598  0.2474 -0.1059  0.0940
18873W        W23273  12.510   6.625  13.799  0.1452  0.3017  0.0402
18874W        W23274  12.727   7.685   1.715 -0.1650 -0.2675  0.1884
18875W        W23275   5.838   4.663  28.741 -0.1372 -0.1340 -0.2125
18876W        W23276   6.631   3.159  14.987  0.2568  0.1154  0.1514
18877W        W23277  11.798   3.900  12.028 -0.1335  0.0342  0.0031
18878W        W23278   6.961   5.150   3.114 -0.0604  0.2834  0.0295
18879W        W23279  20.540   2.748  17.804 -0.1993  0.1066  0.1740
18880W        W23280  18.936   5.246   5.094  0.0320 -0.3667  0.1796
18881W        W23281  19.746   1.155  29.993  0.1366  0.2845 -0.2501
18882W        W23282   8.697   3.047  13.649  0.0938 -0.0814  0.2287
18883W        W23283   7.478   4.388  31.395  0.1951  0.1535  0.2915
18884W        W23284   7.016   3.180   3.481  0.0036 -0.0100 -0.0005
18885W        W23285  22.609   0.061  31.153 -0.0939  0.1237  0.1600
18886W        W23286  13.730   6.135  21.817  0.0637 -0.0548 -0.2249
18887W        W23287   5.852   5.582  26.751  0.0960 -0.2692 -0.0123
18888W        W23288   5.180   3.816  21.428  0.2190  0.0554 -0.0034
18889W        W23289  10.899   7.690  13.175 -0.0295 -0.1364  0.3241
18890W        W23290  11.111   5.220   9.427  0.1099 -0.1188  0.0114
18891W        W23291   0.203   6.463   2.773  0.0124  0.2737 -0.1125
18892W        W23292   5.226   5.548  27.192 -0.1690 -0.1257 -0.0517
18893W        W23293   7.249   0.058  28.884 -0.1236 -0.0257 -0.1991
18894W        W23294  15.870   5.111  12.308  0.0701  0.0886 -0.0809
18895W        W23295   3.223   1.285  22.373  0.1195  0.1106 -0.1135
18896W        W23296  17.449   4.647  24.844 -0.1312  0.1295  0.1676
18897W        W23297   4.886   5.000   9.640 -0.1875  0.2376  0.0173
18898W        W23298   1.993   5.022  21.778 -0.0742 -0.2141 -0.0367
18899W        W23299  17.081   2.910  29.329  0.0768 -0.0618 -0.2104
18900W        W23300   5.844   7.753  32.579  0.2275  0.0707  0.4690
18901W        W23301   8.991   2.915  10.057  0.1140  0.2514 -0.2376
18902W        W23302   5.665   6.067  15.100 -0.1009 -0.2075  0.2168
18903W        W23303  19.201   3.274  10.741  0.1409 -0.1446 -0.2087
18904W        W23304  18.163   3.711  20.282 -0.0665 -0.2562  0.1973
18905W        W23305   4.120   1.617   4.131 -0.0533 -0.0878  0.2640
18906W        W23306   9.846   4.191   6.203 -0.0609 -0.2548 -0.1434
18907W        W23307   2.342   2.576  30.843  0.4196 -0.0281  0.2011
18908W        W23308  12.667   6.151  11.475 -0.1189 -0.2172  0.1266
18909W        W23309   3.941   0.076   4.628  0.0794 -0.1744  0.3017
18910W        W23310   1.897   5.668  22.853 -0.3134 -0.2047  0.1687
18911W        W23311  22.738   6.390  18.590 -0.0565  0.0320  0.0052
18912W        W23312   5.853   2.809  24.334 -0.0611  0.1797  0.5140
18913W        W23313  16.165   1.349  19.618 -0.2855  0.1319 -0.0445
18914W        W23314  12.910   4.977  29.639  0.2472 -0.0156 -0.0333
18915W        W23315  15.840   4.124  23.884  0.4105 -0.1783  0.0304
18916W        W23316  20.970   1.513  22.900 -0.1329  0.0310  0.0753
18917W        W23317   5.009   6.698   1.514 -0.1399  0.1325 -0.1097
18918W        W23318  13.260   1.282  24.637  0.1455 -0.1490 -0.2893
18919W        W23319  12.631   3.014  27.025 -0.1368 -0.0521 -0.0151
18920W        W23320  17.965   5.051  27.962  0.3501  0.1911 -0.0435
18921W        W23321   9.473   4.756   1.935  0.0363 -0.1486  0.1883
18922W        W23322   6.547   7.335  29.213 -0.0873  0.2300 -0.0122
18923W        W23323   1.901   2.342  21.904  0.1937  0.0472  0.0983
18924W        W23324  15.673   7.768  10.072 -0.0171  0.2167  0.1294
18925W        W23325   4.747   0.542  23.915  0.4355 -0.1206  0.0700
18926W        W23326   6.838   7.584   6.326 -0.0157 -0.2161 -0.1281
18927W        W23327  13.209   2.103   3.729  0.1347 -0.2841  0.1626
18928W        W23328   6.958   7.796   3.084  0.3377  0.1701  0.0376
18929W        W23329  13.537   4.137  27.799  0.1787  0.1467  0.2031
18930W        W23330  19.395   6.071   6.587 -0.0532 -0.2968  0.0731
18931W        W23331   4.181   6.452   2.001 -0.3504  0.2104  0.2169
18932W        W23332   8.023   7.667  25.101 -0.0366  0.2843 -0.2524
18933W        W23333   9.511   0.570  18.359 -0.0684 -0.4628 -0.1663
18934W        W23334  11.662   0.203   0.638  0.0875 -0.0752 -0.0991
18935W        W23335  13.896   5.798  31.165 -0.1375 -0.1211  0.2341
18936W        W23336  22.659   0.226   8.042 -0.1775  0.0267  0.0675
18937W        W23337  18.229   3.729  27.486 -0.1121 -0.3984 -0.2058
18938W        W23338   3.205   1.093  25.696 -0.1475 -0.2070  0.0588
18939W        W23339  23.820   0.413  10.066  0.1506 -0.1986  0.0314
18940W        W23340   1.159   0.142  22.272  0.1137 -0.2408 -0.1742
18941W        W23341   7.794   2.175  29.082  0.3861  0.3837  0.1049
18942W        W23342  23.678   1.500  22.781  0.0663 -0.0056  0.1037
18943W        W23343   0.424   3.798  19.509  0.0922  0.4752  0.2842
18944W        W23344   7.234   2.303  27.719  0.1247  0.0107  0.1672
18945W        W23345  14.860   3.173  25.174 -0.0292  0.1034  0.1966
18946W        W23346  15.886   2.629   0.309  0.1406  0.0594  0.3191
18947W        W23347  21.512   1.765  14.625 -0.0224 -0.0476 -0.0941
18948W        W23348   0.217   2.146   2.384 -0.1994 -0.1085  0.2260
18949W        W23349  13.479   0.509  25.207 -0.1352 -0.0797  0.1882
18950W        W23350  20.049   5.135  21.647 -0.0284 -0.2165 -0.4864
18951W        W23351   3.586   7.459   6.191 -0.0351  0.2005 -0.2722
18952W        W23352   3.112   0.001   5.469 -0.0626 -0.4133 -0.0888
18953W        W23353  21.796   4.814  25.071  0.2429  0.2663  0.0814
18954W        W23354  19.580   4.667   6.776  0.0925  0.0024  0.1675
18955W        W23355  17.993   5.779  25.868  0.0856  0.0964 -0.0450
18956W        W23356  15.331   2.377  28.723  0.4870  0.0138  0.1552
18957W        W23357  20.373   0.842  31.595 -0.0260  0.1283 -0.2469
18958W        W23358   5.695   0.606   2.479  0.0358 -0.1704 -0.0633
18959W        W23359  14.677   2.389   0.857 -0.0506  0.2946 -0.3124
18960W        W23360  19.555   7.271  21.565 -0.1385  0.1725  0.0242
18961W        W23361   1.203   0.755   0.303  0.1781 -0.0163 -0.1136
18962W        W23362   5.810   1.605   8.316  0.1512 -0.0289 -0.1073
18963W        W23363   4.762   4.146   5.993  0.2387  0.3053 -0.1117
18964W        W23364  23.216   5.701   1.570 -0.2447 -0.1148  0.1598
18965W        W23365   1.958   0.458  19.009 -0.2539 -0.0033 -0.0273
18966W        W23366   7.140   7.319  28.281  0.1878  0.4194 -0.1038
18967W        W23367  20.380   6.041   8.917  0.2673  0.1930  0.0568
18968W        W23368  10.212   0.498   3.111  0.0408  0.1189  0.1139
18969W        W23369   7.299   2.182  18.726  0.0874  0.0948  0.1172
18970W        W23370  17.696   3.220  16.141  0.0812  0.2199 -0.4152
18971W        W23371   1.933   4.833  26.836 -0.1435 -0.0871 -0.2093
18972W        W23372  14.466   3.315   9.623  0.3024  0.2067  0.0196
18973W        W23373   1.498   4.468   8.074 -0.3515  0.1706 -0.4926
18974W        W23374  22.876   0.432  31.413  0.1779  0.0128 -0.1447
18975W        W23375  18.911   6.667   5.753 -0.0880 -0.0627 -0.3163
18976W        W23376  23.593   6.718   1.425 -0.2327 -0.1915 -0.1236
18977W        W23377   0.582   1.654  19.382 -0.0684 -0.0386  0.1334
18978W        W23378  14.725   5.674  23.041 -0.0154  0.3178  0.2672
18979W        W23379  19.205   4.042  18.529 -0.1556 -0.0497  0.3917
18980W        W23380  10.144   1.393  23.119  0.2681 -0.1107 -0.0888
18981W        W23381  11.372   2.957  15.412 -0.2576  0.1093 -0.1931
18982W        W23382   5.248   3.670  31.281 -0.0501  0.1262 -0.0255
18983W        W23383  21.978   1.622  25.633  0.0923 -0.0527 -0.0056
18984W        W23384   3.447   0.695  22.921 -0.1037  0.2263 -0.4610
18985W        W23385  19.166   2.790  24.435 -0.0792 -0.1191  0.1223
18986W        W23386  10.040   1.093  28.794 -0.0703  0.2628 -0.2344
18987W        W23387   7.864   7.112  12.278 -0.2244  0.0086 -0.0607
18988W        W23388  16.209   5.417   8.345  0.0133  0.2805  0.1824
18989W        W23389   3.335   5.879  31.722  0.1998 -0.2073 -0.2491
18990W        W23390   0.862   1.060   4.656  0.2033 -0.0082 -0.2981
18991W        W23391   9.323   3.620  11.991  0.1010 -0.0656 -0.4296
18992W        W23392  23.878   7.296  19.554  0.1062 -0.1206  0.3244
18993W        W23393  15.499   1.969  28.471 -0.1446 -0.1850  0.1225
18994W        W23394   5.513   0.599   9.699 -0.0733 -0.2780  0.2604
18995W        W23395  19.684   5.413   5.034  0.2411 -0.1465  0.0607
18996W        W23396   7.372   4.223  25.802 -0.1256  0.3263 -0.0402
18997W        W23397  16.124   5.566   7.429  0.0623  0.1551  0.0561
18998W        W23398   0.556   7.484  29.168 -0.0985  0.2083 -0.2866
18999W        W23399  24.599   4.159  25.622 -0.0891  0.1203 -0.0389
19000W        W23400  21.713   1.758   4.999  0.0869  0.0016 -0.0219
19001W        W23401  23.614   0.325  15.468 -0.1365 -0.0180 -0.1170
19002W        W23402  15.999   3.053  32.232  0.3827 -0.1649  0.0013
19003W        W23403  15.919   2.027  22.829  0.1379 -0.1093  0.2024
19004W        W23404   8.738   4.430  16.370  0.4331  0.1800  0.0022
19005W        W23405  15.685   0.630  23.362  0.0625  0.3440 -0.1321
19006W        W23406   5.095   6.812   8.208 -0.1229  0.0743 -0.1976
19007W        W23407  15.488   7.190  29.591  0.3348 -0.2484  0.1578
19008W        W23408   0.445   1.090   5.820 -0.0667 -0.0421  0.0042
19009W        W23409  24.503   2.177   7.711 -0.2039  0.0157 -0.0892
19010W        W23410  15.401   2.201  29.196  0.0327  0.0204 -0.2946
19011W        W23411  11.350   0.269   6.779 -0.3515  0.0666 -0.0347
19012W        W23412  11.616   1.134  32.384  0.1447 -0.0770  0.1904
19013W        W23413   0.731   4.078   2.972 -0.2783  0.0803  0.1129
19014W        W23414   1.511   3.828  21.511 -0.3781  0.0928  0.1821
19015W        W23415   1.531   2.544  29.476 -0.0757 -0.1264  0.0942
19016W        W23416   1.382   5.361   9.325  0.1394  0.0233 -0.2771
19017W        W23417  20.706   4.531  19.112 -0.0025 -0.1589  0.0726
19018W        W23418  18.675   4.063   0.993  0.1735 -0.2030 -0.1197
19019W        W23419   1.227   2.894   2.793  0.0281  0.2807 -0.1528
19020W        W23420  24.697   2.869   4.320  0.0421 -0.1301 -0.1184
19021W        W23421   7.564   2.601   2.634 -0.1838  0.1746  0.0048
19022W        W23422  17.575   4.347  27.464 -0.2316 -0.0729 -0.1604
19023W        W23423  15.581   2.776  21.031  0.1811 -0.0604  0.2542
19024W        W23424  15.332   0.513   0.476 -0.3388  0.0787 -0.1821
19025W        W23425  17.326   5.409  27.197 -0.0174  0.1637 -0.2934
19026W        W23426  19.791   7.781  21.060  0.0508  0.1145 -0.1327
19027W        W23427  13.308   2.948  25.601  0.0262 -0.3058  0.1593
19028W        W23428  24.067   3.517  22.761 -0.3631 -0.3483  0.1734
19029W        W23429   8.118   0.622   9.334  0.3827  0.1081  0.2570
19030W        W23430  21.969   2.009  26.911 -0.2552 -0.0576 -0.1937
19031W        W23431  24.760   2.217   5.525  0.1394 -0.0229 -0.0588
19032W        W23432   2.878   5.331   3.793 -0.0123 -0.0769 -0.0224
19033W        W23433  22.880   1.093  19.962 -0.1935  0.0731  0.0572
19034W        W23434  12.128   6.189   7.077  0.2675 -0.2975 -0.0251
19035W        W23435   3.691   7.130  12.846 -0.1556 -0.0936  0.1137
19036W        W23436  20.506   0.241  20.939  0.0126 -0.1365  0.0855
19037W        W23437   5.479   3.491  10.655 -0.0640  0.2017  0.1408
19038W        W23438  23.916   3.734  16.168  0.1068 -0.0105 -0.0081
19039W        W23439  13.749   6.507  13.748 -0.1020  0.0683  0.0301
19040W        W23440  21.161   4.032  16.587 -0.1241 -0.4328  0.0694
19041W        W23441  22.938   4.673   7.106 -0.0162  0.4064 -0.2231
19042W        W23442   5.914   2.665   4.772 -0.1367 -0.1036 -0.0146
19043W        W23443  14.785   4.155  21.101  0.2308  0.3709 -0.4406
19044W        W23444  19.063   0.111  10.705  0.0599  0.2316 -0.3744
19045W        W23445  21.739   6.349  26.961  0.2148 -0.2167  0.1332
19046W        W23446  11.824   5.995   7.430  0.0422 -0.0122  0.1110
19047W        W23447   6.552   0.527  10.513 -0.0214  0.1447 -0.3395
19048W        W23448   7.489   7.703   3.209 -0.0244  0.2042  0.1052
19049W        W23449   2.096   7.523  12.098 -0.3797 -0.2305 -0.0651
19050W        W23450  24.831   3.306   8.985 -0.0987 -0.1557  0.3723
19051W        W23451  10.359   6.569  11.976  0.1466  0.1435  0.1030
19052W        W23452  18.100   2.125  26.151 -0.2484 -0.1890 -0.0125
19053W        W23453   9.547   3.034  15.097  0.1226 -0.0252 -0.0619
19054W        W23454  14.440   2.390  31.107 -0.3580  0.0356 -0.0648
19055W        W23455  13.816   2.996  25.406  0.1418  0.4989 -0.2567
19056W        W23456  13.761   0.448   2.595 -0.1898  0.2138  0.0172
19057W        W23457   9.111   2.196  17.462  0.1326  0.3206 -0.1398
19058W        W23458   7.054   7.763  18.616  0.1788  0.0525  0.1754
19059W        W23459   7.005   0.232  12.609  0.0176 -0.2913 -0.1750
19060W        W23460   8.098   1.853  18.159 -0.0753 -0.1482  0.0887
19061W        W23461   4.475   6.298   7.972 -0.0297 -0.0282 -0.2030
19062W        W23462   8.558   3.484  23.325  0.0444 -0.2889  0.2277
19063W        W23463  10.138   6.692  23.233 -0.0631 -0.0642  0.0095
19064W        W23464   4.934   5.421   2.716  0.3510 -0.0426 -0.0446
19065W        W23465   6.935   0.580   9.795 -0.0772 -0.2916  0.0601
19066W        W23466  17.202   5.914  26.107 -0.1288  0.3226  0.1630
19067W        W23467  15.161   0.684  31.336 -0.0588  0.1482  0.1339
19068W        W23468  10.951   6.971  15.535  0.0113  0.2420  0.1636
19069W        W23469  17.757   5.927  28.483 -0.1039 -0.0587  0.1116
19070W        W23470  22.091   0.166  25.013  0.0816 -0.0722  0.1248
19071W        W23471   7.385   3.833   5.879  0.0556 -0.0346  0.1882
19072W        W23472   6.908   1.312   3.133 -0.1545 -0.1672  0.0609
19073W        W23473   9.193   5.291  26.420  0.2656  0.3115  0.0056
19074W        W23474   6.468   2.370  17.017  0.0717 -0.0401 -0.0719
19075W        W23475   8.579   6.145   8.406 -0.1464 -0.1175 -0.1482
19076W        W23476  20.812   4.840   7.678 -0.2399 -0.0526 -0.0117
19077W        W23477   4.939   4.902   0.658  0.0872 -0.2500 -0.0659
19078W        W23478   9.777   1.015  23.279  0.4772 -0.0853 -0.0240
19079W        W23479   2.729   1.153  30.750  0.1746  0.0294 -0.1319
19080W        W23480   2.822   1.346  24.132  0.2231 -0.0820  0.0269
19081W        W23481  12.985   5.633  12.997 -0.2154  0.2017  0.0013
19082W        W23482  10.897   0.669  11.633  0.0383  0.0876  0.1837
19083W        W23483  24.357   7.138  26.525 -0.3247  0.1731 -0.0179
19084W        W23484  18.638   2.911   2.694  0.2950 -0.0324  0.0487
19085W        W23485  23.338   2.984   5.418  0.0346  0.0739 -0.2857
19086W        W23486   8.982   7.214  11.609 -0.0581 -0.1519 -0.3324
19087W        W23487   6.365   7.694  11.501  0.0013 -0.1630 -0.5444
19088W        W23488  12.287   6.015   3.882 -0.1111  0.4087 -0.2017
19089W        W23489  22.884   0.988  17.565  0.0809  0.2903 -0.0931
19090W        W23490   9.923   5.108   7.698  0.2858 -0.1033 -0.0883
19091W        W23491  17.803   7.212   9.999 -0.2283  0.0085 -0.2429
19092W        W23492   1.863   6.899  24.539  0.0660 -0.1953  0.0691
19093W        W23493   9.203   7.375   4.415 -0.2044 -0.3252  0.0507
19094W        W23494  18.361   5.203  17.100  0.0967 -0.0879  0.3311
19095W        W23495   7.931   0.737   5.787 -0.0385  0.2057 -0.3518
19096W        W23496  23.009   7.537  32.286 -0.1720 -0.2701  0.1196
19097W        W23497   9.478   5.105  15.910  0.2821 -0.1572 -0.3325
19098W        W23498  22.077   1.930   1.919  0.0832  0.1947  0.1671
19099W        W23499   5.550   3.127   5.963  0.2222 -0.0817  0.0983
19100W        W23500  24.881   1.029  24.792  0.1437 -0.2730  0.0061
19101W        W23501   8.571   2.102  25.575 -0.1191  0.0773  0.1470
19102W        W23502  24.609   3.888  25.146  0.1477  0.2147  0.4172
19103W        W23503  21.440   2.827   5.820 -0.0105 -0.0704  0.0132
19104W        W23504   4.563   5.059  32.649 -0.1478  0.1944  0.1958
19105W        W23505   2.201   5.177   8.593 -0.1825  0.1209 -0.1717
19106W        W23506   6.028   1.776  23.219 -0.2046  0.1610  0.1011
19107W        W23507  14.212   7.547   7.648 -0.0644  0.0999 -0.1731
19108W        W23508   4.534   6.265  24.772 -0.1440  0.1553  0.1235
19109W        W23509  23.094   2.578   1.817  0.0752 -0.1957 -0.0865
19110W        W23510  17.512   0.896  18.861 -0.0597 -0.3115  0.0147
19111W        W23511  13.442   7.184  11.543  0.0547  0.0563 -0.1226
19112W        W23512   5.538   1.938  27.699 -0.0529  0.2164 -0.0193
19113W        W23513   2.570   3.451  22.415 -0.4365  0.2711 -0.2052
19114W        W23514  11.456   7.216   3.443 -0.0679 -0.1941 -0.4046
19115W        W23515   6.782   2.969   9.621 -0.3097 -0.1680  0.4619
19116W        W23516   5.314   5.281  23.806 -0.0008 -0.0077 -0.0915
19117W        W23517  13.602   1.001  20.789  0.0808  0.2737 -0.2099
19118W        W23518  16.550   7.632  10.271 -0.0269  0.1254  0.0044
19119W        W23519   7.953   1.518  16.721 -0.0193  0.0986  0.2178
19120W        W23520  21.562   0.503   5.229  0.1102  0.4995 -0.2368
19121W        W23521  21.525   3.308   3.128 -0.0435  0.2405  0.1070
19122W        W23522   7.201   6.089  23.166  0.0380 -0.1726 -0.3419
19123W        W23523   9.308   7.813  30.941  0.2032  0.2370  0.0857
19124W        W23524  23.224   3.028  14.927  0.0268 -0.0746  0.2870
19125W        W23525  15.727   5.342   7.520 -0.2677 -0.1005  0.0486
19126W        W23526  13.372   2.169   5.380  0.1770  0.0902 -0.1139
19127W        W23527  13.924   7.346   2.238  0.0476  0.4210 -0.0799
19128W        W23528  19.522   6.415   3.807  0.1113 -0.1768 -0.0073
19129W        W23529   6.736   1.767  10.413 -0.0276  0.2317 -0.3470
19130W        W23530  22.958   6.249   0.072  0.1348  0.0546  0.1237
19131W        W23531  10.195   3.050  23.740  0.0492 -0.0784 -0.1351
19132W        W23532  21.390   1.519  26.376 -0.3630  0.0216 -0.0980
19133W        W23533   5.431   6.046   8.161  0.2955  0.1653 -0.1106
19134W        W23534  18.461   1.836  23.457 -0.0544 -0.0837 -0.0944
19135W        W23535   0.425   0.210   4.639  0.1959 -0.2401 -0.2869
19136W        W23536  13.817   7.590  26.306 -0.3912  0.2900  0.1090
19137W        W23537   8.897   1.093   0.246  0.1492  0.2272 -0.0730
19138W        W23538  16.563   4.329   8.989  0.2252 -0.1510  0.0536
19139W        W23539   7.170   5.445   3.577  0.0275  0.2143  0.0568
19140W        W23540  12.075   4.375   3.560 -0.2336  0.5224  0.0366
19141W        W23541   1.234   3.443  10.351 -0.2303  0.0737 -0.0041
19142W        W23542   8.721   7.135  23.238  0.0978 -0.1762 -0.0136
19143W        W23543  23.661   2.107  28.994  0.4123  0.3795 -0.1440
19144W        W23544  20.681   1.695  16.336 -0.0681  0.1842  0.1531
19145W        W23545  19.031   2.588   8.866  0.2144 -0.1769  0.0238
19146W        W23546   9.788   2.127  13.687  0.1741 -0.2377 -0.1147
19147W        W23547  10.379   6.133  13.986  0.2142 -0.0029  0.0597
19148W        W23548  13.988   7.152  30.622 -0.0714  0.1246  0.0570
19149W        W23549   5.965   6.767   9.079 -0.0552  0.0675 -0.2751
19150W        W23550   5.807   4.183  28.459 -0.0608  0.1926 -0.0970
19151W        W23551  15.327   4.690  28.372  0.4480 -0.1109 -0.0507
19152W        W23552   9.919   3.133   6.969  0.1542  0.0508 -0.2985
19153W        W23553  20.008   5.202  21.121  0.3038 -0.0578 -0.1685
19154W        W23554  12.241   4.864  13.561 -0.0935  0.3577  0.1175
19155W        W23555   1.064   5.737  24.325 -0.1074  0.1461 -0.0510
19156W        W23556  21.264   0.707  18.770 -0.1994  0.0311  0.4321
19157W        W23557  19.102   5.294  17.465 -0.1652  0.3357  0.0270
19158W        W23558  22.276   5.350  21.488 -0.0095  0.1630  0.1011
19159W        W23559  19.244   2.026  24.167 -0.1207  0.0354 -0.0865
19160W        W23560   9.180   4.304   5.515  0.1776 -0.1010 -0.2179
19161W        W23561   4.770   3.288  11.288  0.0808  0.0360 -0.0015
19162W        W23562   9.346   0.928   0.643  0.2476  0.1513 -0.3998
19163W        W23563  16.993   2.482  25.496 -0.0264  0.1015 -0.1754
19164W        W23564   0.074   1.358  25.860  0.3079  0.4559 -0.1111
19165W        W23565  13.068   5.996   1.486 -0.0175  0.0844 -0.1836
19166W        W23566  11.306   6.451  21.731 -0.2166 -0.1994 -0.0860
19167W        W23567   1.301   6.760  24.321 -0.0351  0.2136  0.0445
19168W        W23568  15.711   2.442  26.714  0.0230 -0.3462 -0.4721
19169W        W23569  22.589   5.751   4.860 -0.1199  0.0207  0.2159
19170W        W23570  17.889   0.877  30.200 -0.1481  0.1304 -0.0266
19171W        W23571  14.484   1.978   2.290  0.0300  0.0062 -0.2098
19172W        W23572  14.180   1.568   2.395  0.0705  0.0557  0.1360
19173W        W23573   6.083   0.501   6.519 -0.1344 -0.1987 -0.0636
19174W        W23574  23.115   3.757   7.836 -0.2139  0.1209  0.0247
19175W        W23575  10.745   4.241  30.377 -0.2565 -0.4459  0.2423
19176W        W23576   0.697   0.571   3.815 -0.0443 -0.1831 -0.1049
19177W        W23577  23.692   7.136   6.546  0.1037  0.1693  0.1675
19178W        W23578   5.053   1.205  29.565  0.0543  0.0257  0.0293
19179W        W23579   0.750   5.017  25.392  0.0367  0.0117  0.1043
19180W        W23580   2.956   7.491  24.275 -0.0090 -0.2559 -0.0524
19181W        W23581  15.240   1.632  24.598 -0.1534  0.0904 -0.0699
19182W        W23582  17.784   3.738   5.245 -0.0438  0.1041  0.0220
19183W        W23583  16.181   1.446  29.203  0.2687 -0.1233  0.4605
19184W        W23584  17.107   4.644   4.285  0.0850 -0.0787  0.0953
19185W        W23585  11.540   3.947   7.440  0.2601  0.0542  0.2169
19186W        W23586  22.970   4.367   6.087  0.0465  0.0140  0.1430
19187W        W23587  19.962   6.773  23.639  0.2440 -0.1938 -0.3327
19188W        W23588   9.381   4.065   6.576  0.1407 -0.3050 -0.0139
19189W        W23589   9.870   3.653  28.765 -0.4496  0.2847  0.0581
19190W        W23590   8.772   4.086  29.378  0.0892 -0.1403  0.4399
19191W        W23591  14.362   0.043  28.084  0.1614  0.1907  0.0324
19192W        W23592  18.301   4.279   6.031  0.3131  0.2462 -0.0241
19193W        W23593  13.606   5.601  24.824  0.0077 -0.1689  0.0489
19194W        W23594   0.738   4.915   7.842 -0.4351  0.2330 -0.0732
19195W        W23595   3.507   1.313  29.030 -0.1138  0.0325  0.1238
19196W        W23596  24.322   5.665  14.955 -0.0260 -0.2845 -0.0034
19197W        W23597  10.538   3.597  31.422  0.1284  0.2281  0.2121
19198W        W23598   9.271   6.854  23.359  0.1289  0.2587  0.0908
19199W        W23599   4.183   5.985   2.665 -0.2656 -0.3073  0.3372
19200W        W23600   5.704   0.433  15.755  0.1375  0.0521  0.1191
19201W        W23601   8.935   1.460  29.956  0.1005  0.1870  0.4727
19202W        W23602  21.033   2.282  23.385 -0.2326 -0.1039 -0.1633
19203W        W23603   4.644   6.237  23.286  0.0744 -0.0634  0.0618
19204W        W23604   4.177   3.564  29.233  0.0395 -0.1626 -0.0196
19205W        W23605  22.808   3.502   5.716 -0.0193 -0.3117  0.0372
19206W        W23606   8.776   0.439   9.986 -0.0846  0.0694 -0.0573
19207W        W23607  24.307   7.555  28.955  0.0851  0.2806  0.1483
19208W        W23608   6.948   0.717  16.547  0.0146 -0.0427  0.0563
19209W        W23609  10.316   2.260  25.265 -0.2996  0.1134 -0.0704
19210W        W23610   6.704   4.402   5.518  0.2413 -0.1776 -0.2775
19211W        W23611  11.007   2.220   8.355 -0.2838  0.1512 -0.0831
19212W        W23612   5.415   2.254  13.799 -0.2120  0.1325  0.2462
19213W        W23613  16.803   4.364  30.578  0.0576 -0.2119  0.0783
19214W        W23614  13.679   3.338   6.063 -0.1125 -0.1956 -0.0943
19215W        W23615  15.366   2.387   6.001 -0.1835 -0.2814 -0.0525
19216W        W23616  10.985   2.225  24.315  0.0837  0.0231  0.0910
19217W        W23617  13.311   6.965  12.040  0.0165 -0.1240  0.1512
19218W        W23618  16.800   4.097  18.409 -0.3710  0.2880  0.0159
19219W        W23619  22.841   7.666  28.027  0.0483 -0.0540  0.0339
19220W        W23620  16.753   4.255   2.683  0.0453  0.0575 -0.0575
19221W        W23621  21.093   3.138  32.363 -0.0917 -0.3471 -0.1857
19222W        W23622   6.661   5.270  27.035  0.0652 -0.4673  0.1587
19223W        W23623  19.382   6.569   1.398 -0.0494  0.1780  0.0798
19224W        W23624  24.315   2.685  23.182  0.1512  0.2302 -0.0981
19225W        W23625   1.127   1.532  32.292 -0.1541 -0.2220 -0.2619
19226W        W23626  24.193   3.821  21.176  0.0357  0.3070 -0.0006
19227W        W23627   3.722   1.878  11.593 -0.0886  0.1109  0.0280
19228W        W23628  22.658   3.487  31.872 -0.1069  0.1617  0.1243
19229W        W23629  19.789   5.516  15.190  0.2526 -0.1311 -0.6265
19230W        W23630  21.753   6.282  17.055  0.2051 -0.1409  0.0349
19231W        W23631   0.333   0.475   2.848  0.1939 -0.0822 -0.0246
19232W        W23632  15.290   6.728  26.045 -0.3030 -0.2394  0.1932
19233W        W23633  16.911   0.532   2.618  0.3056 -0.0411  0.0344
19234W        W23634  11.985   0.915   3.795 -0.0981  0.2951 -0.3209
19235W        W23635  24.859   2.339   3.244  0.1807  0.1004 -0.0850
19236W        W23636  10.922   5.686   9.480  0.1945  0.3295 -0.0143
19237W        W23637   5.786   0.955  10.802 -0.3934  0.2672  0.2760
19238W        W23638  10.272   2.288  15.491 -0.1280  0.2669 -0.0439
19239W        W23639  18.082   7.374   5.798 -0.0478 -0.3918 -0.0159
19240W        W23640   7.382   5.704  31.326  0.1382 -0.2784 -0.2372
19241W        W23641   8.638   0.636   1.721  0.0956 -0.3793  0.1258
19242W        W23642  14.495   4.222  24.667  0.1890 -0.1206  0.0865
19243W        W23643  16.585   0.099  20.360  0.3684 -0.1629 -0.0014
19244W        W23644  14.792   2.670   0.323 -0.1335 -0.0049 -0.1354
19245W        W23645   1.313   1.655  10.684  0.1845 -0.0653  0.0401
19246W        W23646   7.372   5.516  30.201  0.0280 -0.0271 -0.0224
19247W        W23647   4.557   0.403   6.728  0.0783 -0.1271 -0.0887
19248W        W23648   4.012   3.824  32.236  0.1525 -0.0577  0.0003
19249W        W23649   7.749   4.073  29.122  0.0882  0.0957 -0.0743
19250W        W23650  16.668   3.877  28.603  0.0678 -0.2713 -0.0892
19251W        W23651  18.662   5.602   2.467 -0.0037 -0.0415 -0.0939
19252W        W23652   1.701   2.183  24.514  0.0063  0.0116 -0.1766
19253W        W23653  17.532   1.618   7.488 -0.0270  0.1093  0.1338
19254W        W23654   8.072   4.427  17.930 -0.0660  0.1256 -0.2766
19255W        W23655  13.770   5.469  29.718 -0.0697 -0.2177 -0.0485
19256W        W23656   5.430   7.284   1.429  0.0609 -0.2582 -0.0112
19257W        W23657  24.983   6.119  32.435 -0.0888 -0.2008  0.2028
19258W        W23658  21.121   0.875  16.137 -0.1880  0.1130  0.2306
19259W        W23659  23.079   0.679  28.891  0.1743  0.2377 -0.0124
19260W        W23660  18.898   2.644  25.208  0.1266 -0.0791 -0.1679
19261W        W23661  12.495   7.001  24.493  0.3005 -0.5610 -0.2814
19262W        W23662  10.098   5.397   3.682 -0.0129 -0.1679  0.1060
19263W        W23663  19.683   5.848  31.716 -0.0701  0.0411 -0.3174
19264W        W23664  22.076   6.440   2.971 -0.1517  0.0503  0.0675
19265W        W23665  22.029   4.736  18.659 -0.0195 -0.0780  0.2234
19266W        W23666  24.617   4.643   0.295 -0.1345  0.0625 -0.1416
19267W        W23667   3.327   2.456  11.713 -0.4392  0.0228  0.1819
19268W        W23668  15.064   3.149  23.058 -0.1592  0.3753  0.0263
19269W        W23669  13.724   3.411  11.763 -0.1483  0.0734 -0.0340
19270W        W23670  15.321   0.444   3.673 -0.0368 -0.0411  0.0467
19271W        W23671  23.019   2.700  31.914 -0.4352  0.0959  0.2837
19272W        W23672  24.435   4.435  17.229  0.0118  0.0641 -0.1280
19273W        W23673  17.212   1.796  26.713 -0.0862 -0.0178 -0.1977
19274W        W23674  19.472   0.319  20.800 -0.1630  0.0425  0.0075
19275W        W23675   2.812   7.794   3.828 -0.0356  0.0394  0.0781
19276W        W23676  17.093   2.848   4.297  0.0896 -0.0129  0.2080
19277W        W23677  11.057   6.627   7.295 -0.0577 -0.2414 -0.4666
19278W        W23678   4.015   2.335   5.567 -0.2154  0.3094  0.0874
19279W        W23679  21.999   5.104   1.964  0.0418  0.2423 -0.0085
19280W        W23680   5.164   5.781  13.953 -0.1829 -0.2687 -0.3309
19281W        W23681  17.694   4.816  22.732  0.0620  0.2227  0.0635
19282W        W23682   6.462   0.958  14.743 -0.0130  0.1323  0.4420
19283W        W23683  11.265   5.163  24.005  0.3438 -0.0505  0.1853
19284W        W23684  12.123   3.351  26.461  0.1796 -0.2699  0.3853
19285W        W23685  16.927   5.257  29.931 -0.0220 -0.2498 -0.1347
19286W        W23686  16.150   5.576  31.807  0.1731  0.1906  0.0802
19287W        W23687   6.776   7.082   6.095  0.1492  0.4515 -0.3943
19288W        W23688  21.081   3.940   1.737  0.1545 -0.5131  0.0838
19289W        W23689  14.650   0.021  26.475 -0.2453 -0.0039  0.2574
19290W        W23690   7.668   7.533   7.010 -0.0798 -0.1275  0.2090
19291W        W23691  14.337   5.286   7.245  0.1388  0.4905  0.0242
19292W        W23692   1.531   6.575  31.800 -0.0601 -0.1991  0.0645
19293W        W23693  23.807   5.385  10.342 -0.1443  0.0446 -0.1412
19294W        W23694  12.011   3.022   1.407  0.2319 -0.4568  0.1704
19295W        W23695  10.395   1.721  31.517 -0.1231 -0.0896  0.2962
19296W        W23696   6.060   6.677  32.515 -0.1849 -0.2381  0.0167
19297W        W23697   1.537   6.990  12.072  0.2462 -0.0781 -0.0763
19298W        W23698   3.347   7.269  10.114  0.0139 -0.0894  0.0705
19299W        W23699   9.021   2.118   7.320 -0.0320 -0.1182  0.2091
19300W        W23700  24.381   1.507   0.049 -0.0850  0.1826  0.3962
19301W        W23701  14.657   6.114  11.214 -0.0870 -0.1538 -0.1997
19302W        W23702   4.662   3.070  23.005 -0.1673 -0.2064  0.0268
19303W        W23703  15.252   6.640   4.205  0.0366 -0.0372 -0.0328
19304W        W23704   7.172   1.931   4.186 -0.0783  0.0866 -0.0760
19305W        W23705  20.412   4.870   2.926  0.1944 -0.0161 -0.2139
19306W        W23706   9.569   2.784   8.756 -0.0108  0.2168 -0.1691
19307W        W23707   4.650   1.417   7.469 -0.0678  0.1532  0.0665
19308W        W23708   9.331   0.031  26.234  0.1428  0.1880 -0.0175
19309W        W23709   1.091   0.379   2.312 -0.2380 -0.1399 -0.0026
19310W        W23710  13.920   6.152   2.980 -0.1302  0.0849  0.0493
19311W        W23711  20.108   5.180  26.799  0.2275 -0.1106 -0.1603
19312W        W23712  20.449   6.815  18.803  0.2430  0.1145  0.1249
19313W        W23713  19.556   4.722  32.074 -0.1019 -0.0766  0.0684
19314W        W23714  24.632   2.067   0.656 -0.2735 -0.0742  0.0493
19315W        W23715  19.631   6.173  29.218 -0.0625  0.3721  0.0999
19316W        W23716   5.896   4.751   9.366  0.3015  0.1918  0.3197
19317W        W23717  18.536   0.925  15.534  0.0059 -0.0116  0.3859
19318W        W23718  10.641   6.620  14.013  0.0538  0.1104  0.0272
19319W        W23719  19.178   5.628  21.127 -0.0545  0.0354 -0.3187
19320W        W23720   6.380   5.382   5.712  0.1962 -0.3256  0.0724
19321W        W23721  20.147   1.396  28.034  0.1262 -0.1486  0.2050
19322W        W23722   4.611   2.828   3.356  0.2780 -0.2575  0.1945
19323W        W23723   6.022   4.934  10.559  0.0912  0.1248 -0.1822
19324W        W23724  10.825   3.640  14.294 -0.0335 -0.1240 -0.0244
19325W        W23725   4.802   1.115   1.932 -0.0850 -0.0888 -0.0328
19326W        W23726  19.875   1.731  29.842 -0.1855 -0.0740  0.0262
19327W        W23727   4.645   5.579  10.081  0.3006  0.1418  0.3591
19328W        W23728   7.940   3.759   2.723  0.1555 -0.2499  0.0233
19329W        W23729   4.740   7.145  27.666 -0.3079  0.1758 -0.1009
19330W        W23730   2.333   6.886   1.534  0.0189  0.2324 -0.1781
19331W        W23731  22.936   2.403  31.081  0.4102  0.2857  0.0636
19332W        W23732   6.023   7.117  10.706  0.2797  0.0976 -0.1744
19333W        W23733   7.219   3.184  32.104  0.1682  0.1168 -0.0714
19334W        W23734  11.793   6.432   8.467  0.0171 -0.3430  0.3204
19335W        W23735  21.020   3.572  32.037  0.0767 -0.3324 -0.0893
19336W        W23736  15.734   3.944  24.369  0.0872 -0.1585  0.2035
19337W        W23737   2.140   6.382  30.538 -0.2675  0.2949  0.2135
19338W        W23738  22.107   4.063  20.040 -0.0007  0.1217  0.1266
19339W        W23739  21.187   0.984   2.773  0.5004 -0.2636 -0.0843
19340W        W23740   9.556   7.417  27.236 -0.0672 -0.3721 -0.0007
19341W        W23741   1.243   1.383  27.029 -0.0051  0.2832  0.2094
19342W        W23742  12.352   1.790  32.496  0.0699 -0.0364 -0.0841
19343W        W23743   7.483   5.389   6.905  0.0450  0.2876  0.1066
19344W        W23744   6.495   1.558  32.563 -0.1286 -0.3536 -0.0037
19345W        W23745  24.576   6.403   1.245 -0.2008 -0.0663 -0.0997
19346W        W23746  19.142   2.900  28.017 -0.2004 -0.1557 -0.1899
19347W        W23747  13.751   2.028  25.519  0.5028  0.1762 -0.0477
19348W        W23748   7.542   0.568   0.287  0.2481 -0.0377 -0.1930
19349W        W23749   6.878   2.645  27.763  0.0542 -0.4403  0.3936
19350W        W23750  24.406   2.581  31.850 -0.2369 -0.0501  0.0185
19351W        W23751  21.691   3.147  14.359  0.0107 -0.3851 -0.0223
19352W        W23752   7.115   1.038   6.512 -0.1282  0.0632  0.0305
19353W        W23753   2.482   4.789   9.574  0.0805  0.0232 -0.0962
19354W        W23754  14.288   7.007  24.447  0.0482 -0.0074  0.0215
19355W        W23755  13.365   6.972   0.332  0.0195  0.0427  0.0450
19356W        W23756  15.843   4.223  32.307  0.0501 -0.0142  0.1019
19357W        W23757  11.393   6.352   8.190 -0.1334 -0.0468 -0.1520
19358W        W23758   5.161   3.465   6.002  0.0627 -0.1517  0.1081
19359W        W23759  12.202   0.440   4.821  0.2264 -0.0851 -0.2875
19360W        W23760   7.975   2.532  13.694  0.0015  0.0077  0.3573
19361W        W23761  15.601   5.237  20.745 -0.0978 -0.3345 -0.1385
19362W        W23762  21.765   0.580  25.153 -0.1055 -0.0345 -0.0042
19363W        W23763   0.568   1.323  18.567  0.2502 -0.0534  0.0117
19364W        W23764  13.178   5.268   0.840  0.0231 -0.1071 -0.2939
19365W        W23765  10.909   6.017  30.163  0.1243  0.0876  0.0814
19366W        W23766   2.916   7.289  13.009 -0.0998 -0.1774  0.0538
19367W        W23767  20.310   3.143  18.104 -0.2585  0.0293  0.0612
19368W        W23768   3.099   7.407  28.961 -0.2408  0.0756  0.2495
19369W        W23769   3.065   7.772   8.391 -0.2062  0.1711 -0.0623
19370W        W23770  20.927   2.277  17.174  0.1586 -0.1058  0.1001
19371W        W23771  18.930   4.526  23.454 -0.0367 -0.2266 -0.0944
19372W        W23772  16.177   5.296  19.692  0.0942 -0.2713  0.0270
19373W        W23773   0.100   6.159  23.653 -0.0501  0.1834  0.2783
19374W        W23774  16.552   6.374   3.252 -0.1010 -0.0316 -0.0422
19375W        W23775   0.594   6.905   5.054 -0.1752 -0.0798 -0.0490
19376W        W23776  20.863   7.729  18.328 -0.0679 -0.1209 -0.0780
19377W        W23777   9.841   5.682  12.039  0.4968 -0.1740 -0.2878
19378W        W23778   2.040   4.390   2.969  0.1911 -0.0197 -0.0949
19379W        W23779  14.022   4.061  26.088  0.1897 -0.4611  0.1822
19380W        W23780   8.088   3.228  32.561  0.1280 -0.2066 -0.0432
19381W        W23781  22.717   1.371   9.839 -0.0639 -0.2056  0.0749
19382W        W23782  21.288   3.494  27.204 -0.1237  0.1309  0.0720
19383W        W23783  18.252   1.368  25.372 -0.0129  0.2262 -0.3008
19384W        W23784   6.287   0.773   0.687  0.2689 -0.2209  0.2912
19385W        W23785   8.802   7.584   0.872 -0.2139 -0.0367 -0.1906
19386W        W23786   1.474   3.171  29.129  0.0042  0.1080  0.2419
19387W        W23787  10.258   7.078   6.026  0.2262  0.0765  0.1143
19388W        W23788  17.814   0.081  25.919 -0.1856  0.2029 -0.1461
19389W        W23789  11.094   6.106  24.171  0.1700 -0.0183  0.0853
19390W        W23790  11.027   5.427  14.939 -0.0473 -0.0058  0.0449
19391W        W23791   9.855   4.911   6.599  0.0521 -0.2234 -0.0717
19392W        W23792   2.826   3.257   7.823  0.0529  0.3095  0.0008
19393W        W23793  17.814   5.821  29.085  0.0188  0.0982  0.1596
19394W        W23794   0.703   6.559   0.456 -0.1800 -0.0576 -0.0656
19395W        W23795   1.658   5.616   3.598 -0.1858  0.3547 -0.0782
19396W        W23796  21.199   2.382   2.146 -0.3112 -0.2178  0.3013
19397W        W23797   8.924   1.228  23.569  0.1826  0.1732 -0.3190
19398W        W23798   4.982   5.033  27.488  0.1380 -0.2687  0.1745
19399W        W23799   8.241   3.049  25.251 -0.4395 -0.2631  0.0871
19400W        W23800  24.955   5.013  24.747 -0.1924 -0.2758 -0.0376
19401W        W23801  17.100   4.175  27.278 -0.1675 -0.1923  0.0475
19402W        W23802  20.060   7.256   6.745  0.3819  0.0640  0.2083
19403W        W23803   6.386   5.410  25.969 -0.0853  0.0769  0.0302
19404W        W23804   9.426   4.152  10.954 -0.1534 -0.2270 -0.2901
19405W        W23805   9.876   3.319  29.495  0.1318  0.2912  0.1741
19406W        W23806  24.027   2.883  20.143  0.2462  0.1298 -0.2257
19407W        W23807  20.592   2.929  19.681 -0.2112  0.0444  0.1934
19408W        W23808   7.162   3.865  10.794  0.3182 -0.1096  0.0561
19409W        W23809  23.401   5.562  31.650 -0.1818 -0.0640 -0.1474
19410W        W23810  21.901   0.763  30.924 -0.0628  0.1378 -0.1745
19411W        W23811  20.793   1.876   8.923 -0.0519 -0.0207  0.0208
19412W        W23812  19.491   1.911  16.781 -0.0547 -0.2397 -0.2178
19413W        W23813  20.549   6.165  27.450  0.0597  0.2724  0.4074
19414W        W23814   6.609   4.935  27.742  0.0231  0.0953  0.1085
19415W        W23815   7.607   6.007   0.655 -0.2947  0.1467 -0.1957
19416W        W23816   2.796   4.984   4.696  0.3172 -0.0579 -0.1346
19417W        W23817  18.719   3.316  30.418  0.0390  0.0144  0.0630
19418W        W23818   0.601   0.298   9.334 -0.0162 -0.0819 -0.1002
19419W        W23819  18.427   4.103   5.533  0.2427  0.2830  0.3969
19420W        W23820  13.077   6.563  13.949 -0.2138  0.2461  0.2079
19421W        W23821   1.748   7.418  30.825 -0.2387 -0.1424 -0.2287
19422W        W23822  12.064   7.293  29.086  0.2448  0.2922 -0.2329
19423W        W23823  12.666   4.635  22.883  0.0271  0.0299 -0.1753
19424W        W23824  15.082   6.508  19.947 -0.0927 -0.2088  0.0788
19425W        W23825   2.781   6.418   6.271  0.3791  0.1010 -0.0934
19426W        W23826  10.557   1.463  23.343 -0.1004 -0.0458  0.0892
19427W        W23827  17.354   0.553  17.602  0.1815 -0.2040 -0.0073
19428W        W23828   1.139   6.874  31.357  0.0250  0.0008 -0.0221
19429W        W23829  10.073   1.398   0.212  0.0276  0.2059 -0.0364
19430W        W23830  24.884   4.504  27.138  0.4172 -0.0235  0.0833
19431W        W23831  19.841   1.198   2.974 -0.0580  0.1107  0.2276
19432W        W23832  20.713   1.757   3.729 -0.0078  0.3734  0.1198
19433W        W23833  20.036   5.309   4.065  0.0373  0.1634  0.1622
19434W        W23834   3.848   7.008  14.033  0.0730  0.2255  0.2930
19435W        W23835   6.039   4.459   8.224 -0.0128 -0.0145  0.0246
19436W        W23836   1.624   2.156  22.759  0.2766  0.0132 -0.0391
19437W        W23837   6.930   6.397  22.424 -0.2350  0.1586  0.0171
19438W        W23838   1.199   0.167  32.131  0.3021  0.1496 -0.1718
19439W        W23839   4.802   0.206   3.247  0.0629 -0.0923 -0.1916
19440W        W23840   1.634   7.573  19.859  0.1393 -0.1059  0.0422
19441W        W23841  19.400   5.200   8.945  0.4198 -0.0489 -0.0671
19442W        W23842  12.055   6.158   9.020  0.1605  0.0086  0.0813
19443W        W23843  17.050   1.720  19.478 -0.3779 -0.0061  0.0166
19444W        W23844   1.459   4.890  22.567  0.1956 -0.0618  0.3417
19445W        W23845   8.358   5.418   1.680 -0.0048  0.0478  0.1031
19446W        W23846  15.357   1.117  31.388  0.0289 -0.1622  0.2531
19447W        W23847   0.498   6.285  23.889 -0.1039  0.3204  0.2400
19448W        W23848  12.331   3.616  11.946  0.0405  0.2777 -0.0768
19449W        W23849   4.231   7.391   0.161 -0.2633 -0.0808 -0.1694
19450W        W23850  24.347   3.865  23.619  0.0300 -0.0453  0.1641
19451W        W23851  23.524   5.361  18.256 -0.1101  0.1454 -0.1085
19452W        W23852   1.678   7.099  26.540  0.0917 -0.3602 -0.0023
19453W        W23853   1.934   4.442   9.280 -0.1267  0.4800  0.1586
19454W        W23854   8.969   5.678  31.763  0.0200 -0.0422 -0.2310
19455W        W23855  16.123   1.391  23.700 -0.2332  0.2869  0.1555
19456W        W23856   6.252   1.189   7.204 -0.1715 -0.2467  0.0834
19457W        W23857  21.060   1.687   8.504  0.0608  0.0399  0.0365
19458W        W23858  12.729   7.414  26.060 -0.3391  0.3207 -0.1271
19459W        W23859  22.042   2.505  25.609  0.1804 -0.1581 -0.1127
19460W        W23860   4.043   2.767   2.841 -0.0195  0.1242  0.0437
19461W        W23861  20.534   5.060   0.981 -0.0984  0.1699  0.0825
19462W        W23862  10.802   0.311  12.070  0.1002 -0.2923  0.3205
19463W        W23863   2.746   1.963   6.799 -0.2286  0.3128 -0.0055
19464W        W23864  10.479   3.147  26.947 -0.1233  0.0769  0.2212
19465W        W23865  10.117   1.972   9.355 -0.1538  0.1092 -0.2653
19466W        W23866  12.572   7.116   6.340 -0.0577  0.1575  0.0604
19467W        W23867  17.563   3.881  19.821 -0.1264  0.1950  0.4437
19468W        W23868  17.827   0.453  22.327 -0.0525  0.3227 -0.1594
19469W        W23869  15.060   2.603  29.258  0.1525 -0.0602 -0.0175
19470W        W23870  10.459   2.037  24.314 -0.0146 -0.4328 -0.1950
19471W        W23871  20.027   2.116  22.913  0.2194  0.0525 -0.1498
19472W        W23872   8.072   2.037  12.890 -0.3380 -0.0161  0.2495
19473W        W23873   3.652   4.675   7.893  0.2122  0.1687  0.0729
19474W        W23874  24.332   4.606   4.398  0.0674 -0.1676 -0.1854
19475W        W23875   2.570   6.471  10.267 -0.1870  0.1433 -0.1231
19476W        W23876  15.754   5.725  27.849  0.0528  0.1596 -0.1257
19477W        W23877   4.708   5.510   9.565 -0.0825 -0.3809 -0.0227
19478W        W23878  18.598   2.197  24.954 -0.1793 -0.1445  0.0131
19479W        W23879  18.910   7.352  30.280 -0.3265  0.4995  0.0849
19480W        W23880  14.930   2.664  20.004 -0.0909  0.0405  0.1042
19481W        W23881  24.336   0.090   6.075  0.0200 -0.2655  0.2164
19482W        W23882  17.545   1.210  26.204  0.1416 -0.0528  0.1394
19483W        W23883   4.270   5.426  24.288  0.2285 -0.0591  0.1948
19484W        W23884  12.629   4.725   9.047 -0.2753 -0.0839  0.0162
19485W        W23885  24.437   1.540  27.699 -0.3416 -0.0918 -0.0826
19486W        W23886  12.278   5.935  23.292  0.1594  0.0985  0.2194
19487W        W23887  11.549   2.904  31.336  0.1618 -0.0921 -0.1033
19488W        W23888   2.421   3.884  30.095  0.0523  0.0341  0.1001
19489W        W23889   9.165   4.357   1.599  0.0339  0.0629  0.2192
19490W        W23890  22.533   5.179  30.900 -0.0911 -0.3169 -0.1050
19491W        W23891   1.337   2.367   0.853  0.0103  0.2569  0.0115
19492W        W23892   4.521   1.901  22.196 -0.3284 -0.0665 -0.1167
19493W        W23893  19.958   0.465   3.560  0.0383 -0.3632 -0.1742
19494W        W23894  20.689   6.439   0.452 -0.0949  0.2898 -0.1112
19495W        W23895  17.135   3.649  28.285 -0.0971  0.0416  0.1246
19496W        W23896  14.915   2.507  21.118 -0.1205  0.0224  0.0113
19497W        W23897  23.868   1.310  24.703 -0.0676  0.2410 -0.0754
19498W        W23898  21.107   4.627   4.591 -0.0404 -0.0561 -0.0125
19499W        W23899  13.343   0.144  13.038 -0.0917  0.1088  0.2105
19500W        W23900  10.289   2.191  13.478 -0.3395 -0.0715 -0.2301
19501W        W23901   6.316   5.882  32.234 -0.2834  0.0093  0.0121
19502W        W23902   2.674   4.991   8.733  0.0532  0.1468  0.0136
19503W        W23903  13.989   0.825  28.424  0.0347  0.0245  0.3063
19504W        W23904  19.815   1.574  22.155  0.0846 -0.1713 -0.0175
19505W        W23905  14.509   5.679  31.201 -0.3483  0.0454 -0.1158
19506W        W23906   8.583   0.707  27.653  0.0283 -0.0167 -0.3772
19507W        W23907  23.645   1.417   7.798  0.1030 -0.1111  0.1547
19508W        W23908  23.758   3.645   8.339 -0.2306  0.0947  0.0591
19509W        W23909  17.098   3.828   9.700 -0.2026 -0.2554  0.2510
19510W        W23910   4.893   6.435  15.619 -0.2514 -0.0291  0.0909
19511W        W23911   2.924   0.962  20.617 -0.2166  0.2587 -0.3332
19512W        W23912  24.312   2.739  19.788  0.0590  0.1075  0.1357
19513W        W23913   9.787   2.247   6.707 -0.1607 -0.1995 -0.4613
19514W        W23914  24.027   1.753   1.220 -0.1552 -0.0959 -0.1079
19515W        W23915  18.965   3.074  18.616  0.1757  0.1556  0.0965
19516W        W23916  10.850   2.183  25.156 -0.0582  0.2298  0.0596
19517W        W23917  13.080   1.380   7.555  0.3165 -0.0512 -0.0844
19518W        W23918  14.424   4.981  25.185 -0.1243  0.0595  0.0011
19519W        W23919  20.530   0.841   7.385  0.3855  0.0716 -0.0712
19520W        W23920  19.654   6.754   2.665 -0.2616 -0.2420 -0.0967
19521W        W23921  13.033   0.953  13.623 -0.4007  0.0086 -0.2856
19522W        W23922   0.563   5.016   6.903 -0.0574 -0.2844 -0.3667
19523W        W23923   6.737   2.646  25.290 -0.1459 -0.0123  0.1750
19524W        W23924  13.913   6.840  14.914  0.0502  0.2301 -0.1297
19525W        W23925   0.326   7.447   5.898  0.0901  0.1986 -0.1787
19526W        W23926   0.748   3.183  21.535 -0.0486 -0.2797  0.0766
19527W        W23927   1.359   4.286  20.364  0.1239  0.1869 -0.2603
19528W        W23928   4.907   3.286  12.812  0.0632 -0.0575  0.1297
19529W        W23929  12.872   2.587   4.545  0.3108 -0.2050 -0.0462
19530W        W23930  14.110   1.198  29.348  0.0883  0.1775  0.1866
19531W        W23931  15.962   1.399   8.044  0.1213  0.1257 -0.2706
19532W        W23932  17.199   0.005   7.400 -0.1140 -0.1485  0.2224
19533W        W23933  20.549   2.849  25.662  0.0420  0.1483  0.1444
19534W        W23934  22.229   2.512  27.143 -0.0337 -0.1414  0.0556
19535W        W23935  12.215   3.235   4.470  0.0823  0.1362 -0.3092
19536W        W23936  24.911   0.560  30.390 -0.0436 -0.1516 -0.0222
19537W        W23937  16.250   4.107  21.070  0.1933 -0.0251 -0.2353
19538W        W23938  14.524   7.357  26.333 -0.0165 -0.2187  0.1203
19539W        W23939   2.431   4.627   1.032  0.1076  0.2854 -0.0889
19540W        W23940  18.193   1.415  19.330  0.2308  0.3693 -0.0736
19541W        W23941   4.215   0.717  10.255  0.1644  0.0316 -0.0297
19542W        W23942   4.638   2.946  31.548 -0.1884 -0.0157 -0.1237
19543W        W23943  10.148   7.493  31.204 -0.2130  0.0022 -0.1885
19544W        W23944   3.763   3.754   6.073 -0.4339  0.0629  0.2294
19545W        W23945  18.753   7.160   2.387 -0.0442  0.1279 -0.2787
19546W        W23946  10.526   3.252  30.080 -0.3347  0.1859 -0.0841
19547W        W23947  20.386   1.600  26.535  0.1492 -0.0138 -0.1212
19548W        W23948   4.407   0.960  14.432  0.4229 -0.1592  0.0459
19549W        W23949   0.878   5.943  31.271 -0.4310 -0.0914 -0.0289
19550W        W23950   3.926   0.145  13.138  0.3487 -0.1794 -0.0503
19551W        W23951   2.229   0.554   6.194  0.1404 -0.0926  0.0411
19552W        W23952  23.008   5.733   3.302  0.0156 -0.2704  0.2270
19553W        W23953   8.367   2.151   5.271  0.0478  0.2686 -0.0154
19554W        W23954   2.401   5.719  24.321  0.0552  0.0762 -0.0169
19555W        W23955  14.328   4.371  10.665  0.5739 -0.0236  0.0403
19556W        W23956   8.219   5.714  14.005  0.0129  0.0364 -0.1114
19557W        W23957  20.820   7.311  30.663  0.0121  0.1047  0.0104
19558W        W23958  14.719   6.592   8.310 -0.0511 -0.0889  0.1358
19559W        W23959  23.762   7.692   2.575 -0.3023 -0.3017 -0.0611
19560W        W23960  25.005   6.414   1.519  0.0407  0.1305 -0.0598
19561W        W23961  19.691   0.133   1.969  0.2319  0.4288  0.1504
19562W        W23962  12.631   2.243   9.380  0.1811 -0.1155  0.2379
19563W        W23963   6.499   3.083  22.797 -0.0923  0.1848  0.2354
19564W        W23964   2.073   3.876  25.279  0.3942  0.3121 -0.2460
19565W        W23965  12.846   0.151  10.376  0.0422 -0.0440  0.0947
19566W        W23966  21.799   7.691  24.548 -0.0235  0.2407  0.1377
19567W        W23967  16.939   4.506   6.390  0.0347  0.1215  0.0860
19568W        W23968   7.663   7.006   7.744 -0.0296  0.2503 -0.0294
19569W        W23969  14.493   0.419  28.948  0.0539  0.1427 -0.1388
19570W        W23970   8.630   2.194  25.043  0.0468 -0.0141  0.2765
19571W        W23971   0.298   2.872   1.156  0.3038  0.1459 -0.1506
19572W        W23972  19.493   3.922  14.302  0.1498  0.0303  0.1523
19573W        W23973   1.044   1.129  18.528  0.0798 -0.0733 -0.0617
19574W        W23974   2.708   7.774  11.565 -0.1002  0.0769 -0.0170
19575W        W23975   3.119   0.086  25.599  0.2348  0.2905 -0.0903
19576W        W23976  20.686   7.732  14.772  0.2188  0.0849 -0.0560
19577W        W23977  10.807   6.558  12.150 -0.1402  0.1020  0.0403
19578W        W23978  10.615   2.595   5.468 -0.0680  0.0550 -0.0113
19579W        W23979  22.733   3.388   7.584 -0.1434  0.0603  0.4827
19580W        W23980   5.824   6.861  14.313 -0.1141 -0.1414  0.1302
19581W        W23981  10.864   1.464  16.016 -0.2328  0.0956  0.0876
19582W        W23982  22.252   4.893   5.081  0.1337  0.2702  0.3339
19583W        W23983  15.726   4.343   1.007 -0.0384  0.4040 -0.1722
19584W        W23984  22.302   1.022  22.051 -0.3248  0.0837 -0.2079
19585W        W23985  10.701   6.262  27.356  0.1351 -0.0808  0.2144
19586W        W23986   1.505   3.369   5.051 -0.0110  0.2144 -0.1987
19587W        W23987  12.239   4.128   8.527  0.0744  0.0430 -0.0300
19588W        W23988   8.371   4.520  13.899  0.3103 -0.1482 -0.0899
19589W        W23989  15.838   2.908   7.710 -0.2791  0.0852  0.0640
19590W        W23990  13.753   7.260   1.192  0.3203 -0.3385 -0.1548
19591W        W23991   7.548   0.437  15.037 -0.2622 -0.3026 -0.1407
19592W        W23992   7.338   0.528  22.825  0.1916  0.1731  0.0481
19593W        W23993   1.052   7.539   7.426  0.2784 -0.4607 -0.2118
19594W        W23994   1.862   0.892  21.997 -0.3804 -0.1972  0.1606
19595W        W23995  23.138   4.621  30.602  0.1296  0.0834  0.1082
19596W        W23996  19.934   1.064   5.267  0.3036  0.1838  0.3622
19597W        W23997   3.166   0.501  32.273  0.1587  0.1057  0.1810
19598W        W23998  15.618   2.580  23.721  0.1831  0.0045 -0.2486
19599W        W23999  11.461   5.488   9.683  0.0969 -0.1629 -0.3245
19600W        W24000  24.295   0.453   9.726  0.1232  0.0352 -0.0572
19601W        W24001   5.011   4.314  29.616 -0.2064 -0.1833  0.4127
19602W        W24002  24.490   4.395  27.509 -0.4050  0.2880 -0.3060
19603W        W24003  15.421   6.533   2.412 -0.0954  0.2218 -0.2588
19604W        W24004  17.828   4.151  17.025  0.0788 -0.0905  0.1653
19605W        W24005   9.111   1.978  18.373  0.3518  0.0075  0.0677
19606W        W24006   3.957   3.764  21.189  0.0907 -0.1914  0.1587
19607W        W24007  13.830   1.159  22.182  0.0763 -0.2135  0.1507
19608W        W24008  20.843   3.030  26.035  0.0745 -0.1398 -0.1053
19609W        W24009  11.782   0.083   1.135 -0.2177  0.2299 -0.0360
19610W        W24010   6.928   5.784  18.410 -0.0043  0.0136 -0.0198
19611W        W24011  17.334   1.678  26.176 -0.2635  0.4221 -0.1989
19612W        W24012   8.809   3.843   5.658  0.1301  0.0369 -0.0308
19613W        W24013  22.813   7.495  20.990 -0.1703 -0.2292 -0.2626
19614W        W24014   9.803   0.277   2.157 -0.0825  0.1928  0.1672
19615W        W24015  17.172   3.920  22.668  0.2949  0.2446  0.1038
19616W        W24016   2.471   2.061   4.464  0.4017  0.0218  0.0578
19617W        W24017   4.384   3.822  13.648 -0.1546  0.0818 -0.0677
19618W        W24018  19.612   3.051   0.788 -0.0995 -0.2939  0.0505
19619W        W24019   8.476   6.975   7.047 -0.1556 -0.1032 -0.1897
19620W        W24020   6.064   2.176  29.116 -0.0376  0.0781 -0.0259
19621W        W24021  21.528   3.846  31.641 -0.3888  0.2017 -0.2180
19622W        W24022   9.047   2.501  26.860 -0.0423 -0.1960  0.0391
19623W        W24023   7.263   3.011   9.784  0.0653 -0.2542  0.1378
19624W        W24024  18.150   4.825  23.020  0.0748  0.1111 -0.2138
19625W        W24025   8.448   2.374   9.555  0.1512  0.1149  0.0708
19626W        W24026  20.853   1.314   3.088  0.0550  0.2425 -0.0306
19627W        W24027  22.154   5.168  23.577 -0.1736  0.0744 -0.2702
19628W        W24028   1.739   6.293  24.550 -0.1830  0.0468 -0.2017
19629W        W24029  15.296   5.018   2.981  0.0029 -0.1366 -0.0643
19630W        W24030   8.748   3.897  17.253 -0.0166 -0.1536  0.1610
19631W        W24031   5.049   2.727  10.834 -0.1866  0.0738 -0.2819
19632W        W24032  20.886   1.399  23.379  0.1171 -0.4805  0.0067
19633W        W24033   1.834   2.529   5.965  0.2536  0.1416 -0.1684
19634W        W24034   4.492   2.248  30.760  0.0078 -0.1619  0.1052
19635W        W24035  21.842   5.331  26.870 -0.0688  0.1298 -0.1655
19636W        W24036  19.039   4.243  28.390  0.1319 -0.0502 -0.2343
19637W        W24037   7.935   1.104   2.371 -0.1961 -0.1873  0.2048
19638W        W24038  15.825   1.287  21.591  0.1638  0.0108  0.0101
19639W        W24039   5.069   1.274   7.741 -0.2885 -0.0613 -0.2125
19640W        W24040  22.016   2.328  16.556  0.2203 -0.0428  0.0996
19641W        W24041  14.316   5.849   2.245 -0.1309 -0.3148 -0.1418
19642W        W24042  23.694   1.977  10.827 -0.0823  0.0542 -0.1165
19643W        W24043   7.474   3.503   9.707  0.5558 -0.2810  0.1990
19644W        W24044   6.856   4.397   4.564 -0.0421  0.0738 -0.1041
19645W        W24045  20.409   6.241   4.144 -0.0524 -0.0014  0.2406
19646W        W24046  19.933   7.349  27.731 -0.0658 -0.2167  0.1865
19647W        W24047   0.501   1.087   5.019  0.1850 -0.2560  0.1793
19648W        W24048  22.985   7.540  22.371  0.1051  0.4097  0.0111
19649W        W24049   8.950   2.513  13.394  0.3753 -0.1017  0.1698
19650W        W24050   9.354   2.926   6.744 -0.0878 -0.2220  0.0211
19651W        W24051  15.458   0.144   9.658  0.0942 -0.0245 -0.0923
19652W        W24052   0.992   5.624   9.396  0.1349  0.0062 -0.1127
19653W        W24053  16.662   4.647   3.211  0.0282  0.3425 -0.3195
19654W        W24054  22.066   5.972  24.916  0.0153  0.2068  0.1166
19655W        W24055   2.452   2.779  23.561 -0.3293  0.2252  0.3408
19656W        W24056  18.674   4.078  22.987 -0.2414 -0.1679  0.1386
19657W        W24057  12.099   0.316  26.334 -0.1434  0.2117  0.0175
19658W        W24058   1.486   3.093  23.132 -0.1051  0.0875  0.1739
19659W        W24059   6.592   4.767  26.833 -0.2578  0.0960  0.1424
19660W        W24060  10.912   4.244  16.113  0.3661  0.1813  0.1371
19661W        W24061   0.298   7.183  25.398 -0.1767 -0.1395  0.0541
19662W        W24062   8.590   7.307   9.519  0.2649 -0.2799 -0.0938
19663W        W24063  12.919   0.116  25.877  0.1489 -0.1138 -0.2794
19664W        W24064  18.392   3.676   8.718 -0.0841 -0.1443  0.0721
19665W        W24065   0.810   4.259  26.763  0.0685 -0.0782 -0.0725
19666W        W24066  18.747   2.176  25.438  0.0544  0.0271  0.0814
19667W        W24067  12.314   6.200   8.002  0.0748  0.3640 -0.3030
19668W        W24068  12.250   3.351   8.739 -0.2312 -0.1945  0.1927
19669W        W24069  16.924   5.530  32.679  0.2304 -0.0305 -0.0403
19670W        W24070   9.471   0.622  24.632  0.2308 -0.0668  0.0303
19671W        W24071   9.826   7.299  30.421 -0.1445  0.0083 -0.1635
19672W        W24072  24.267   3.693  27.896 -0.0479 -0.2069  0.0278
19673W        W24073  16.622   6.292   7.874 -0.0954  0.0933 -0.1183
19674W        W24074   2.703   7.811  21.568 -0.2384 -0.2303  0.0286
19675W        W24075   2.123   4.827   3.203  0.4610  0.0198 -0.0850
19676W        W24076   7.140   2.834   5.720  0.1043 -0.2520  0.0570
19677W        W24077  22.988   4.836   7.580 -0.0746 -0.2226  0.1131
19678W        W24078  11.818   6.065  13.339  0.1175  0.0625  0.2184
19679W        W24079  17.617   5.388  16.759  0.2029  0.2736 -0.0280
19680W        W24080  10.059   7.507  32.298 -0.0947 -0.1152  0.0822
19681W        W24081  18.491   2.886   1.457  0.0266 -0.2631 -0.0205
19682W        W24082   5.489   2.919   9.800  0.0369 -0.0566 -0.1593
19683W        W24083  20.129   0.532  15.168  0.0895  0.0530  0.2368
19684W        W24084  13.702   7.675  13.303  0.2581  0.0207  0.3176
19685W        W24085  10.183   0.229  28.925  0.0673 -0.1837  0.1122
19686W        W24086   5.100   0.218  13.159 -0.0214 -0.0836  0.2109
19687W        W24087   2.139   6.946  30.624  0.0523 -0.3318 -0.1069
19688W        W24088   3.135   6.094   4.682  0.0048  0.0645 -0.0260
19689W        W24089   5.269   1.025  10.593 -0.3284  0.0559 -0.0279
19690W        W24090   0.679   5.590   8.679 -0.1112 -0.0497  0.0258
19691W        W24091   7.276   2.324  13.768 -0.2556 -0.1063 -0.2257
19692W        W24092  25.014   0.220  10.814  0.0097  0.0453  0.1009
19693W        W24093   8.765   1.634  28.658 -0.1983 -0.1566  0.2281
19694W        W24094  10.541   3.387   4.138  0.1157  0.0441 -0.2082
19695W        W24095   6.244   5.708   5.324 -0.0148  0.0448  0.3151
19696W        W24096  21.560   6.760  22.434 -0.0076  0.1013 -0.3016
19697W        W24097  19.823   3.940  10.316  0.3003  0.0778 -0.2816
19698W        W24098  25.027   1.071   4.756 -0.1471 -0.1053 -0.0991
19699W        W24099  16.914   5.592  27.020 -0.3583  0.0343  0.0762
19700W        W24100   4.351   0.819  24.778 -0.2343 -0.1856  0.0558
19701W        W24101   8.259   0.525  12.236 -0.0607  0.2678 -0.0710
19702W        W24102  22.291   1.079  26.485 -0.0314  0.0490 -0.1650
19703W        W24103  19.512   2.214  29.942 -0.2537  0.0698  0.1520
19704W        W24104  12.726   2.524   2.274  0.5620 -0.0831 -0.0151
19705W        W24105  17.703   4.813   3.305  0.1837 -0.1086  0.3494
19706W        W24106  14.523   4.904  22.097 -0.0315  0.1399 -0.0847
19707W        W24107  16.419   4.402  25.494 -0.1388 -0.2213 -0.0038
19708W        W24108  24.006   6.645  32.336  0.3485  0.0586 -0.1281
19709W        W24109  20.657   7.258  25.117 -0.0929  0.3521  0.0502
19710W        W24110  13.139   0.708   4.605  0.2194  0.0320 -0.1211
19711W        W24111  11.609   4.718  30.795 -0.0411 -0.2129 -0.3304
19712W        W24112  21.921   7.705  22.539  0.0791  0.0376  0.0320
19713W        W24113  23.461   2.331  10.024  0.1743  0.0970  0.1589
19714W        W24114   7.707   6.334   3.297 -0.2109 -0.2509 -0.3150
19715W        W24115  17.754   2.316   5.295  0.3979 -0.3407 -0.0445
19716W        W24116   4.129   0.305   8.848 -0.2029 -0.2685 -0.0190
19717W        W24117   7.497   5.639  16.726  0.0842  0.0927  0.0752
19718W        W24118  19.044   6.051  17.883  0.0637  0.2051 -0.0796
19719W        W24119   0.813   4.059  27.520  0.0048 -0.0769 -0.0595
19720W        W24120  19.843   7.365   3.539  0.2171  0.0652  0.0350
19721W        W24121   6.889   7.291   6.854 -0.1983  0.0546  0.1972
19722W        W24122   3.848   5.918  29.921 -0.1847 -0.0204 -0.3870
19723W        W24123   1.848   7.425  28.634 -0.2455 -0.0583  0.1292
19724W        W24124   7.816   5.255  22.480  0.1835 -0.0702  0.1503
19725W        W24125  22.493   3.257  30.588 -0.1070  0.0686 -0.1230
19726W        W24126  22.745   2.720   2.225  0.0840  0.1038 -0.1041
19727W        W24127   1.682   5.841  10.155 -0.1919  0.2761 -0.2631
19728W        W24128  15.092   4.053  27.394 -0.0216  0.2807  0.3609
19729W        W24129  14.457   5.943   9.970 -0.0827  0.3810  0.3398
19730W        W24130  17.457   0.905   6.481  0.2032 -0.0174  0.0682
19731W        W24131  15.200   0.515  23.374 -0.2582  0.1934 -0.1789
19732W        W24132  23.495   5.013  30.394  0.1202  0.0184  0.0101
19733W        W24133   9.811   3.221  16.429 -0.1003  0.2928 -0.1587
19734W        W24134  21.441   7.414   7.247  0.3866  0.1010  0.2505
19735W        W24135   7.036   5.821  13.412 -0.1421 -0.0455 -0.1822
19736W        W24136   4.680   4.155   7.727 -0.0893 -0.1741  0.4625
19737W        W24137  21.603   3.930  28.469 -0.1958  0.0727 -0.3802
19738W        W24138   8.316   7.715  31.934  0.1807  0.1327 -0.0510
19739W        W24139  20.417   2.612  30.662 -0.1736 -0.0889 -0.0498
19740W        W24140   4.716   2.281  23.830 -0.0149  0.0797  0.0832
19741W        W24141  16.920   0.777   0.799  0.2190  0.2078  0.1248
19742W        W24142  20.094   6.398  16.326 -0.0811  0.1603  0.2022
19743W        W24143   3.938   0.449  22.846  0.1748 -0.2829  0.0712
19744W        W24144  13.205   3.572  23.503  0.0140  0.1793  0.2019
19745W        W24145  18.268   1.707  16.137 -0.2226 -0.1326 -0.2214
19746W        W24146   4.917   3.716  13.680 -0.0976  0.3615  0.0994
19747W        W24147  23.096   2.527   6.509 -0.0087  0.0779 -0.0355
19748W        W24148  19.220   1.722  15.319 -0.0558  0.2472  0.2439
19749W        W24149  10.205   6.922  28.377  0.4481 -0.0910  0.1565
19750W        W24150  18.108   2.297  17.288 -0.0119  0.2602  0.3276
19751W        W24151   2.475   4.273  24.413  0.2304 -0.0679 -0.0438
19752W        W24152  22.656   1.753  29.371 -0.1061  0.4157 -0.1348
19753W        W24153   8.368   1.649  23.972 -0.2311 -0.2915  0.0168
19754W        W24154  18.194   5.312  23.127 -0.2103  0.2307  0.0842
19755W        W24155   0.919   1.948  10.957 -0.0115 -0.1936  0.0419
19756W        W24156  22.277   7.392  31.972  0.0131 -0.1556  0.1012
19757W        W24157   3.193   7.040  31.381  0.2378 -0.1348 -0.0641
19758W        W24158  14.678   5.689   8.416  0.0639 -0.3624 -0.1505
19759W        W24159  21.701   7.455   1.649  0.0777 -0.2848 -0.0499
19760W        W24160  13.844   7.044   5.579  0.0566  0.1672 -0.2315
19761W        W24161  20.590   3.749  26.545  0.2374  0.1708  0.0751
19762W        W24162   5.546   2.471  23.500 -0.0146  0.0174  0.1360
19763W        W24163  19.008   6.813   9.955 -0.1097  0.1375 -0.1696
19764W        W24164  21.270   0.101  27.002  0.0262  0.1088 -0.1578
19765W        W24165  18.949   3.181  22.842  0.2088 -0.0567  0.0128
19766W        W24166  16.807   6.070   5.968  0.1250  0.1358 -0.1236
19767W        W24167  15.027   2.970  21.302  0.2102  0.0286  0.0746
19768W        W24168   7.292   3.392  14.328  0.1376 -0.2094  0.2796
19769W        W24169  19.530   4.529  15.453 -0.2982  0.1968  0.0926
19770W        W24170   3.880   6.698  10.779 -0.0787 -0.0013  0.0422
19771W        W24171  23.682   2.082   6.566  0.0229 -0.0341  0.3041
19772W        W24172   9.609   0.866  17.003  0.0078 -0.3754 -0.0658
19773W        W24173  22.214   6.760  10.101 -0.0123 -0.0092  0.1800
19774W        W24174  24.214   3.859   7.016 -0.0260 -0.1240  0.0169
19775W        W24175   0.904   4.619  30.672  0.0613  0.0506 -0.1436
19776W        W24176  10.431   4.503  29.380 -0.1782 -0.1388 -0.2407
19777W        W24177  11.945   7.271   3.644  0.1809 -0.1103 -0.3888
19778W        W24178  19.224   3.364   5.392 -0.3348  0.1849  0.1319
19779W        W24179  14.282   7.152   7.947 -0.0261  0.2999 -0.0199
19780W        W24180  21.400   4.514   2.082  0.1831 -0.0122  0.0562
19781W        W24181  11.537   1.892  26.044 -0.1275  0.0076 -0.1839
19782W        W24182  13.905   2.114   0.622 -0.1019  0.0587  0.0855
19783W        W24183  14.846   7.010   8.032 -0.0897  0.0822 -0.2885
19784W        W24184   0.659   5.606  27.811  0.0337 -0.4787  0.1638
19785W        W24185  22.021   3.013  28.266  0.0446  0.0112  0.0339
19786W        W24186  13.831   7.261  24.505 -0.2657 -0.2019 -0.0736
19787W        W24187  19.463   6.861  19.696  0.4077 -0.0289  0.0527
19788W        W24188   2.125   7.650   5.820  0.2508  0.2251 -0.1114
19789W        W24189  17.974   5.943  21.391  0.3431  0.2125 -0.0370
19790W        W24190  19.695   7.287  23.804 -0.1920 -0.0904 -0.1368
19791W        W24191  23.191   3.431  26.029  0.0008  0.0676  0.0635
19792W        W24192  24.582   0.238   1.964 -0.2077  0.1055  0.3671
19793W        W24193  20.377   4.672  21.550  0.1535  0.0703  0.2028
19794W        W24194   2.913   1.224  26.154 -0.0532 -0.1837  0.0938
19795W        W24195  16.698   0.984   1.895  0.0288  0.1536  0.1566
19796W        W24196  21.612   4.539  29.215  0.0995 -0.1059 -0.2045
19797W        W24197  23.542   7.286  15.775 -0.2785  0.0457  0.1822
19798W        W24198  10.978   4.758  25.741 -0.0156  0.4234  0.0329
19799W        W24199  12.090   1.991   2.043  0.2164  0.1981  0.1808
19800W        W24200  20.803   7.642  20.732 -0.0420 -0.2327  0.4383
19801W        W24201   6.809   2.929  29.162 -0.2590  0.1317  0.1319
19802W        W24202  12.282   4.482   9.869 -0.1365  0.2392 -0.2376
19803W        W24203  20.119   4.588  18.171  0.1424 -0.2766  0.0657
19804W        W24204  23.952   4.916   8.625  0.0526  0.1384  0.0982
19805W        W24205  24.052   6.083  26.795 -0.1479  0.1299  0.0831
19806W        W24206  22.535   6.717  26.439  0.3368 -0.1974  0.1490
19807W        W24207  18.498   5.382   5.845  0.0384  0.2650  0.3896
19808W        W24208  17.520   4.306  31.103 -0.0955 -0.0581 -0.0117
19809W        W24209   0.917   4.163  18.141 -0.2262  0.0043  0.0077
19810W        W24210   6.883   7.537  14.836 -0.1496 -0.1119  0.0079
19811W        W24211  20.105   0.923  28.907  0.2092 -0.1537 -0.0580
19812W        W24212  12.718   5.943  26.747  0.1867 -0.0792  0.0464
19813W        W24213   9.379   6.611   1.302 -0.1178  0.2252 -0.0864
19814W        W24214  16.847   0.835  11.215  0.2150  0.0193  0.1405
19815W        W24215  20.178   6.874  24.266 -0.1795 -0.1479  0.1033
19816W        W24216  18.891   7.128  19.764 -0.0975  0.0940 -0.2816
19817W        W24217   5.916   4.376  29.788 -0.0751 -0.3380 -0.0519
19818W        W24218  11.933   1.122  30.100  0.0908  0.1612 -0.0401
19819W        W24219  24.018   6.796  30.794  0.1822 -0.1924  0.0791
19820W        W24220  13.377   4.809   7.210  0.0958 -0.2174  0.1013
19821W        W24221  15.286   3.194  11.596 -0.0581 -0.0005  0.0695
19822W        W24222   6.659   4.253  23.350  0.0145 -0.0415 -0.1854
19823W        W24223  15.277   2.662  11.428 -0.0144  0.0744  0.1572
19824W        W24224   0.933   1.679  27.843  0.1347 -0.0641  0.0067
19825W        W24225   1.386   2.634  22.336  0.0960 -0.0657  0.1870
19826W        W24226  18.200   2.198  16.116  0.1815 -0.0797  0.1708
19827W        W24227  21.441   4.236  28.880  0.0039  0.0761 -0.1065
19828W        W24228   4.999   5.763  12.803 -0.1463  0.2299 -0.1942
19829W        W24229  10.001   6.511   8.014 -0.1789  0.1356 -0.1640
19830W        W24230  15.552   7.046  30.555  0.2813  0.2897  0.5413
19831W        W24231   9.857   6.316   3.796  0.0023  0.3114  0.1126
19832W        W24232   5.131   6.598   4.059 -0.1384 -0.0826  0.4458
19833W        W24233   4.490   6.767   2.803  0.2325 -0.2660  0.1008
19834W        W24234  15.760   3.177  23.863 -0.3454  0.0767  0.2050
19835W        W24235   4.025   6.016   9.718 -0.2031  0.1409  0.1875
19836W        W24236   3.289   7.573   1.273 -0.0049 -0.0472  0.0718
19837W        W24237  22.906   6.134  30.346 -0.0835  0.1924 -0.0394
19838W        W24238  19.840   1.178  16.324  0.1195  0.0604 -0.0525
19839W        W24239   6.191   2.673  25.161 -0.2998 -0.2555 -0.2727
19840W        W24240  23.379   7.759  17.701 -0.1787  0.0163  0.0948
19841W        W24241  16.756   2.317   6.970  0.1640  0.1523  0.2448
19842W        W24242  19.257   2.023  23.662  0.0427  0.0053  0.0887
19843W        W24243   5.149   4.490   0.390 -0.0629 -0.0146 -0.2154
19844W        W24244  10.663   0.921   2.344  0.2507 -0.0849  0.1437
19845W        W24245  21.960   0.335   3.390  0.3640 -0.0037  0.1540
19846W        W24246  23.515   5.361   1.420  0.1430 -0.2981 -0.0801
19847W        W24247  12.156   5.740  14.721  0.0168  0.1430  0.1181
19848W        W24248   0.969   2.088   6.831 -0.0155  0.1290  0.1071
19849W        W24249   7.365   3.438  28.656 -0.1835 -0.0790  0.0694
19850W        W24250   1.707   1.734   2.595  0.0160 -0.1721 -0.0653
19851W        W24251  15.700   0.897   5.415  0.3321  0.0102 -0.1967
19852W        W24252   0.344   4.748  19.197  0.0798  0.2235 -0.0954
19853W        W24253  15.771   5.536  29.795 -0.0673  0.1346 -0.3970
19854W        W24254  11.191   5.042   8.027 -0.0501  0.0002 -0.0361
19855W        W24255  20.040   6.176  15.895  0.1530  0.0133 -0.1786
19856W        W24256  16.032   4.147  25.355  0.1527 -0.1106  0.1440
19857W        W24257   5.362   2.312   6.578  0.1368  0.0878 -0.2085
19858W        W24258   4.572   5.103  23.938 -0.2541 -0.2464  0.1673
19859W        W24259   8.235   1.841  12.428 -0.0326  0.2408  0.0126
19860W        W24260  18.115   3.407  21.195  0.1054  0.0044 -0.0236
19861W        W24261  11.611   6.432  28.170  0.0436 -0.2748  0.0907
19862W        W24262   6.456   3.550  28.716  0.2186  0.0881  0.0791
19863W        W24263  13.467   6.938  13.086 -0.1911  0.0187 -0.2409
19864W        W24264  22.338   5.167  26.949  0.0055 -0.1091 -0.0053
19865W        W24265  23.213   1.475  26.443 -0.0356  0.0033 -0.0401
19866W        W24266  13.930   1.543  27.210  0.1456  0.2273  0.1360
19867W        W24267  21.501   3.282  29.863  0.1419 -0.1758 -0.2506
19868W        W24268   4.592   6.642  25.540 -0.0754 -0.2008 -0.0935
19869W        W24269   5.272   3.499   9.040  0.2193 -0.0046 -0.2560
19870W        W24270   8.360   5.102  10.344 -0.0650 -0.0886  0.1762
19871W        W24271  18.200   1.737  26.613 -0.1003  0.0155  0.1885
19872W        W24272  20.549   3.491  27.982  0.0033 -0.1086  0.0778
19873W        W24273   0.023   0.662  11.121  0.4074 -0.2532  0.0410
19874W        W24274  17.080   5.531  21.308  0.2751 -0.0671 -0.2218
19875W        W24275   7.611   1.889  26.063 -0.2932 -0.0567  0.1760
19876W        W24276  10.072   2.784   6.204 -0.0071  0.1293 -0.0184
19877W        W24277  24.357   1.347  26.180  0.1930  0.1187 -0.2027
19878W        W24278  23.266   2.616  27.015  0.0899  0.1952  0.0303
19879W        W24279  22.789   4.123  18.937 -0.2400  0.0690 -0.4377
19880W        W24280  23.835   4.606   7.001  0.1723 -0.0595 -0.1735
19881W        W24281  21.381   6.441   4.943 -0.1105 -0.0283  0.3045
19882W        W24282  14.901   0.312  29.328  0.3170 -0.1098  0.1077
19883W        W24283   5.346   2.518   3.777 -0.0920 -0.3469  0.1226
19884W        W24284   1.004   2.692  18.257  0.0325 -0.3287 -0.0080
19885W        W24285  17.529   3.344  29.441 -0.0756  0.1053 -0.0473
19886W        W24286   6.547   4.865   2.282 -0.2540 -0.0755  0.0005
19887W        W24287   9.753   2.130  30.160 -0.2177 -0.1824  0.2294
19888W        W24288  15.185   2.554  27.776  0.0814 -0.2955  0.0107
19889W        W24289  24.474   3.482   5.160  0.0733  0.1037  0.0102
19890W        W24290   3.508   3.772  28.376  0.2046 -0.0959 -0.0009
19891W        W24291   9.724   2.474  17.675 -0.0002 -0.0694  0.4212
19892W        W24292  23.166   5.628  32.138 -0.0848  0.1970  0.0421
19893W        W24293  17.118   5.704  24.895 -0.4184 -0.0845  0.1110
19894W        W24294   6.878   1.107   3.633 -0.2719 -0.0652 -0.0221
19895W        W24295   5.466   3.165   1.163  0.0630  0.1762  0.1897
19896W        W24296  18.844   5.138   1.998 -0.0436 -0.1267 -0.3829
19897W        W24297  19.805   5.972  30.268  0.1353 -0.2973 -0.0182
19898W        W24298   2.587   2.483  32.243  0.1806  0.1531  0.1403
19899W        W24299  16.904   1.749  23.429  0.0916  0.0963  0.0523
19900W        W24300  15.694   3.461  29.841 -0.5433  0.2108 -0.0638
19901W        W24301   2.123   2.676  29.319  0.1060 -0.0364 -0.1088
19902W        W24302   4.003   1.927   0.173 -0.0329 -0.1806 -0.2887
19903W        W24303   9.977   1.081   2.957  0.0797 -0.0041  0.2871
19904W        W24304   6.509   3.644  22.766 -0.0937 -0.1648  0.0522
19905W        W24305   9.380   5.504  32.218  0.0461  0.3788 -0.0458
19906W        W24306  19.574   0.278  30.232 -0.1225  0.3722  0.1073
19907W        W24307  23.782   1.824  32.032  0.0975  0.1048 -0.3750
19908W        W24308  24.066   4.260   2.809 -0.0105 -0.0503  0.0645
19909W        W24309  18.890   7.561   3.203  0.2626 -0.1301 -0.0362
19910W        W24310  20.974   2.715  27.520 -0.0411  0.0420  0.0816
19911W        W24311  22.674   6.770  31.165  0.1042 -0.1673  0.0703
19912W        W24312   5.452   6.195   7.355  0.1068  0.0170 -0.0222
19913W        W24313  16.020   5.070  24.662  0.1671 -0.0645 -0.0634
19914W        W24314  17.698   2.771   2.392 -0.3835  0.0929 -0.0417
19915W        W24315   1.930   2.969  28.101  0.2060  0.1455  0.1768
19916W        W24316  11.939   3.306  11.436  0.1840  0.0202 -0.2867
19917W        W24317   6.325   7.817  12.761  0.0883  0.0047  0.0010
19918W        W24318   3.572   2.903  30.049  0.0571 -0.1700  0.1988
19919W        W24319   6.531   7.261  10.711  0.0218  0.1039  0.0166
19920W        W24320  10.463   1.403   3.788  0.0682 -0.1910  0.0066
19921W        W24321   2.044   4.381  21.225  0.3000  0.1094  0.2219
19922W        W24322   8.579   5.730  23.011 -0.1543 -0.0550 -0.1224
19923W        W24323  12.803   1.316  29.834  0.2149  0.0983  0.0752
19924W        W24324   4.384   4.438   1.607 -0.2535  0.1260  0.2088
19925W        W24325  12.007   5.326  12.757 -0.0140 -0.2062  0.0137
19926W        W24326   3.080   4.815   2.997 -0.1134  0.0585  0.1229
19927W        W24327   0.905   3.322   7.574 -0.0870 -0.2437  0.1669
19928W        W24328   2.894   4.701   2.053  0.0425 -0.0991  0.1465
19929W        W24329   1.802   6.704  30.331 -0.1774  0.0260 -0.1653
19930W        W24330   5.763   4.618  15.766  0.1676  0.0259  0.1383
19931W        W24331  21.798   6.341  21.179  0.2373  0.2568  0.1189
19932W        W24332  24.894   3.945   2.607  0.3528 -0.1066  0.0897
19933W        W24333  23.142   4.042  18.419  0.2036 -0.0391 -0.0738
19934W        W24334   9.841   4.393  30.027 -0.1672 -0.2717 -0.0824
19935W        W24335  16.168   1.006   5.309 -0.0538  0.1571  0.2711
19936W        W24336  21.921   0.499  15.719  0.0617  0.1432 -0.1413
19937W        W24337  18.475   0.062   8.963 -0.2795 -0.0909  0.1470
19938W        W24338  19.254   2.375   0.334 -0.0159  0.0143  0.1579
19939W        W24339  21.908   2.266  23.194  0.0021 -0.0878  0.1605
19940W        W24340  17.491   2.103  10.047 -0.0121  0.1177  0.2671
19941W        W24341  22.358   1.513  30.274 -0.0499 -0.1430  0.0471
19942W        W24342   5.819   1.175   0.480 -0.3514  0.3970 -0.1622
19943W        W24343   0.976   7.536   1.702 -0.0101 -0.0826 -0.1209
19944W        W24344  13.094   5.487  21.271  0.2883 -0.1677 -0.0581
19945W        W24345  22.622   4.927  22.290 -0.0248 -0.0053 -0.1952
19946W        W24346  23.036   1.718   7.045  0.0231  0.0124  0.4251
19947W        W24347  24.706   4.946   4.358  0.1362 -0.1264 -0.2212
19948W        W24348  16.477   3.565   1.351 -0.2309  0.0454 -0.2087
19949W        W24349   2.960   3.227   6.487  0.0824 -0.0509 -0.0914
19950W        W24350  12.195   5.713  13.468 -0.1686  0.0667  0.1030
19951W        W24351   7.648   5.536  22.110 -0.0633  0.1913  0.4754
19952W        W24352   8.965   3.766   7.133  0.1301  0.2336 -0.0023
19953W        W24353  24.059   3.026  28.660 -0.0299  0.1993  0.5209
19954W        W24354  11.979   6.750   4.618  0.0761  0.3226  0.1139
19955W        W24355  21.574   6.998  30.917 -0.1392  0.0162  0.2362
19956W        W24356  21.795   3.313  27.100 -0.2419 -0.1993  0.0131
19957W        W24357   7.073   4.858  14.764  0.2633  0.0331 -0.0879
19958W        W24358  16.083   1.312   4.527 -0.0233 -0.1813  0.1201
19959W        W24359  16.324   2.226  19.245  0.3620 -0.0534  0.2278
19960W        W24360  17.064   5.752  22.246  0.2382  0.1830 -0.1306
19961W        W24361  16.738   5.754   2.657 -0.2082 -0.2823 -0.0115
19962W        W24362   3.657   2.592  30.457  0.1599  0.2949  0.1377
19963W        W24363   3.605   0.522  12.860  0.1967  0.1371 -0.2281
19964W        W24364  23.763   5.374  21.502  0.0144 -0.1981 -0.0465
19965W        W24365  13.856   0.305  13.140  0.3164  0.0134  0.0360
19966W        W24366   3.314   5.490   5.397 -0.0378  0.0605 -0.0725
19967W        W24367  11.501   7.201  26.733 -0.2757  0.0678 -0.1786
19968W        W24368   9.732   0.080   6.102  0.0484  0.0915  0.2665
19969W        W24369   6.215   2.328   1.417  0.0990 -0.0958  0.0146
19970W        W24370  19.174   7.738   1.871  0.1571 -0.0402  0.0395
19971W        W24371  24.989   7.289   3.751 -0.1035  0.1571  0.1142
19972W        W24372  21.959   1.880  14.863 -0.0045 -0.0188 -0.1773
19973W        W24373   3.526   0.610  31.143  0.1295  0.1554 -0.2003
19974W        W24374  10.509   3.292  15.170 -0.2909  0.0333  0.2639
19975W        W24375   5.801   2.634  31.244  0.1913 -0.1374  0.2989
19976W        W24376  15.411   1.481   5.278 -0.1518  0.2462 -0.1661
19977W        W24377  11.503   0.296   5.122 -0.1151 -0.3619 -0.1371
19978W        W24378  13.716   5.829  23.927 -0.0481  0.1380 -0.1145
19979W        W24379   6.128   6.459   6.299 -0.0539 -0.0772 -0.2113
19980W        W24380  11.511   4.060   6.797  0.1089  0.3425  0.2275
19981W        W24381  10.816   6.638  12.625  0.0249 -0.0853  0.0119
19982W        W24382   7.796   6.403  11.614  0.0620  0.1451  0.0825
19983W        W24383  17.078   2.643   8.277  0.2114  0.0926  0.2224
19984W        W24384  21.782   4.996  16.369  0.0446  0.1669 -0.1045
19985W        W24385  15.333   5.203  18.804 -0.1640  0.3755  0.0644
19986W        W24386  19.740   5.121   9.356  0.0916  0.1374  0.1496
19987W        W24387  18.747   7.694  17.521  0.1159  0.2229  0.1077
19988W        W24388   4.625   1.571   6.215  0.2787 -0.0292 -0.2108
19989W        W24389   4.346   4.903  25.043  0.0451 -0.0134  0.0106
19990W        W24390   2.640   1.868   9.097  0.0304  0.0300  0.0778
19991W        W24391  14.986   4.345  20.308  0.1480  0.0031  0.2440
19992W        W24392  12.969   5.223  11.753  0.0071  0.2085  0.1001
19993W        W24393  22.585   7.645  26.383  0.4379  0.2503 -0.0233
19994W        W24394  13.331   4.267  30.684  0.0273  0.0032 -0.1409
19995W        W24395   3.053   6.740  10.234  0.3324 -0.0425 -0.0557
19996W        W24396  22.301   1.105   4.390  0.1122 -0.0171 -0.2100
19997W        W24397   3.087   0.388  11.753 -0.0264 -0.1832  0.3226
19998W        W24398  18.610   1.128  17.340  0.0710  0.1356  0.0359
19999W        W24399  12.278   4.572  30.183 -0.0879 -0.0576 -0.3596
20000W        W24400  12.530   6.214  22.983 -0.1787  0.0115 -0.0100
20001W        W24401  20.158   1.120   7.217 -0.1127 -0.0344 -0.1360
20002W        W24402  16.476   7.744   1.043  0.0082 -0.0879 -0.2809
20003W        W24403  13.001   5.326  25.814 -0.1169  0.1409  0.1750
20004W        W24404  12.727   3.513   4.247 -0.3450  0.0209  0.0833
20005W        W24405   9.211   5.854  16.114 -0.0569 -0.2151  0.2379
20006W        W24406   6.566   1.042   4.519  0.1984  0.1119 -0.0071
20007W        W24407   2.187   5.463  22.517 -0.1010 -0.1690  0.1697
20008W        W24408  15.222   4.251  21.852  0.2152 -0.0922 -0.5300
20009W        W24409   7.593   7.023   1.535  0.0993 -0.1485 -0.1817
20010W        W24410   9.203   3.936   3.328  0.1043  0.1686 -0.2431
20011W        W24411   4.159   0.601  25.652  0.1907 -0.1036 -0.0290
20012W        W24412   0.448   6.971  27.356  0.1462  0.1879 -0.2785
20013W        W24413  11.558   6.558  28.903 -0.0827 -0.0944 -0.0464
20014W        W24414  23.780   6.340   8.635 -0.1635 -0.0303 -0.1953
20015W        W24415   8.111   5.518  31.077 -0.2112  0.0176  0.0122
20016W        W24416   5.730   4.680  30.280  0.0436  0.2179  0.0592
20017W        W24417  15.181   2.485   5.033  0.0794  0.0366 -0.3273
20018W        W24418  18.253   3.835  21.439 -0.4369  0.0685 -0.2418
20019W        W24419  11.944   1.802  22.460  0.2470 -0.0698 -0.2007
20020W        W24420  19.894   5.768   9.949  0.1099 -0.0741  0.2790
20021W        W24421   6.055   4.095  10.695  0.1942  0.1450  0.1003
20022W        W24422  14.588   1.006  31.897 -0.0464 -0.1495 -0.0205
20023W        W24423  20.865   1.906   0.177 -0.0592 -0.2750 -0.0882
20024W        W24424  24.058   6.306  24.025 -0.1566 -0.6443 -0.1093
20025W        W24425  14.614   3.326  28.103 -0.1562  0.2047  0.1576
20026W        W24426   4.220   5.110  11.361  0.0558 -0.0334 -0.3876
20027W        W24427  10.495   7.237  17.827 -0.1531 -0.0332  0.1123
20028W        W24428   0.826   2.210  29.990 -0.2648 -0.2468 -0.0292
20029W        W24429  10.215   5.859  28.137  0.1143 -0.0725 -0.0401
20030W        W24430  16.512   2.677  28.102  0.1938  0.0736 -0.0932
20031W        W24431  10.663   2.876  22.311  0.1856 -0.2993 -0.0087
20032W        W24432   7.091   5.893  26.144 -0.2848  0.0447 -0.0676
20033W        W24433   6.390   3.453   4.492  0.2697 -0.2639  0.0804
20034W        W24434   4.871   0.801  24.825 -0.0086  0.0523  0.1125
20035W        W24435   7.425   0.094   1.494  0.3189  0.2402 -0.1360
20036W        W24436  15.173   1.709  28.202  0.0293 -0.0094  0.1085
20037W        W24437  19.832   4.038  22.575 -0.1585 -0.1366 -0.0537
20038W        W24438   1.872   2.855   4.352 -0.1555  0.1188 -0.0094
20039W        W24439   3.035   2.201  24.665 -0.3228 -0.0714  0.1125
20040W        W24440  24.491   0.183  27.321  0.0294 -0.2892 -0.2959
20041W        W24441  10.185   4.213  22.594 -0.0156 -0.0025 -0.0815
20042W        W24442  18.114   2.875  26.418  0.1624 -0.2982  0.0773
20043W        W24443  22.352   3.666  22.187  0.1120  0.1141  0.1416
20044W        W24444  10.165   2.789   6.708 -0.1110  0.0107  0.1204
20045W        W24445  15.927   5.989  31.559 -0.0812  0.2000 -0.1640
20046W        W24446  19.559   4.228  18.816  0.3840 -0.1065  0.2759
20047W        W24447  15.940   3.209  32.701 -0.1362  0.2232  0.3402
20048W        W24448  15.495   5.612  10.623  0.1932  0.2820  0.0555
20049W        W24449   2.371   6.263   4.993  0.1816 -0.1850  0.1467
20050W        W24450  11.089   3.556  23.374 -0.2122  0.3653  0.2881
20051W        W24451  10.580   7.361  11.977 -0.2335 -0.0136 -0.1385
20052W        W24452  10.424   1.770   1.899  0.0479 -0.0009 -0.1192
20053W        W24453   1.192   0.507   7.415  0.1960  0.2945  0.1395
20054W        W24454   9.599   0.656  12.108  0.0434 -0.2986  0.0254
20055W        W24455  12.051   6.413   1.944  0.0560 -0.0879 -0.0985
20056W        W24456  23.255   7.765   4.712 -0.0030  0.3275  0.0199
20057W        W24457  17.074   6.549   6.777 -0.1198  0.0378  0.1236
20058W        W24458   4.867   7.119  10.941 -0.2369  0.3390 -0.0848
20059W        W24459  16.549   5.888  27.386 -0.3090  0.0562  0.1482
20060W        W24460  23.520   5.219   7.101 -0.1812  0.1180 -0.1056
20061W        W24461   7.768   6.401  23.763 -0.1674 -0.2899 -0.0366
20062W        W24462   5.352   3.121  22.215 -0.0356  0.2271  0.3251
20063W        W24463  21.920   2.647  19.521 -0.1735  0.0443  0.2148
20064W        W24464  10.559   6.769  24.885 -0.1056 -0.1227 -0.1227
20065W        W24465   7.291   0.507   7.743  0.1154 -0.2942 -0.1837
20066W        W24466  21.202   2.103  21.649  0.1133 -0.0051  0.1115
20067W        W24467  24.208   6.918   4.248 -0.2633 -0.2611  0.0270
20068W        W24468  17.594   7.114  27.692  0.0127  0.0614  0.0514
20069W        W24469   6.071   5.546  16.745  0.3496 -0.0423  0.2552
20070W        W24470  18.637   2.190   4.963 -0.0355  0.0418 -0.2953
20071W        W24471  12.099   4.131  26.031 -0.1102  0.0101 -0.2825
20072W        W24472   9.565   1.625  30.441 -0.0447  0.2207  0.0183
20073W        W24473  20.527   0.976  24.579  0.0549  0.0333  0.1220
20074W        W24474   5.474   5.032  24.202  0.0713  0.0195 -0.3688
20075W        W24475   1.988   5.607  29.550  0.1238 -0.2480  0.1286
20076W        W24476   4.935   0.194   1.141  0.3167  0.1983 -0.1030
20077W        W24477  24.839   1.747  24.308  0.0947 -0.1896 -0.0363
20078W        W24478   9.146   2.757  11.999 -0.3293 -0.0703 -0.0920
20079W        W24479  16.498   5.946  18.201  0.1092  0.2949 -0.2077
20080W        W24480  24.087   4.574  30.289 -0.0473 -0.1174 -0.1037
20081W        W24481  24.373   1.645  22.256  0.1154 -0.1748 -0.1551
20082W        W24482   2.996   2.817  32.210 -0.1300 -0.0828 -0.1811
20083W        W24483   4.251   6.143   3.479 -0.2366 -0.2479  0.0929
20084W        W24484  21.192   6.003  24.802 -0.0180 -0.1648  0.0027
20085W        W24485  20.663   3.553  28.501 -0.2461 -0.1778 -0.1039
20086W        W24486  22.626   2.733   4.802  0.1636  0.0386  0.0462
20087W        W24487   2.535   0.870  12.304  0.2098 -0.2609 -0.3237
20088W        W24488  21.420   2.876  15.431  0.0270  0.2295  0.1189
20089W        W24489   4.587   5.398  27.417  0.0080 -0.1234 -0.1751
20090W        W24490   4.394   0.262  24.092 -0.1268 -0.0243 -0.0225
20091W        W24491  12.151   2.996  25.658 -0.0317  0.2393 -0.0964
20092W        W24492  14.062   6.691  28.541  0.0665 -0.1161 -0.0890
20093W        W24493  16.386   0.771  11.639 -0.0227 -0.1034 -0.0564
20094W        W24494   6.314   1.272   0.518  0.0893  0.0527 -0.0443
20095W        W24495  19.432   1.298  21.972 -0.2106 -0.2421  0.1714
20096W        W24496  18.559   0.858  21.653 -0.0801  0.1424  0.0082
20097W        W24497   6.013   1.121  14.485 -0.2165  0.1002 -0.1866
20098W        W24498   9.410   2.106  30.526 -0.1320 -0.3259  0.2772
20099W        W24499  10.965   7.368  13.945  0.1436 -0.0700 -0.0428
20100W        W24500  19.409   3.537  18.308 -0.1454  0.1130  0.1047
20101W        W24501  17.580   0.821  32.073  0.1755 -0.1752 -0.0001
20102W        W24502   3.283   5.163   4.329  0.0390 -0.0177  0.2560
20103W        W24503   8.336   4.714   4.246 -0.3916 -0.1081 -0.1635
20104W        W24504   2.997   4.744   9.580 -0.0089  0.3204  0.1097
20105W        W24505  20.868   0.423   7.014 -0.0593 -0.4277 -0.1893
20106W        W24506  17.475   5.815  12.278  0.1972  0.1434  0.0770
20107W        W24507   4.404   1.201  31.947 -0.4266 -0.2776 -0.0351
20108W        W24508   4.411   0.157   6.038  0.0634 -0.0244  0.1728
20109W        W24509  22.098   5.418  17.226  0.1506  0.2100 -0.0206
20110W        W24510   0.435   2.622  27.092 -0.1111  0.1413  0.1814
20111W        W24511   4.723   1.178   8.900 -0.2133 -0.0931 -0.3557
20112W        W24512  15.796   7.281   8.923 -0.3236 -0.1185 -0.1668
20113W        W24513   6.674   2.094  23.933  0.0113  0.0967 -0.0702
20114W        W24514   6.204   6.659   6.722  0.0753 -0.3877 -0.0258
20115W        W24515  15.830   1.050  10.306 -0.1372  0.0391  0.2155
20116W        W24516  21.160   0.364   0.749 -0.3510  0.1508  0.0040
20117W        W24517   3.794   7.476   1.534 -0.0797  0.1873  0.3206
20118W        W24518   2.985   5.435   2.158  0.2133  0.1446 -0.2268
20119W        W24519  15.258   0.643  27.406 -0.3896 -0.0831  0.1145
20120W        W24520   8.978   0.871   9.200  0.3297  0.0487 -0.0339
20121W        W24521  23.791   2.714  15.362  0.1372 -0.1130  0.0193
20122W        W24522   3.227   1.669  22.723 -0.0433 -0.0920  0.2686
20123W        W24523   3.943   6.050  30.548 -0.0631  0.4546 -0.1512
20124W        W24524  16.077   1.356   7.403  0.1652 -0.1874  0.0482
20125W        W24525   2.483   7.262  25.775  0.2311  0.1321  0.0331
20126W        W24526   1.467   4.891  17.783 -0.1108 -0.4743 -0.0604
20127W        W24527  15.063   0.728  26.150  0.2442  0.0428  0.2446
20128W        W24528   7.571   0.728   3.430 -0.0182  0.0583  0.0620
20129W        W24529  11.501   1.911   0.050  0.2975 -0.1649  0.2258
20130W        W24530  20.477   5.411   5.494  0.0212 -0.1372 -0.1342
20131W        W24531  14.225   2.387  24.217 -0.0170 -0.0241 -0.0120
20132W        W24532   5.685   0.929   9.240 -0.1695 -0.0082 -0.1029
20133W        W24533   9.141   2.307  24.255  0.2939  0.0996  0.1392
20134W        W24534  11.379   4.739  24.212  0.0181 -0.1062 -0.0821
20135W        W24535  16.611   2.513   0.968 -0.0399 -0.0057 -0.1465
20136W        W24536  17.546   0.530  15.732  0.1630 -0.0146 -0.0666
20137W        W24537  24.213   3.418  23.709  0.0407 -0.2757 -0.1511
20138W        W24538  12.301   4.685  23.287 -0.0286  0.0621 -0.0788
20139W        W24539   0.054   3.362   1.171 -0.0350 -0.3267 -0.3877
20140W        W24540  20.186   4.319  28.002  0.1334  0.1120  0.2044
20141W        W24541  22.683   7.348  29.857  0.0452 -0.4784  0.1674
20142W        W24542  17.878   6.613  17.930 -0.1625 -0.0021  0.0146
20143W        W24543  18.970   2.783  16.744  0.2095  0.0276  0.4165
20144W        W24544  18.039   0.623   8.582  0.2190  0.3027 -0.1394
20145W        W24545  13.410   2.190   7.866  0.1711 -0.0280  0.4286
20146W        W24546  18.823   6.954   4.782  0.1428  0.0237 -0.0681
20147W        W24547   7.234   6.502  15.394 -0.0283  0.3314 -0.1253
20148W        W24548  12.591   0.073   8.235  0.0785 -0.1093 -0.1059
20149W        W24549   1.674   2.806  20.209  0.1819 -0.0924 -0.0567
20150W        W24550  10.251   5.537   9.598  0.2550  0.1105 -0.0144
20151W        W24551  12.079   7.082  14.957 -0.0925  0.2000  0.0880
20152W        W24552  25.001   1.565   6.584 -0.0588  0.1041  0.1919
20153W        W24553   5.367   1.660  10.509  0.1409  0.0501 -0.2345
20154W        W24554   5.335   5.326   6.991 -0.0253  0.1128 -0.1295
20155W        W24555   5.468   7.047   2.161  0.0245 -0.3980 -0.0816
20156W        W24556   3.418   6.162  28.247  0.1276  0.1835 -0.1870
20157W        W24557   1.625   1.457   3.098 -0.0186 -0.0399 -0.0435
20158W        W24558   0.758   0.019  26.960  0.0687 -0.1428 -0.0750
20159W        W24559  22.024   1.133   5.680 -0.2432 -0.1732 -0.0601
20160W        W24560   8.563   2.787   0.135 -0.1329  0.0512  0.0314
20161W        W24561  22.694   3.167  14.903  0.0651 -0.1733  0.0364
20162W        W24562   1.233   6.298  32.147  0.1493 -0.0952 -0.0713
20163W        W24563   5.888   5.101  29.951 -0.1003 -0.3800 -0.1937
20164W        W24564  15.847   1.260   1.378 -0.1445  0.1326 -0.1652
20165W        W24565   9.492   2.081  15.110  0.1888  0.1526  0.0515
20166W        W24566  12.410   4.303  31.848 -0.0389 -0.2299 -0.3210
20167W        W24567   1.830   3.505  27.312  0.0788 -0.1872 -0.1081
20168W        W24568  21.858   6.663   1.222  0.0392  0.4698  0.0142
20169W        W24569   8.170   7.808  27.081 -0.5121 -0.0544 -0.3492
20170W        W24570  23.209   0.072   8.819 -0.1823 -0.5099  0.0881
20171W        W24571  23.231   3.729   0.918  0.0327 -0.0684  0.0152
20172W        W24572  15.662   4.777   7.039  0.0321 -0.0396 -0.0835
20173W        W24573  20.374   3.120   4.529 -0.3038  0.3093 -0.1078
20174W        W24574  12.620   7.123  30.122  0.1228 -0.1501 -0.2439
20175W        W24575  19.972   2.205   5.518 -0.2694 -0.0556 -0.1471
20176W        W24576  16.425   3.293  31.170 -0.5768  0.4229  0.0950
20177W        W24577  14.670   2.402  22.123  0.0368  0.0449  0.1663
20178W        W24578  20.932   6.336  17.588  0.1453 -0.2262 -0.3032
20179W        W24579   8.937   4.292  12.050 -0.0002  0.2647  0.1133
20180W        W24580   8.845   3.809  12.220 -0.0138  0.2938  0.2025
20181W        W24581   5.452   7.235  12.074  0.0561  0.4578 -0.2994
20182W        W24582  10.010   3.169  18.068  0.1692 -0.2136 -0.2203
20183W        W24583   7.681   1.690   4.850  0.3326  0.1529 -0.0792
20184W        W24584  12.479   6.875  32.089  0.1075  0.1926 -0.0593
20185W        W24585  18.817   2.930  31.607 -0.0297 -0.0636  0.0070
20186W        W24586  13.072   1.631  30.135  0.1491 -0.0647 -0.2306
20187W        W24587  15.598   7.652  27.779 -0.1171  0.1513  0.2797
20188W        W24588  22.226   1.968  10.275  0.3158 -0.0577  0.0733
20189W        W24589   6.844   2.457   5.652 -0.0726 -0.1710 -0.2279
20190W        W24590   5.412   0.923  11.091 -0.1203 -0.1658  0.0051
20191W        W24591  21.618   6.857   3.662  0.0234  0.2788  0.2189
20192W        W24592  23.963   3.444  18.652 -0.4419  0.0618  0.0639
20193W        W24593  16.572   1.133  29.411 -0.3537  0.2643  0.0853
20194W        W24594  16.402   4.779  26.492 -0.2457 -0.0801  0.1032
20195W        W24595   4.382   6.765  10.097  0.0259  0.3825  0.4845
20196W        W24596  15.445   1.011  29.391  0.0880  0.0505 -0.1114
20197W        W24597   3.984   7.342   9.375  0.0455 -0.0861 -0.0719
20198W        W24598  13.336   3.427  28.994 -0.0938 -0.1643  0.0129
20199W        W24599  13.176   4.209  31.825  0.1306 -0.0686  0.0929
20200W        W24600  24.501   2.174  31.538  0.0567 -0.0452 -0.0442
20201W        W24601  21.095   4.853   2.297 -0.0170  0.0341  0.0513
20202W        W24602  14.514   4.125   1.972 -0.2179 -0.1451 -0.0400
20203W        W24603   6.286   7.255  31.728  0.0388 -0.2177  0.0297
20204W        W24604  14.923   6.981  26.454 -0.1773  0.1683 -0.1996
20205W        W24605   0.407   0.881   9.932 -0.0379  0.2028  0.1617
20206W        W24606  20.858   0.554  14.681  0.1265  0.1900 -0.0527
20207W        W24607  14.166   5.478  20.559  0.0495  0.2192 -0.0482
20208W        W24608   8.061   3.563  23.196  0.0112  0.0905  0.1596
20209W        W24609   3.462   2.620   2.596 -0.1027 -0.0373 -0.3558
20210W        W24610  20.273   5.880  24.915 -0.0780 -0.0874  0.1207
20211W        W24611  19.995   7.517   0.639  0.3814  0.0141 -0.0925
20212W        W24612   3.884   7.508  24.633  0.1577 -0.3560  0.1644
20213W        W24613  12.865   5.430  14.189 -0.0387 -0.1911 -0.0856
20214W        W24614   9.448   1.901   6.594  0.2734 -0.3067  0.1349
20215W        W24615  23.391   1.996  23.737 -0.0049 -0.0522  0.2180
20216W        W24616   1.450   1.799   9.492 -0.0547  0.1250 -0.0234
20217W        W24617   2.812   3.908  24.173  0.0317  0.0587 -0.1041
20218W        W24618   7.880   2.460  15.846  0.1103  0.1497  0.0273
20219W        W24619  19.448   4.759  32.707 -0.1672 -0.0789 -0.0112
20220W        W24620  12.930   4.975   9.377  0.3130 -0.1332 -0.3850
20221W        W24621   6.329   3.913  15.035  0.0098  0.0085 -0.1570
20222W        W24622   0.724   0.874  32.219  0.0944  0.1909 -0.0863
20223W        W24623  20.999   6.903   1.261 -0.0357  0.0265  0.4025
20224W        W24624  20.910   7.530  24.309 -0.1054 -0.0279  0.1871
20225W        W24625  17.523   0.346  19.009  0.0993 -0.1174 -0.3856
20226W        W24626  23.776   1.699   9.217  0.3024  0.1175  0.2566
20227W        W24627   3.061   4.686  22.595  0.0082 -0.0377 -0.0431
20228W        W24628  12.971   6.110  13.151 -0.0125 -0.3275 -0.1689
20229W        W24629  17.498   5.869  19.402  0.1027  0.1362  0.0706
20230W        W24630   8.092   1.328   8.138  0.0652 -0.1468  0.0911
20231W        W24631  22.159   7.796  18.406  0.2964  0.0533 -0.1828
20232W        W24632  19.861   4.823  19.532 -0.2867 -0.0620  0.1144
20233W        W24633   9.177   6.841   8.265 -0.0187 -0.3083 -0.0640
20234W        W24634   1.726   7.478   6.244 -0.0681  0.0616  0.0997
20235W        W24635  21.086   5.154  22.770 -0.1871  0.0757 -0.0557
20236W        W24636   0.162   4.209  19.218 -0.1251  0.1959  0.2640
20237W        W24637   5.080   0.665  14.576  0.2471 -0.2404  0.3240
20238W        W24638   9.589   5.286  12.636 -0.3725  0.1158  0.1858
20239W        W24639  24.292   3.057  17.851  0.0059  0.2563 -0.0772
20240W        W24640  11.082   3.928  17.838 -0.0259 -0.1197 -0.0919
20241W        W24641   3.812   0.364  26.023 -0.2458 -0.1074 -0.2361
20242W        W24642  17.878   3.323  22.919  0.0983 -0.0250 -0.0230
20243W        W24643  16.209   2.846  25.870  0.4147 -0.2123 -0.0089
20244W        W24644  10.500   5.854  28.934 -0.0363  0.1008 -0.2498
20245W        W24645   1.206   0.502  11.380 -0.3015 -0.1177  0.2530
20246W        W24646   1.771   4.690  28.340  0.0444  0.0077  0.2537
20247W        W24647  10.906   3.022   3.186  0.0421 -0.0554 -0.1557
20248W        W24648  14.820   5.493   7.264 -0.1856  0.0374  0.0119
20249W        W24649   3.411   2.537   1.001 -0.0292 -0.0920 -0.1210
20250W        W24650   4.887   1.119   3.209 -0.0687 -0.0476  0.1992
20251W        W24651  13.907   3.019  29.463  0.0797 -0.2945  0.2897
20252W        W24652  24.728   3.696  11.129  0.2795  0.2227  0.2786
20253W        W24653   6.365   7.203  29.710  0.3001  0.0029  0.2081
20254W        W24654   2.115   3.615   0.977 -0.3305  0.0218 -0.0305
20255W        W24655  21.752   2.310   0.157 -0.1533  0.0576 -0.3509
20256W        W24656  18.258   3.425   7.217 -0.5552 -0.0045 -0.0384
20257W        W24657   7.153   7.290   8.704  0.0245 -0.0568 -0.0298
20258W        W24658   1.844   4.909  30.711  0.0199 -0.1103  0.1928
20259W        W24659   1.049   3.375  22.974 -0.0822  0.1510 -0.2156
20260W        W24660  10.696   7.329  17.334 -0.1031  0.2600 -0.2229
20261W        W24661   0.831   6.859   2.187 -0.1119  0.0178 -0.1610
20262W        W24662  22.416   4.081   5.820 -0.1294 -0.1057 -0.2621
20263W        W24663   6.409   3.497  27.988 -0.0852 -0.0401 -0.1829
20264W        W24664   9.905   4.356   7.152 -0.0465  0.0527  0.0605
20265W        W24665  21.645   2.545  22.644  0.0474  0.1370  0.2566
20266W        W24666  22.000   1.915  30.362  0.3615 -0.2629 -0.1325
20267W        W24667   4.688   2.075  15.746  0.1199 -0.0190  0.1041
20268W        W24668  24.963   7.558   3.292 -0.0120  0.0515 -0.0490
20269W        W24669   1.092   5.622  31.590  0.0702 -0.0173 -0.0083
20270W        W24670   1.676   0.073  32.002  0.1812  0.0925  0.1289
20271W        W24671  17.200   4.041  18.733 -0.2358 -0.1370  0.1375
20272W        W24672  17.064   5.545   2.264  0.0500  0.0985  0.2310
20273W        W24673  21.033   1.513  23.809 -0.0272  0.1556  0.0121
20274W        W24674   7.286   5.798   9.915 -0.0646 -0.0866  0.0892
20275W        W24675  14.016   1.189   6.011  0.0408  0.0868  0.1371
20276W        W24676  13.696   2.663  20.534 -0.4526  0.1124 -0.2080
20277W        W24677   6.533   7.537  24.456  0.0310 -0.1526  0.0305
20278W        W24678  22.538   6.175  22.036  0.0293  0.0607 -0.0140
20279W        W24679  14.382   2.348  27.382 -0.3631 -0.1175  0.0288
20280W        W24680   0.639   3.024   3.406  0.0119 -0.0692 -0.1424
20281W        W24681   1.831   5.298   4.253  0.0213  0.0430  0.2019
20282W        W24682   6.229   5.328  25.514  0.0958  0.1679  0.0683
20283W        W24683  20.397   1.048   3.062 -0.0922  0.1164 -0.1616
20284W        W24684  13.258   7.352  27.305  0.2998 -0.1389 -0.3304
20285W        W24685   8.951   4.540  24.266  0.0207  0.3061 -0.0952
20286W        W24686  17.894   3.595   2.608 -0.4175 -0.0741  0.1606
20287W        W24687  15.475   1.288   8.843 -0.2741 -0.0102  0.0400
20288W        W24688  23.782   7.469  16.966 -0.2512  0.3414  0.1368
20289W        W24689  20.535   3.413  15.226 -0.3000  0.1704  0.1452
20290W        W24690  10.957   6.767  10.467  0.1790 -0.1418  0.0285
20291W        W24691   2.568   5.438  12.184 -0.4251 -0.1546  0.0088
20292W        W24692  22.885   0.961   0.259 -0.0834  0.0988 -0.4338
20293W        W24693  23.840   3.453  18.107  0.1942  0.1153 -0.0022
20294W        W24694  14.469   1.933  29.798 -0.0985 -0.0598  0.2586
20295W        W24695  25.007   5.729  20.799  0.0492  0.2928 -0.2870
20296W        W24696  20.904   5.833  19.021  0.3453  0.1510  0.0722
20297W        W24697   4.705   7.553  32.662  0.0529 -0.1527  0.1598
20298W        W24698   9.579   5.543  18.582 -0.0431  0.0277 -0.2559
20299W        W24699  13.128   6.025   8.183 -0.2508 -0.0526 -0.1771
20300W        W24700  22.087   4.118   1.959 -0.0085  0.3728  0.0300
20301W        W24701  15.300   6.159  28.527  0.5202  0.2926 -0.0477
20302W        W24702   6.127   2.870   3.931 -0.2243  0.1654  0.2106
20303W        W24703   3.719   4.581   3.761 -0.0602  0.0103  0.0141
20304W        W24704   1.085   6.307  26.352 -0.1916 -0.1205 -0.2191
20305W        W24705  17.091   6.910  11.070  0.0562 -0.3354 -0.0102
20306W        W24706  22.839   3.223   0.230 -0.0115 -0.0663 -0.0798
20307W        W24707   0.762   2.937  17.799  0.0772 -0.1484  0.0664
20308W        W24708   4.581   4.485  31.589 -0.0891  0.1152  0.1633
20309W        W24709  22.317   2.323   0.555 -0.0690 -0.2416  0.0746
20310W        W24710   1.908   5.717  12.928  0.0903 -0.2267  0.0418
20311W        W24711  22.944   7.281   6.963 -0.0445  0.1840  0.0318
20312W        W24712  24.203   0.477  17.551  0.1291  0.0554  0.1681
20313W        W24713   2.583   6.022  22.390 -0.0544  0.0264  0.2036
20314W        W24714  12.812   5.675   8.823  0.0553  0.0339  0.1993
20315W        W24715  19.692   4.432   0.286  0.1642  0.0187 -0.1783
20316W        W24716  24.873   4.257   4.276 -0.0889 -0.0550  0.1320
20317W        W24717  12.967   3.530  11.769  0.0591 -0.0238 -0.1328
20318W        W24718  14.099   4.130  23.655  0.1226 -0.0229 -0.2236
20319W        W24719  17.666   0.167  24.297  0.3196  0.2350 -0.0293
20320W        W24720  23.797   5.217  18.748  0.0731  0.0578 -0.1885
20321W        W24721  15.252   7.560  21.978  0.0402  0.0417  0.0773
20322W        W24722   8.121   7.063  16.794 -0.0618  0.0759 -0.1324
20323W        W24723  15.291   1.452  29.626  0.0015 -0.0756 -0.1159
20324W        W24724  15.181   4.558  24.997  0.4258 -0.0292 -0.0273
20325W        W24725   5.877   6.936  29.978 -0.2586 -0.3592 -0.0967
20326W        W24726   9.650   0.624   5.297 -0.0258  0.1272 -0.0821
20327W        W24727  11.728   2.069  30.139  0.1098 -0.0595 -0.0231
20328W        W24728  10.847   7.646  14.969 -0.2580 -0.1097  0.0364
20329W        W24729   6.222   2.787  14.461  0.1209 -0.1812  0.0983
20330W        W24730  18.664   7.466  21.877 -0.0262 -0.0393 -0.0395
20331W        W24731   6.338   1.379  13.899 -0.1034 -0.0023 -0.0664
20332W        W24732  12.942   6.397   4.422  0.0843  0.1319 -0.4135
20333W        W24733  20.915   5.075  27.769 -0.0686 -0.1623  0.2196
20334W        W24734  21.627   0.344  23.270 -0.3613  0.1694 -0.3765
20335W        W24735  22.015   4.324  29.543  0.1801 -0.0250 -0.5428
20336W        W24736  23.028   2.489  18.168 -0.0280 -0.0360 -0.1279
20337W        W24737  21.251   2.678  15.018 -0.1392  0.0592 -0.2151
20338W        W24738  20.479   2.129  19.588 -0.0933 -0.1733  0.0114
20339W        W24739   5.876   6.496  15.032 -0.2430 -0.1157  0.0187
20340W        W24740   2.778   2.718   9.747  0.1618  0.3163  0.1330
20341W        W24741   0.307   4.325   7.903  0.1788  0.1671 -0.1351
20342W        W24742  19.938   1.469  19.743  0.0820  0.1786  0.2198
20343W        W24743   2.903   2.309  21.794  0.1994 -0.0301 -0.1189
20344W        W24744  12.169   6.712  26.750  0.3736  0.0701 -0.1211
20345W        W24745  11.788   0.421  11.212  0.2450  0.0529  0.3519
20346W        W24746   5.261   3.531  12.052 -0.0566 -0.0078 -0.1263
20347W        W24747  20.998   5.500  19.922 -0.2539  0.0495 -0.0969
20348W        W24748   9.548   5.448   3.945  0.2705 -0.0855  0.2577
20349W        W24749   5.862   4.162  14.521 -0.0330  0.0614 -0.0544
20350W        W24750  21.071   5.366  16.045  0.1129  0.0990 -0.0811
20351W        W24751  15.247   1.221  28.116  0.1831 -0.1886 -0.1147
20352W        W24752  11.456   3.947  24.099  0.1269  0.1107  0.0515
20353W        W24753   5.781   1.882  30.538 -0.0087 -0.0460  0.1310
20354W        W24754   5.461   1.406   3.657 -0.0685 -0.1394 -0.0064
20355W        W24755  15.688   4.322   9.160 -0.2274 -0.1697  0.0200
20356W        W24756   8.019   1.205  15.235  0.0285  0.0438  0.0681
20357W        W24757  19.893   1.184  31.837 -0.2908  0.0798 -0.1130
20358W        W24758   6.902   7.266  23.234 -0.3159  0.0479  0.0225
20359W        W24759  24.165   4.975  18.462 -0.1281 -0.0166 -0.0293
20360W        W24760  18.592   3.511   0.202  0.0865 -0.1037  0.2276
20361W        W24761   6.565   3.629  12.476  0.1943 -0.0985  0.1960
20362W        W24762   8.586   3.355  32.558  0.2256  0.2052 -0.1431
20363W        W24763  20.345   1.002   5.499  0.1486 -0.0854 -0.0307
20364W        W24764  20.732   7.811  15.787  0.0428 -0.1780 -0.0593
20365W        W24765   1.270   3.531  27.078  0.0412 -0.1001 -0.2320
20366W        W24766  22.200   4.698  32.522 -0.1134 -0.0151 -0.3138
20367W        W24767  24.415   2.982  30.402 -0.1645 -0.1315 -0.0315
20368W        W24768  24.271   5.887  10.870  0.2254 -0.0484  0.1135
20369W        W24769   9.703   6.757  31.976 -0.0530 -0.3554  0.1943
20370W        W24770  22.202   0.261  27.113  0.2809  0.0971 -0.1001
20371W        W24771   0.645   1.401  29.455  0.0678  0.2526 -0.0020
20372W        W24772  18.857   3.981  17.264 -0.1810  0.1527  0.1628
20373W        W24773  21.588   6.751  14.957  0.2577 -0.1121 -0.0416
20374W        W24774  12.337   0.613  32.003 -0.1593 -0.2693  0.1547
20375W        W24775   4.002   3.162  31.032 -0.0346 -0.2830 -0.0899
20376W        W24776  19.415   4.234  28.713  0.1619  0.1357 -0.0567
20377W        W24777  21.789   6.355  22.610  0.2289  0.2180  0.1758
20378W        W24778  24.013   5.038   2.628 -0.2010 -0.1399 -0.0373
20379W        W24779  20.085   3.661  27.285  0.1613 -0.0156  0.0744
20380W        W24780  17.867   5.156   4.674 -0.4422  0.1133  0.1872
20381W        W24781  16.502   4.217  23.830 -0.0341  0.0434 -0.2829
20382W        W24782  10.703   5.785  15.182 -0.2049 -0.0225  0.0411
20383W        W24783  13.916   3.484  29.808 -0.3218 -0.4191  0.2679
20384W        W24784  22.305   2.721   6.196  0.1364  0.0937 -0.0040
20385W        W24785  13.458   4.511  11.227 -0.0809  0.1680 -0.1762
20386W        W24786   2.222   6.601  21.142  0.2682 -0.0103 -0.0272
20387W        W24787  16.364   0.468   1.024 -0.2186 -0.1212 -0.0299
20388W        W24788  15.305   4.795  18.492 -0.0603 -0.0275  0.0286
20389W        W24789  18.886   4.985   1.019  0.0498  0.0083  0.2326
20390W        W24790   3.334   1.209   4.971 -0.2712 -0.1386  0.0560
20391W        W24791   4.275   3.645   1.642  0.1560  0.2251 -0.0406
20392W        W24792  12.185   7.027  29.605  0.1631 -0.0082  0.0369
20393W        W24793  11.844   1.445  14.328 -0.1201 -0.3677 -0.0062
20394W        W24794  16.537   0.511  17.205  0.3619 -0.0265  0.3929
20395W        W24795  15.569   4.248   1.801  0.0896 -0.2442  0.0732
20396W        W24796   2.106   6.147  28.664  0.2126  0.1115 -0.3421
20397W        W24797  23.849   6.462  30.347 -0.1854 -0.2605 -0.1754
20398W        W24798   1.110   2.128   1.251  0.0996  0.1877  0.3166
20399W        W24799  20.510   1.148   0.784 -0.0030 -0.1749 -0.0145
20400W        W24800   3.411   4.011   5.659  0.2539 -0.0373 -0.0643
20401W        W24801  24.222   0.131  27.737  0.2009 -0.0339 -0.4227
20402W        W24802  21.408   3.779  26.831  0.1371  0.4325 -0.0364
20403W        W24803   5.268   6.856  12.372  0.1352 -0.0121  0.0696
20404W        W24804   7.986   1.031  10.074 -0.1994  0.2764 -0.1179
20405W        W24805  19.592   7.482   2.092 -0.0879  0.0757 -0.0901
20406W        W24806  24.003   5.832   0.607 -0.0766 -0.2924  0.0338
20407W        W24807  22.733   4.509  23.616 -0.0302  0.0682 -0.1733
20408W        W24808   5.479   2.997  26.570 -0.1537 -0.1158 -0.4664
20409W        W24809  21.459   2.333  15.337  0.0262  0.0829  0.0267
20410W        W24810   4.378   4.643   3.071 -0.0427 -0.2600 -0.0619
20411W        W24811   7.368   0.934  12.283  0.5159  0.0130 -0.0218
20412W        W24812   0.617   7.774  22.319  0.1572 -0.1673 -0.1432
20413W        W24813  23.875   7.234   2.362  0.0863  0.1459 -0.1474
20414W        W24814   8.335   0.398  26.633 -0.0055  0.2177 -0.0948
20415W        W24815   1.038   6.928  28.082  0.1363  0.2137 -0.0732
20416W        W24816  24.325   3.419   4.670 -0.3079  0.2534 -0.1077
20417W        W24817   6.201   4.029  31.072 -0.0960  0.0983 -0.0489
20418W        W24818   8.663   5.360  30.050  0.3813 -0.0896  0.1645
20419W        W24819  13.439   2.964   3.312  0.0542  0.2717 -0.1513
20420W        W24820   3.498   0.276  22.634 -0.0285  0.0490 -0.0921
20421W        W24821  12.732   2.407  29.563  0.2913 -0.3000  0.0439
20422W        W24822  16.737   6.435  32.228 -0.0312  0.2492  0.0786
20423W        W24823   6.392   7.077  25.681  0.3428  0.4291  0.3476
20424W        W24824  18.339   6.200  16.184 -0.0555  0.3046  0.3847
20425W        W24825  20.056   2.166   7.598  0.0931  0.0548 -0.0298
20426W        W24826  24.292   3.328  26.008  0.0636  0.2082  0.0711
20427W        W24827  18.720   7.614  26.851 -0.0096 -0.1089  0.1281
20428W        W24828  16.426   7.721   7.244 -0.0107 -0.1040 -0.0113
20429W        W24829  21.732   3.316  25.551  0.4122  0.2726 -0.2583
20430W        W24830  23.781   7.630  18.559 -0.2444 -0.2522 -0.3316
20431W        W24831   4.356   7.793  32.026  0.1465 -0.1378 -0.1011
20432W        W24832   7.472   5.960  13.786 -0.1196  0.3002  0.0739
20433W        W24833  23.378   4.740   4.456  0.0707  0.2336 -0.3300
20434W        W24834   5.982   0.442  10.668  0.2079 -0.0257 -0.1879
20435W        W24835   7.698   0.371  15.784 -0.0641 -0.2419  0.2247
20436W        W24836   2.113   3.512  22.694 -0.1051 -0.2429 -0.0451
20437W        W24837   1.037   3.830  10.991  0.2105  0.2898  0.1964
20438W        W24838  10.096   6.346  16.756  0.2708  0.1192  0.1502
20439W        W24839  21.400   4.148  23.388 -0.0327 -0.1346 -0.2084
20440W        W24840   7.726   0.577  14.375 -0.4292 -0.1147 -0.3305
20441W        W24841   5.332   0.443   5.932  0.0545  0.0719  0.0282
20442W        W24842   0.825   4.155  28.091  0.0368  0.2644  0.2588
20443W        W24843  20.120   3.543  25.420 -0.2781 -0.1561  0.1153
20444W        W24844   6.448   6.805   5.362  0.0044 -0.1157  0.0130
20445W        W24845   4.597   1.069   7.088 -0.0080 -0.0781  0.1705
20446W        W24846  13.762   2.533  12.548 -0.0440 -0.1753 -0.0133
20447W        W24847   9.865   4.882  18.458  0.3409  0.0380 -0.0828
20448W        W24848   9.265   5.138  29.255  0.1631  0.1010  0.0605
20449W        W24849  11.921   4.362  10.598  0.3108 -0.1463 -0.1429
20450W        W24850   6.474   7.481  23.070 -0.0443 -0.2468 -0.0572
20451W        W24851  13.827   1.514  11.450 -0.1349  0.1611 -0.0146
20452W        W24852   4.521   3.551   4.071  0.1092 -0.2471 -0.1147
20453W        W24853   7.361   5.050  13.273  0.1157  0.1288  0.0829
20454W        W24854   6.334   3.122  10.058  0.0066 -0.1902  0.2094
20455W        W24855   5.865   5.283   7.814  0.2552  0.1262  0.1705
20456W        W24856  17.467   7.707  20.735  0.3344  0.1039  0.1024
20457W        W24857   0.666   4.544  20.760  0.0280 -0.2214  0.2618
20458W        W24858   2.373   2.370  10.585 -0.1593 -0.1148  0.1316
20459W        W24859   2.684   4.008  21.507 -0.0648  0.1416 -0.2600
20460W        W24860   7.775   6.435   2.713  0.0934 -0.0509 -0.0216
20461W        W24861  11.676   4.484   0.781  0.1429  0.0072 -0.2081
20462W        W24862   3.313   6.751  24.741 -0.0321  0.0110 -0.0273
20463W        W24863  10.965   6.518  31.412 -0.5138  0.0973 -0.2489
20464W        W24864  24.270   7.538  15.453  0.1385  0.0602  0.0894
20465W        W24865  18.303   1.895  22.334  0.2300  0.1186  0.1972
20466W        W24866   6.237   5.387  15.087  0.0272  0.3391  0.3218
20467W        W24867  15.721   6.970  12.103  0.1392 -0.1979 -0.1376
20468W        W24868   3.046   5.527   1.698 -0.2970 -0.3815  0.0133
20469W        W24869   3.809   1.331   7.192  0.2439  0.0028  0.1323
20470W        W24870  22.164   2.885   5.720  0.0657  0.0412  0.3029
20471W        W24871  21.457   5.102  27.116 -0.3194  0.0223  0.0930
20472W        W24872   5.225   4.662  23.905 -0.3783 -0.0772 -0.2416
20473W        W24873   9.679   7.712  29.330  0.2346  0.0611  0.0630
20474W        W24874   4.785   5.688   0.768 -0.0335  0.2959  0.0272
20475W        W24875   6.255   0.704   9.162  0.2377  0.1593 -0.0452
20476W        W24876  24.480   3.831  19.343  0.0545  0.0157  0.1906
20477W        W24877  16.919   1.786   3.635 -0.1896 -0.3545 -0.0286
20478W        W24878  20.869   6.525  24.077  0.0794  0.1037 -0.0790
20479W        W24879   1.034   0.868   6.542  0.0245  0.1077 -0.0719
20480W        W24880  24.593   6.467  20.987  0.3877  0.1939 -0.2399
20481W        W24881   6.251   1.888  26.671  0.0735 -0.0276  0.1359
20482W        W24882  22.907   7.413   9.284 -0.0032 -0.0626 -0.1344
20483W        W24883  22.260   3.323  23.553  0.0274  0.0576  0.1718
20484W        W24884  12.876   6.323  25.716  0.0271  0.0454  0.3722
20485W        W24885  22.288   6.549   5.882  0.2228  0.2469  0.3300
20486W        W24886  22.116   3.718  32.560  0.0594 -0.1477  0.0570
20487W        W24887  22.274   2.181   4.062 -0.2027 -0.0200  0.1000
20488W        W24888   6.132   3.939  13.682 -0.1438  0.2233  0.3593
20489W        W24889   7.630   0.576   4.821 -0.3714 -0.0060  0.0229
20490W        W24890   4.753   1.634  30.298 -0.0955 -0.1356 -0.1996
20491W        W24891  22.982   6.723  20.445  0.2857 -0.2742 -0.1594
20492W        W24892   8.054   2.051  26.198 -0.4285 -0.0308  0.1066
20493W        W24893  20.335   1.612  21.287  0.0655 -0.0075 -0.2812
20494W        W24894  12.375   6.591   7.067  0.0494  0.0754  0.1026
20495W        W24895  18.840   5.751   9.697 -0.0072 -0.2263 -0.2021
20496W        W24896   4.917   0.645   3.458 -0.1105  0.1942  0.1202
20497W        W24897  10.635   6.939  24.369 -0.0407  0.3413 -0.1823
20498W        W24898  23.939   2.058  28.336  0.1583  0.0241 -0.2356
20499W        W24899   0.434   2.448  20.398  0.1935 -0.1692 -0.2762
20500W        W24900   0.906   2.438  25.662 -0.0052 -0.1369  0.1295
20501W        W24901   6.648   5.407  12.858 -0.2678 -0.3437 -0.0943
20502W        W24902  24.106   6.840  23.870  0.0026 -0.4428 -0.2418
20503W        W24903  22.227   2.187  24.127 -0.2613  0.0592  0.1952
20504W        W24904  11.481   7.718  25.344  0.1301  0.2265  0.1292
20505W        W24905  13.681   4.849  12.099 -0.2214  0.0050 -0.1627
20506W        W24906  19.015   4.413   2.243 -0.2308 -0.0762  0.0753
20507W        W24907  22.251   3.899  16.226  0.3514  0.2438  0.0851
20508W        W24908  24.549   1.771   6.743 -0.3991  0.0883 -0.0254
20509W        W24909  16.661   3.709  18.097  0.2482  0.1714  0.2145
20510W        W24910   2.064   0.675  21.319  0.0349  0.1587 -0.0239
20511W        W24911  24.435   4.192   9.415 -0.2753  0.1570  0.1132
20512W        W24912  11.807   5.839  22.727 -0.0273  0.0368  0.1577
20513W        W24913   3.871   6.820   8.532 -0.0639  0.0996 -0.2077
20514W        W24914   3.908   1.317  26.986 -0.0492 -0.1548 -0.0445
20515W        W24915  11.416   5.747   1.015  0.2172  0.1042 -0.4439
20516W        W24916  11.672   3.893   1.618 -0.1590  0.1063  0.1968
20517W        W24917   4.775   4.259  13.639 -0.0552  0.3189 -0.3303
20518W        W24918  20.258   6.014   1.370  0.0037  0.1835 -0.0077
20519W        W24919  22.143   6.455  24.751 -0.2907  0.0242  0.0691
20520W        W24920  11.056   2.733   8.458  0.2439  0.2130 -0.0848
20521W        W24921   9.164   4.578   9.183 -0.3019 -0.0147 -0.0440
20522W        W24922  13.120   7.117  30.860  0.0070 -0.3568  0.1215
20523W        W24923  14.822   3.136  29.878  0.1658  0.1679  0.0604
20524W        W24924   5.604   0.438   7.649 -0.1658 -0.2159 -0.0137
20525W        W24925   5.423   5.538   2.246  0.0401 -0.0213 -0.2499
20526W        W24926  24.408   3.655  15.994  0.0381 -0.1443 -0.2090
20527W        W24927  14.939   5.587   0.075 -0.0666  0.1977  0.0520
20528W        W24928  12.903   6.937  27.340  0.1529 -0.2883 -0.0711
20529W        W24929  13.241   5.958  26.637  0.1800 -0.3526  0.1881
20530W        W24930   4.822   4.818  23.646 -0.0099  0.0779 -0.1551
20531W        W24931  24.845   7.374   5.458 -0.3138 -0.1610  0.1909
20532W        W24932  13.005   6.863  22.198 -0.0267 -0.0117  0.0009
20533W        W24933  19.075   3.600  20.320  0.0099  0.0204 -0.0313
20534W        W24934   0.079   5.029  25.903 -0.1149 -0.0202  0.0413
20535W        W24935   2.646   3.309  24.757 -0.0047  0.3181  0.0395
20536W        W24936   7.687   2.405  12.290 -0.2245  0.0895  0.0297
20537W        W24937   8.737   2.568   7.473  0.0162  0.0435  0.0592
20538W        W24938   7.048   5.446  17.989  0.0957  0.1077  0.0536
20539W        W24939  14.477   6.738  30.758 -0.4258 -0.0308  0.1142
20540W        W24940  22.185   4.747  21.377  0.0707  0.1225  0.0473
20541W        W24941  21.201   4.309  15.174  0.1227 -0.0262  0.1536
20542W        W24942  22.590   6.490  30.168 -0.3568 -0.2255  0.1623
20543W        W24943  24.968   5.915  20.328 -0.0178 -0.0158  0.1385
20544W        W24944  14.826   7.760  24.841 -0.2224  0.1479 -0.1786
20545W        W24945   2.378   6.767   6.370 -0.0745 -0.0799 -0.0959
20546W        W24946   7.508   0.535  16.234 -0.1394  0.3192 -0.4541
20547W        W24947  23.338   0.257   2.627  0.4248 -0.1188  0.1313
20548W        W24948   6.443   4.370  24.189 -0.3283  0.2335 -0.1615
20549W        W24949  23.155   4.361   1.285 -0.1947  0.3245 -0.1928
20550W        W24950  24.246   0.027  17.233 -0.0224 -0.0673 -0.2910
20551W        W24951  13.828   7.196   0.289 -0.1809 -0.1912  0.0942
20552W        W24952  23.876   1.072  17.445  0.0356  0.1469 -0.3760
20553W        W24953   8.326   1.913   5.745 -0.0463  0.2216  0.0866
20554W        W24954  21.535   5.548  19.775  0.0820 -0.0207 -0.2128
20555W        W24955  14.908   1.864   4.410 -0.2556 -0.3109  0.0068
20556W        W24956  18.315   4.986  20.994 -0.1691  0.0197 -0.0589
20557W        W24957  10.355   3.163  28.168  0.0285  0.4856  0.3991
20558W        W24958   2.417   1.773  29.340  0.2151  0.1522 -0.2270
20559W        W24959   9.777   0.212   5.136  0.1159  0.3033  0.1864
20560W        W24960   9.454   4.622   3.380  0.1135 -0.1492 -0.1354
20561W        W24961  14.320   4.107  24.070  0.0612  0.1220 -0.2267
20562W        W24962   6.821   3.115  26.638 -0.0078  0.1526  0.4763
20563W        W24963   5.482   6.941   2.728  0.1598  0.0358 -0.0558
20564W        W24964  12.206   3.514  22.954 -0.1625 -0.0355 -0.2070
20565W        W24965   3.885   3.566   8.468 -0.5325  0.1575  0.2348
20566W        W24966  15.624   0.638  22.484 -0.2545  0.2780 -0.0156
20567W        W24967  20.236   6.869   9.828  0.1332 -0.0830  0.1330
20568W        W24968  14.683   4.388  29.132 -0.1405  0.0646 -0.0674
20569W        W24969   2.304   5.309   0.238 -0.1937  0.1279 -0.0005
20570W        W24970  15.867   3.467  19.239  0.0586 -0.0076  0.1334
20571W        W24971   8.093   6.556  32.530 -0.4222 -0.1851 -0.1686
20572W        W24972  16.696   5.823  31.196 -0.0056 -0.3048  0.1068
20573W        W24973   8.392   5.073  26.340 -0.0837  0.1553  0.0156
20574W        W24974  23.340   4.076   8.137 -0.0244 -0.0202 -0.1782
20575W        W24975   1.574   1.993   5.396 -0.0830  0.3850  0.0644
20576W        W24976  19.382   5.677   1.722 -0.1816 -0.0986  0.0375
20577W        W24977   4.021   2.538  22.365  0.0607 -0.1168 -0.0988
20578W        W24978  23.508   1.791   4.151  0.0055 -0.4543  0.0942
20579W        W24979  10.207   1.254   2.514 -0.0159  0.0087 -0.2278
20580W        W24980   7.688   3.748  28.772 -0.1497  0.4639  0.1964
20581W        W24981  12.427   0.886  27.896  0.0527 -0.1846 -0.0521
20582W        W24982   8.107   1.631   2.544 -0.1039  0.0720  0.0790
20583W        W24983   6.503   6.731  16.352  0.0876  0.0731  0.2386
20584W        W24984  13.031   2.688  12.119 -0.0562  0.1188 -0.3041
20585W        W24985   7.954   1.137  17.418 -0.1674 -0.4550  0.0510
20586W        W24986   7.409   6.422  14.968 -0.0288 -0.1549 -0.1692
20587W        W24987   2.052   0.052   6.319  0.1263 -0.1964 -0.0522
20588W        W24988   3.356   0.506   4.015 -0.3089 -0.1186  0.1472
20589W        W24989  22.262   0.482   6.812 -0.2429  0.2538  0.0103
20590W        W24990  20.495   1.745   8.551 -0.1492  0.1302 -0.0482
20591W        W24991  24.633   2.316  31.098  0.2324 -0.0836  0.2092
20592W        W24992  11.551   6.748  31.142 -0.1613 -0.2598  0.1335
20593W        W24993   7.024   2.249   1.602 -0.3032  0.0295  0.0358
20594W        W24994  24.652   4.822  32.185 -0.1656 -0.0314  0.0055
20595W        W24995  22.418   7.609  22.566 -0.2078  0.0156 -0.0250
20596W        W24996  19.353   2.939  15.676 -0.0168 -0.1542 -0.1227
20597W        W24997  16.716   4.700   5.481  0.0759  0.1849  0.0832
20598W        W24998  16.756   6.559  11.826 -0.0507  0.0329  0.2713
20599W        W24999   9.866   5.821  32.620 -0.1667 -0.1809 -0.0952
20600W        W25000  22.386   6.169  31.757 -0.0537  0.0756  0.1876
20601W        W25001   0.028   2.287  15.734 -0.3687 -0.2450 -0.0691
20602W        W25002  24.541   6.180  21.507 -0.1470  0.1947  0.1346
20603W        W25003  23.073   0.035  30.921 -0.1778 -0.3138  0.2887
20604W        W25004   4.233   2.867   0.588 -0.1165 -0.1854 -0.0734
20605W        W25005   7.086   6.616   6.181  0.0331 -0.2133  0.2055
20606W        W25006  20.878   4.954   4.292  0.0791 -0.2380  0.2734
20607W        W25007  15.235   2.302  28.232 -0.0832 -0.0523  0.2462
20608W        W25008  15.507   3.935  32.697  0.0172  0.6349  0.0554
20609W        W25009  14.898   6.281   7.482 -0.3120 -0.0367  0.1975
20610W        W25010  12.076   6.369  11.979  0.4865  0.1015 -0.3101
20611W        W25011  12.250   5.695  22.505  0.1981  0.0793  0.0469
20612W        W25012  12.581   5.106  32.307 -0.0504  0.1383  0.2389
20613W        W25013  10.059   6.116  13.573 -0.1700  0.2777  0.1434
20614W        W25014   0.669   1.191   6.702  0.0952  0.0484  0.0151
20615W        W25015  10.204   0.596  26.313 -0.0785 -0.1153 -0.1728
20616W        W25016  17.564   2.768   1.037  0.0000  0.2534  0.1027
20617W        W25017  10.180   6.163   7.600 -0.1045  0.0145 -0.3034
20618W        W25018  12.086   3.173   2.754 -0.0183 -0.2237  0.3041
20619W        W25019   8.519   5.831  31.939  0.0408  0.0594 -0.2121
20620W        W25020  13.028   7.212   6.036  0.0317 -0.3447  0.0336
20621W        W25021   8.146   3.741  28.396  0.2812 -0.3717  0.0446
20622W        W25022  20.480   4.301  22.683  0.3071  0.0368  0.1285
20623W        W25023   8.949   7.106   4.044 -0.0152  0.1228 -0.2639
20624W        W25024  14.255   6.513   1.451  0.1317 -0.0846 -0.1800
20625W        W25025  20.069   7.001  19.606  0.1997 -0.0813  0.2196
20626W        W25026  24.660   1.272   8.836  0.1375  0.0602 -0.0734
20627W        W25027  21.731   7.205  22.510  0.0871  0.0573  0.0774
20628W        W25028   0.221   6.196  28.938  0.1299  0.0605  0.0282
20629W        W25029  15.858   7.015  17.903 -0.0791  0.2817 -0.3056
20630W        W25030  23.975   2.587  17.693 -0.1139  0.0766 -0.1937
20631W        W25031  11.136   7.274  17.631  0.1140 -0.3456 -0.1284
20632W        W25032  10.522   6.386  25.470 -0.2079  0.0649 -0.3188
20633W        W25033   7.214   7.413  13.632 -0.0505  0.1562 -0.0023
20634W        W25034  11.687   7.632   6.404 -0.3345 -0.4927 -0.2714
20635W        W25035   0.053   0.717  17.603  0.0890 -0.0571 -0.1875
20636W        W25036  12.773   0.404  16.444  0.0933 -0.1983  0.1601
20637W        W25037   9.657   1.167  27.442  0.1151  0.1367 -0.0613
20638W        W25038  14.254   3.626  28.207 -0.1539 -0.1731 -0.0843
20639W        W25039  23.705   5.803  24.948 -0.1004 -0.2653  0.1550
20640W        W25040  18.176   2.467   4.959  0.2614  0.0960 -0.0438
20641W        W25041  19.124   1.047  23.363  0.1874 -0.0627  0.0792
20642W        W25042   6.676   3.961  14.425  0.0046 -0.0594 -0.2813
20643W        W25043  16.972   6.614   4.414 -0.1013  0.1795  0.0276
20644W        W25044  19.055   7.137  23.732  0.3313  0.0066 -0.1854
20645W        W25045   2.876   4.629   5.529  0.4194  0.0523  0.1153
20646W        W25046   3.222   7.389  30.054  0.0172 -0.2063  0.1150
20647W        W25047   7.469   0.909   0.993 -0.0767  0.2723 -0.1506
20648W        W25048  21.122   0.766  20.741 -0.2151 -0.0549  0.1008
20649W        W25049  11.736   5.922   4.888 -0.0924 -0.0847 -0.0661
20650W        W25050   6.489   0.164  16.802 -0.1159  0.1217 -0.0656
20651W        W25051  24.274   7.823  24.118  0.2659 -0.3408 -0.1400
20652W        W25052  10.460   5.945  18.932  0.7349 -0.0403 -0.0351
20653W        W25053  13.239   0.326   2.721  0.0261 -0.1014  0.2041
20654W        W25054   8.516   7.326  30.989  0.2139  0.3099  0.4743
20655W        W25055   5.568   7.272  15.679  0.0379  0.0182  0.3126
20656W        W25056  11.912   4.623  16.152  0.1172 -0.1341  0.0152
20657W        W25057   1.353   0.245   5.454 -0.2498 -0.2636 -0.1972
20658W        W25058  22.642   0.564   7.677  0.2232  0.0393  0.2602
20659W        W25059   2.015   3.492  10.993 -0.0909  0.1408 -0.0134
20660W        W25060  24.931   5.760   8.841 -0.2634 -0.1535  0.1798
20661W        W25061  16.161   1.294  20.099  0.0075  0.2915  0.0398
20662W        W25062  24.994   4.557  28.132 -0.1894 -0.0320  0.2879
20663W        W25063   4.658   5.116  10.349  0.0333 -0.1701 -0.1150
20664W        W25064   0.220   1.175  27.457 -0.1140  0.1628 -0.2081
20665W        W25065   8.782   5.250  10.068  0.1521 -0.1146 -0.1444
20666W        W25066  18.831   1.770  15.965 -0.1420  0.1297 -0.1505
20667W        W25067  24.795   4.825   1.672  0.2968 -0.0157 -0.0295
20668W        W25068  20.635   6.931   3.544 -0.1285  0.2503  0.0237
20669W        W25069  14.280   7.653   3.286  0.1560 -0.0911  0.1102
20670W        W25070  18.703   7.503  23.237 -0.3040 -0.3610 -0.1574
20671W        W25071  10.877   0.460   1.518 -0.0533  0.2121  0.3455
20672W        W25072   7.571   7.294  28.783 -0.0539  0.1902 -0.2761
20673W        W25073  20.916   6.327  31.802 -0.3222  0.0712 -0.1963
20674W        W25074   7.586   0.699   9.223  0.2041 -0.0676 -0.0540
20675W        W25075  18.160   1.606  19.877  0.1865 -0.0485 -0.4522
20676W        W25076  10.495   2.746   4.931  0.0992 -0.0059  0.1083
20677W        W25077   0.206   2.137  22.886 -0.1596 -0.1035 -0.0541
20678W        W25078  21.010   3.519   2.000 -0.0940 -0.0989  0.0145
20679W        W25079   5.129   6.740  25.298  0.0204 -0.1006 -0.1778
20680W        W25080  10.259   4.036  10.123 -0.2185  0.1384  0.3699
20681W        W25081  18.094   4.135  18.954 -0.1070 -0.0062  0.1880
20682W        W25082   1.439   1.816   6.202  0.3631 -0.0134 -0.2913
20683W        W25083   0.926   4.956   2.515 -0.2157 -0.1350  0.4052
20684W        W25084  14.038   2.679  20.981 -0.1909 -0.4276 -0.1256
20685W        W25085   2.926   7.459  27.077 -0.2123 -0.0977 -0.0596
20686W        W25086  10.364   2.219  12.466 -0.3811  0.3354 -0.0610
20687W        W25087  18.101   7.661   2.402 -0.1005 -0.1516  0.1352
20688W        W25088  24.068   5.390   8.424  0.0678  0.2294  0.1439
20689W        W25089  23.894   1.969  25.884 -0.0361 -0.2390 -0.1584
20690W        W25090  17.780   3.366  27.598 -0.1705 -0.0269  0.0305
20691W        W25091  12.622   3.351  23.703  0.3581 -0.1044 -0.2269
20692W        W25092  22.046   1.321  24.807 -0.0065  0.0102  0.0290
20693W        W25093  22.106   1.998   7.257  0.3371 -0.1980 -0.0515
20694W        W25094  10.738   5.268  30.062 -0.3117 -0.2824  0.0630
20695W        W25095   6.106   0.190  24.301  0.1311  0.0287 -0.1413
20696W        W25096   6.011   4.587   0.345  0.0344  0.0276  0.0813
20697W        W25097  11.373   5.580   8.034  0.1176 -0.0956 -0.1613
20698W        W25098   9.088   7.755  24.450 -0.0615 -0.2961  0.0249
20699W        W25099   7.819   5.603   7.202 -0.3674 -0.2373 -0.0002
20700W        W25100   0.980   2.007  18.198 -0.0551 -0.1938 -0.0881
20701W        W25101  22.098   1.634  32.476 -0.1347  0.0206  0.0954
20702W        W25102  17.541   5.715  31.420  0.1318  0.0227  0.1525
20703W        W25103   9.998   6.322   9.300  0.0220  0.3827  0.1216
20704W        W25104  20.860   5.505  18.641 -0.0507 -0.0561 -0.0945
20705W        W25105   2.668   1.258   2.252  0.2122 -0.0904  0.0488
20706W        W25106  23.053   3.115   3.479  0.2813 -0.2404 -0.1083
20707W        W25107  17.801   7.655   9.627  0.1696  0.3249 -0.1173
20708W        W25108  16.054   4.042   1.584 -0.0603  0.1486 -0.2016
20709W        W25109  19.659   3.561  17.577 -0.0938 -0.5182 -0.2354
20710W        W25110  21.579   5.633   6.724 -0.1785 -0.1406 -0.3286
20711W        W25111  13.795   7.552   3.336  0.0744  0.0006  0.1457
20712W        W25112   2.427   7.537  26.677  0.2558  0.1100  0.1507
20713W        W25113  15.471   1.698  21.571 -0.0649 -0.0786 -0.1946
20714W        W25114   8.682   4.829  17.590  0.0020  0.0594 -0.0033
20715W        W25115   4.995   7.218  11.714 -0.1544 -0.1989 -0.0058
20716W        W25116  21.603   4.098   1.888 -0.1367  0.2244 -0.2113
20717W        W25117   6.029   0.613  12.771  0.0863  0.2158 -0.2774
20718W        W25118  10.542   2.633   3.871  0.2095  0.0158 -0.0843
20719W        W25119  22.193   4.590   1.778 -0.1212 -0.0733  0.0315
20720W        W25120   8.316   5.270  23.999  0.2171  0.1924 -0.1151
20721W        W25121  13.504   5.758  27.817  0.0906 -0.2501  0.0090
20722W        W25122   3.617   7.644  30.763  0.0876  0.1771 -0.0569
20723W        W25123  11.101   1.606  10.415  0.1322 -0.0884  0.0717
20724W        W25124  14.242   0.543   4.646  0.0429 -0.0514  0.0939
20725W        W25125   1.912   6.391   2.971 -0.1935 -0.1500 -0.3534
20726W        W25126  21.787   1.805   6.896 -0.4380 -0.4627 -0.4028
20727W        W25127  17.682   4.362  24.420  0.1261  0.1053  0.2242
20728W        W25128  10.472   4.835  28.854 -0.2451  0.1797  0.3030
20729W        W25129  16.825   6.218  30.667 -0.0865 -0.1471 -0.0318
20730W        W25130   7.302   5.619  25.756 -0.1338  0.0923 -0.2839
20731W        W25131   3.734   4.573   7.050 -0.2220  0.0068  0.2547
20732W        W25132  13.610   3.392   3.437 -0.2609 -0.1043 -0.0481
20733W        W25133  13.691   1.152  28.644  0.0865 -0.0904  0.2315
20734W        W25134  16.301   2.973  22.036  0.2186  0.3330  0.2311
20735W        W25135   0.283   5.997  31.597  0.0724 -0.0550  0.2024
20736W        W25136   2.679   6.864  12.686  0.1383  0.1077  0.1516
20737W        W25137   3.413   3.424   0.541  0.0512  0.2120  0.1033
20738W        W25138  18.784   4.664  25.401  0.1284  0.1191 -0.0924
20739W        W25139  18.902   6.882   8.219  0.1685 -0.1733  0.0510
20740W        W25140   2.884   3.883  11.326 -0.4005  0.2668 -0.2725
20741W        W25141  18.615   4.883  26.763 -0.1934  0.0716  0.0086
20742W        W25142  17.925   3.882  28.320 -0.0732 -0.0363  0.2927
20743W        W25143  19.322   4.700  17.846  0.1468 -0.0322 -0.3256
20744W        W25144   3.008   7.040  22.080 -0.1745 -0.0047 -0.0405
20745W        W25145  12.913   1.524  24.422  0.1170 -0.3562  0.1554
20746W        W25146   7.695   4.743  17.029 -0.1586 -0.1419 -0.0699
20747W        W25147  17.771   3.726   5.748 -0.1774 -0.1069  0.3316
20748W        W25148  12.353   4.861  27.509  0.1820 -0.0860 -0.2403
20749W        W25149   5.147   5.108   3.981 -0.0899 -0.2397 -0.1346
20750W        W25150  10.719   2.275  12.136 -0.1569 -0.4173  0.3268
20751W        W25151   1.141   7.773  31.413  0.3512  0.0974  0.1249
20752W        W25152  23.494   3.344  24.729 -0.0502 -0.0973 -0.2889
20753W        W25153  16.086   5.436  23.747 -0.1087 -0.2254 -0.0109
20754W        W25154  16.542   0.386   3.894  0.1564 -0.1479  0.0648
20755W        W25155  19.126   3.443  23.785  0.1625  0.1646  0.1503
20756W        W25156  17.388   2.183  22.676  0.0268  0.1365 -0.1339
20757W        W25157  22.524   2.500   2.961  0.3068  0.2322  0.1524
20758W        W25158   1.807   7.819   0.455  0.3890  0.2841 -0.0085
20759W        W25159   1.217   1.962   2.546  0.0802  0.1609  0.0920
20760W        W25160   6.371   2.950  22.308  0.1216  0.2109  0.0158
20761W        W25161   6.527   3.008  27.500 -0.2025 -0.0145  0.1010
20762W        W25162   1.300   7.426  28.653  0.3178  0.0960 -0.1062
20763W        W25163   0.450   7.101  28.437 -0.1114  0.1709 -0.0421
20764W        W25164  18.238   6.579  20.624 -0.2410  0.0172  0.0964
20765W        W25165   3.384   1.193   1.893  0.0032 -0.0186 -0.0849
20766W        W25166  11.974   2.261  15.891 -0.2886 -0.0069  0.2260
20767W        W25167  10.307   5.461   0.589  0.1459  0.1794  0.0926
20768W        W25168   1.585   7.685  27.299 -0.0113  0.1843  0.0164
20769W        W25169  23.690   4.492   6.503  0.2277 -0.0422 -0.3725
20770W        W25170  15.454   6.255  22.872  0.1259  0.3287  0.4131
20771W        W25171  14.406   5.985  28.181 -0.2806  0.1470  0.2769
20772W        W25172   6.206   7.076  30.644 -0.2094  0.2423  0.0089
20773W        W25173   8.783   6.116  28.504  0.0297  0.1025  0.0643
20774W        W25174   8.345   4.322   6.199  0.1424 -0.4465 -0.2043
20775W        W25175  22.500   3.746   3.966 -0.1207  0.2187  0.0020
20776W        W25176   3.292   5.273   1.260 -0.0767  0.0999  0.2364
20777W        W25177  10.701   3.099  16.912  0.1277  0.0738 -0.1283
20778W        W25178  20.307   7.053  18.358  0.1488 -0.0685  0.0287
20779W        W25179  24.794   4.622   7.988  0.0022 -0.1898 -0.0400
20780W        W25180  12.323   6.544   5.312  0.1597  0.0591 -0.2273
20781W        W25181  23.006   4.346  24.649 -0.1739 -0.1416  0.0138
20782W        W25182  11.500   7.172  12.187  0.1424 -0.0807 -0.0927
20783W        W25183  19.552   3.044  24.660  0.1841  0.1351  0.1025
20784W        W25184   7.480   3.218   2.118 -0.3848  0.0727  0.0592
20785W        W25185  24.157   0.884  24.477  0.0320  0.1423 -0.1769
20786W        W25186  10.219   2.617  16.864  0.1811 -0.1225 -0.1728
20787W        W25187  24.880   5.715  27.810  0.0221  0.0677 -0.2564
20788W        W25188   9.751   5.407  27.066 -0.1009 -0.0267  0.1042
20789W        W25189  22.037   2.979   4.268 -0.0616  0.0424  0.0363
20790W        W25190  18.262   5.028  27.519 -0.0035  0.2168  0.1105
20791W        W25191   2.291   6.196   6.241 -0.0131 -0.0064 -0.2083
20792W        W25192   1.147   6.490  25.194  0.2266  0.1748 -0.1383
20793W        W25193   0.263   2.570  31.653  0.0622  0.0484 -0.0257
20794W        W25194  23.051   7.017  29.048 -0.1727  0.1279  0.0680
20795W        W25195   8.572   3.498  13.512  0.0337 -0.1390 -0.0856
20796W        W25196   6.522   6.411   1.451 -0.2560  0.0236 -0.0265
20797W        W25197  17.281   6.296  19.222  0.0557  0.0731  0.0060
20798W        W25198   0.410   6.318   5.353 -0.0485 -0.0006  0.2624
20799W        W25199   9.751   0.973   0.217  0.1122 -0.0170 -0.0427
20800W        W25200  16.819   6.152  19.446 -0.2812 -0.1646 -0.3291
20801W        W25201  20.736   6.788  15.552  0.1422 -0.0016  0.3454
20802W        W25202   1.156   0.502   3.643 -0.0222  0.3227  0.3520
20803W        W25203  22.929   0.057   6.920  0.0869 -0.0228 -0.1672
20804W        W25204   9.304   0.997  31.980  0.0087  0.2043  0.3531
20805W        W25205   4.193   7.565   1.816 -0.1878  0.0061  0.0683
20806W        W25206  15.202   2.441   8.839 -0.3967  0.3998 -0.0957
20807W        W25207  15.911   5.359  29.063  0.0371 -0.2725 -0.1688
20808W        W25208   9.594   1.943  16.740  0.0778  0.1759 -0.0363
20809W        W25209   5.999   7.117   9.477  0.3039 -0.0696 -0.1730
20810W        W25210   6.119   1.785   0.488  0.0731 -0.0269 -0.0693
20811W        W25211  17.817   2.205  10.879 -0.0451  0.1965  0.1076
20812W        W25212  24.592   0.571  16.804  0.0591 -0.2147 -0.1587
20813W        W25213  16.251   5.211  11.881 -0.1777  0.1369 -0.0442
20814W        W25214   9.740   4.410  12.778  0.0818  0.3093 -0.4211
20815W        W25215  12.013   4.902  30.521 -0.2213  0.1812 -0.0938
20816W        W25216   7.449   0.820   5.686  0.1433 -0.0186 -0.1907
20817W        W25217   9.490   3.575  31.434 -0.3914 -0.1528  0.2545
20818W        W25218   2.839   2.397   8.379  0.0939 -0.2262  0.0719
20819W        W25219   8.524   4.676  15.081  0.0640 -0.2341 -0.1105
20820W        W25220  15.989   2.707  25.459  0.0827  0.1197  0.0588
20821W        W25221   8.564   2.870  32.353  0.0783 -0.1670 -0.0170
20822W        W25222  22.173   6.343   9.050  0.0605 -0.2161  0.1677
20823W        W25223  17.729   5.695   1.000  0.0864  0.2495  0.1485
20824W        W25224  11.832   4.523  24.598 -0.0889 -0.0992  0.0631
20825W        W25225   2.845   0.636  20.984  0.1358 -0.3472 -0.0645
20826W        W25226   3.453   4.611  28.518 -0.0635 -0.0763  0.3345
20827W        W25227  18.621   5.460   6.861 -0.1533 -0.1677 -0.0295
20828W        W25228   5.368   2.277  30.555  0.0694 -0.2150  0.0911
20829W        W25229   8.833   1.011   8.675 -0.1724 -0.1818  0.2557
20830W        W25230   6.294   6.094  25.189 -0.0345 -0.3547  0.1151
20831W        W25231   1.411   7.026  29.046  0.2149  0.0773 -0.2641
20832W        W25232  24.054   3.914  20.375  0.1069  0.2872 -0.1618
20833W        W25233   8.276   1.805  16.348  0.1682  0.0789 -0.0192
20834W        W25234   0.666   0.217  30.200 -0.0435 -0.4625  0.2134
20835W        W25235   8.185   4.376   3.310  0.0838  0.0797 -0.0707
20836W        W25236  10.836   0.730  16.766 -0.1783  0.1158 -0.1069
20837W        W25237  14.015   3.473   6.488  0.0521  0.1599 -0.0601
20838W        W25238  12.182   3.353  27.018 -0.1717  0.0236  0.3972
20839W        W25239   4.776   5.462   6.883  0.1772  0.3795  0.0815
20840W        W25240  22.306   6.618   6.737  0.1035  0.0109 -0.0829
20841W        W25241   1.109   3.536   9.011  0.2922 -0.0946  0.1276
20842W        W25242   6.592   2.122   1.198 -0.1162  0.1607 -0.1868
20843W        W25243  13.947   7.594  27.355  0.0119  0.1949 -0.0441
20844W        W25244  24.223   4.199   5.702 -0.1729 -0.1600 -0.2707
20845W        W25245  16.913   1.265  20.607  0.4048  0.1443 -0.1552
20846W        W25246   1.360   0.900  29.795  0.0426 -0.0361  0.0265
20847W        W25247  11.498   3.578  28.738  0.4584 -0.0053 -0.3025
20848W        W25248   3.986   3.973  10.219 -0.1430 -0.0906  0.1725
20849W        W25249  16.102   7.019  26.963 -0.0249 -0.2175  0.2903
20850W        W25250   0.815   0.118  17.351 -0.0914 -0.0186 -0.1899
20851W        W25251  24.764   7.360  10.115  0.1855  0.0042  0.2909
20852W        W25252   4.051   5.658   7.221  0.3783 -0.1035  0.0351
20853W        W25253   2.464   6.780  26.076  0.2026  0.1806 -0.1518
20854W        W25254  24.934   6.168  10.218 -0.0973  0.3866 -0.0956
20855W        W25255  13.745   6.027   3.469 -0.1791 -0.4182 -0.0133
20856W        W25256  15.928   2.192  29.878  0.0692  0.1420  0.0416
20857W        W25257  20.272   6.867  24.961 -0.1204  0.1888  0.0605
20858W        W25258   9.813   6.867  23.615 -0.0054 -0.2057  0.1872
20859W        W25259  12.026   3.159  22.125 -0.0057  0.3249 -0.1322
20860W        W25260  14.987   0.722  31.879  0.0857  0.0938  0.2003
20861W        W25261  15.559   5.039  32.243 -0.1418 -0.2915 -0.1439
20862W        W25262  16.739   0.272  19.571  0.0621  0.0153  0.1072
20863W        W25263  18.126   4.531  30.290 -0.1068 -0.0933 -0.4527
20864W        W25264  17.276   2.688  26.344  0.2368 -0.0976  0.3715
20865W        W25265  15.972   5.752  25.490 -0.1106 -0.1806 -0.3167
20866W        W25266  19.228   2.438  19.051  0.0269 -0.0165 -0.2563
20867W        W25267  12.424   6.936   0.545 -0.2469 -0.0836 -0.0464
20868W        W25268  14.060   1.499  24.256 -0.1472 -0.1633 -0.0354
20869W        W25269  14.723   6.014  10.672  0.0796  0.1805 -0.0395
20870W        W25270  16.342   1.071  11.159  0.2083 -0.1244  0.0925
20871W        W25271  18.376   3.637   2.472  0.1499  0.5062 -0.0647
20872W        W25272   9.915   2.110   4.917  0.1032  0.0934  0.2200
20873W        W25273  10.129   4.837  23.479 -0.0614  0.0286 -0.2210
20874W        W25274   0.429   3.126  26.751  0.3791  0.0493 -0.3668
20875W        W25275   0.637   4.399  16.929 -0.2817 -0.2522  0.3366
20876W        W25276  20.469   0.639   1.729  0.0135  0.0876 -0.1812
20877W        W25277   0.404   1.759  20.379 -0.0568  0.0334  0.0906
20878W        W25278  12.495   5.277   1.388 -0.2969 -0.0178  0.0983
20879W        W25279  23.296   5.760  20.140  0.0183  0.0103 -0.1150
20880W        W25280  21.765   2.722   4.818 -0.0051 -0.0278 -0.2960
20881W        W25281  24.401   3.643   1.806  0.1701  0.3852  0.0790
20882W        W25282  10.212   7.536  31.850  0.0827 -0.2387  0.0793
20883W        W25283  19.100   0.420  22.124  0.1049 -0.0052 -0.4867
20884W        W25284  19.845   6.154  19.000  0.0755  0.2236  0.0007
20885W        W25285  23.391   2.556  19.949  0.0250  0.1364 -0.2276
20886W        W25286   1.500   3.067   1.226  0.0400 -0.0294 -0.0582
20887W        W25287  16.273   2.688   7.026 -0.1377  0.1570  0.3291
20888W        W25288  20.736   0.123  26.147 -0.0215 -0.2223  0.3953
20889W        W25289  16.490   6.194  27.861  0.2781 -0.0942 -0.2519
20890W        W25290   4.521   5.703  29.020 -0.1714 -0.2116  0.6125
20891W        W25291  24.893   6.965  18.458 -0.1356 -0.1101  0.1562
20892W        W25292  24.488   6.963  27.685 -0.3080 -0.0635  0.3262
20893W        W25293   8.343   4.358  30.500 -0.2225  0.2427  0.0106
20894W        W25294  11.962   4.474   8.216 -0.0313  0.2576 -0.2882
20895W        W25295   5.608   6.942  23.218 -0.0059 -0.0074  0.0439
20896W        W25296  14.016   5.389   4.977 -0.5274  0.0502 -0.0767
20897W        W25297  15.999   3.969  24.854 -0.0329 -0.0227 -0.1190
20898W        W25298   7.501   1.320   6.793  0.1989 -0.1007  0.0301
20899W        W25299  23.021   0.738  29.664  0.0897 -0.1273  0.3164
20900W        W25300   7.942   7.497   7.874  0.1262 -0.1900  0.1164
20901W        W25301  14.508   5.885   6.117 -0.0614 -0.2106 -0.0556
20902W        W25302  23.920   5.020   3.501 -0.1051 -0.0389  0.3197
20903W        W25303  19.946   6.054  24.050 -0.0637 -0.1137 -0.0084
20904W        W25304  11.612   7.601   4.958  0.0034 -0.0585 -0.2961
20905W        W25305   1.467   2.443  31.095  0.1940 -0.0732  0.0592
20906W        W25306   6.601   4.085   3.312  0.1018 -0.2772 -0.2568
20907W        W25307   6.822   2.180  27.458  0.0137 -0.1421  0.1011
20908W        W25308   6.063   1.945   3.852 -0.0156 -0.1813 -0.0106
20909W        W25309  21.410   3.435  16.159 -0.2321 -0.1326 -0.0380
20910W        W25310   3.800   2.771  24.419 -0.0682  0.0923  0.0471
20911W        W25311   9.814   5.310  11.743 -0.1025  0.1794  0.0091
20912W        W25312  10.103   7.474  29.480 -0.1772 -0.5215  0.1124
20913W        W25313  18.355   6.018  30.198 -0.1941  0.1474 -0.1765
20914W        W25314   5.999   5.467   1.871  0.0434  0.2979  0.1866
20915W        W25315  14.143   1.940   3.612  0.0823  0.0531  0.0672
20916W        W25316   8.770   4.432  13.611  0.1844  0.0327  0.1563
20917W        W25317   8.980   7.342  12.935 -0.1288 -0.0051  0.0067
20918W        W25318   1.330   6.547  30.681  0.1392 -0.0627  0.0476
20919W        W25319   2.417   5.991  27.870 -0.0410 -0.2864 -0.3058
20920W        W25320  17.183   5.054   5.401  0.1606  0.1497  0.1971
20921W        W25321  13.179   0.435  24.307  0.2863 -0.3253  0.0812
20922W        W25322   5.710   4.396   3.207 -0.1607  0.0109  0.0299
20923W        W25323   1.362   2.041   4.703  0.1054 -0.0693 -0.1273
20924W        W25324  23.651   5.728  30.693  0.1992 -0.1460 -0.0355
20925W        W25325  21.712   0.792  26.607 -0.0633  0.2750 -0.2746
20926W        W25326   8.018   5.274   0.775  0.2795 -0.1960 -0.1036
20927W        W25327  23.904   1.830   7.562 -0.1172  0.0573  0.0171
20928W        W25328  12.119   0.192  28.482 -0.1513  0.0462 -0.1252
20929W        W25329   7.450   6.156  15.834  0.0352  0.3689 -0.3724
20930W        W25330   1.173   5.614  19.083  0.1815  0.1711  0.2786
20931W        W25331  16.113   2.148   0.187  0.4421 -0.3552  0.1432
20932W        W25332   6.559   2.637   3.676 -0.1812  0.1528  0.1004
20933W        W25333   8.976   4.722  10.369 -0.0067 -0.2622 -0.1773
20934W        W25334   9.749   1.285   9.985 -0.0838 -0.0160  0.1994
20935W        W25335   0.505   2.335   1.876 -0.1789 -0.2161  0.4685
20936W        W25336  13.520   6.641  14.676  0.0951  0.0900  0.1719
20937W        W25337  10.123   2.388   7.052  0.1244 -0.0141  0.1586
20938W        W25338  11.869   3.762   5.516 -0.2035 -0.0466  0.1276
20939W        W25339  13.782   3.839  14.476 -0.0752 -0.0715  0.1114
20940W        W25340   7.501   5.223  17.093  0.0343 -0.0281 -0.1377
20941W        W25341   7.216   4.253   6.964  0.2979 -0.0609 -0.0806
20942W        W25342  12.762   2.632  24.455  0.3532  0.0019 -0.1253
20943W        W25343  23.066   0.448  24.615  0.1382 -0.0588  0.2903
20944W        W25344   1.292   2.022   8.110 -0.1032  0.3768 -0.0893
20945W        W25345   3.073   2.243  29.287 -0.1204 -0.0710 -0.1135
20946W        W25346   7.445   2.565   5.308 -0.2896 -0.0119 -0.2588
20947W        W25347  20.499   4.830  26.976  0.1380  0.0425  0.2050
20948W        W25348   9.632   5.016   4.275 -0.1967  0.0114 -0.0608
20949W        W25349  24.085   5.047  28.658 -0.3056 -0.0337 -0.3913
20950W        W25350   6.946   1.706  14.461  0.0562 -0.1135 -0.1284
20951W        W25351  17.328   0.419  22.215 -0.1745  0.0429  0.1355
20952W        W25352   7.553   1.861   8.743  0.0116 -0.0094  0.3301
20953W        W25353  13.803   3.324   4.493 -0.0396 -0.0419 -0.1487
20954W        W25354  17.174   4.049  26.197 -0.0425  0.2807 -0.3628
20955W        W25355   5.347   5.507  10.786  0.1910  0.0996 -0.0965
20956W        W25356  22.243   3.248  26.093 -0.2933  0.2659  0.2875
20957W        W25357  10.567   4.639  12.133 -0.3145  0.1072  0.0265
20958W        W25358  14.521   7.043  25.250  0.0852  0.2254  0.0418
20959W        W25359  15.744   2.396  23.249 -0.0648 -0.0545  0.0888
20960W        W25360   6.968   6.585  17.293  0.1093  0.0639  0.2327
20961W        W25361  21.555   4.725   3.579  0.1508  0.0192  0.1322
20962W        W25362   6.121   1.422  28.068  0.0005  0.1394  0.0084
20963W        W25363  15.642   1.834   3.906  0.2445  0.0140 -0.1166
20964W        W25364  21.330   0.450  16.296 -0.0214 -0.3556 -0.0458
20965W        W25365  22.713   6.602  28.173 -0.1657  0.0575  0.1029
20966W        W25366   3.013   7.821  32.626  0.0268 -0.3550  0.2733
20967W        W25367   9.669   3.762   3.408  0.3396  0.0668 -0.1007
20968W        W25368   0.490   0.534   7.399  0.2346 -0.0123  0.1193
20969W        W25369   0.676   3.599   3.330  0.0445  0.0698 -0.0098
20970W        W25370   2.580   2.099  25.889 -0.0652 -0.1919  0.0838
20971W        W25371   3.163   1.452   0.580  0.1677 -0.0747  0.0535
20972W        W25372  15.077   3.589  11.912  0.1879  0.0615 -0.1141
20973W        W25373  12.977   5.307  30.976 -0.1709 -0.2694 -0.3261
20974W        W25374  22.552   6.732  17.148  0.0151  0.2203  0.2212
20975W        W25375  10.800   7.536  23.612  0.1154  0.1415  0.1169
20976W        W25376   5.842   1.118  24.530 -0.1578 -0.2609  0.1255
20977W        W25377   9.118   2.279  25.394 -0.1745 -0.2115 -0.1256
20978W        W25378  24.102   6.093  28.387  0.3369  0.2327  0.0891
20979W        W25379   7.192   5.545  15.308 -0.0295 -0.1120  0.0346
20980W        W25380   3.353   2.844   7.225 -0.0353  0.2699 -0.0730
20981W        W25381   7.517   4.799   8.347 -0.0268 -0.2512  0.0569
20982W        W25382  12.813   5.409  29.416  0.2080 -0.0226 -0.1472
20983W        W25383  22.284   2.706  19.141  0.0559  0.3104 -0.1392
20984W        W25384  17.634   3.050  27.138  0.0733  0.3434 -0.0063
20985W        W25385  21.147   3.495   1.510  0.0641  0.1963  0.2872
20986W        W25386  22.289   4.039   7.475 -0.2394 -0.0499 -0.1000
20987W        W25387  23.371   4.537  20.535  0.0469  0.1089 -0.1812
20988W        W25388  20.090   3.950   2.759 -0.2898 -0.2689 -0.2453
20989W        W25389  23.896   4.070  29.550  0.1603  0.2780 -0.2885
20990W        W25390  14.384   3.674  20.696  0.0766  0.0492 -0.1165
20991W        W25391  23.514   5.868   2.493 -0.1408 -0.1210  0.1436
20992W        W25392  21.514   2.794   7.545  0.0257 -0.0457  0.2058
20993W        W25393  19.277   4.150   0.188  0.2213 -0.1648 -0.0905
20994W        W25394   6.927   0.805   2.494 -0.0548 -0.0366  0.0913
20995W        W25395   3.415   3.342   0.004  0.0870 -0.0087  0.0042
20996W        W25396  19.474   0.929  27.893  0.0842  0.2742  0.0064
20997W        W25397   7.454   3.314  12.166 -0.1602 -0.1309  0.0061
20998W        W25398   6.645   6.784  17.693  0.1302 -0.0027 -0.2564
20999W        W25399   4.574   0.074   9.603  0.1526  0.1125  0.2079
21000W        W25400  19.382   0.110  15.644  0.1150  0.0910 -0.0823
21001W        W25401  10.940   1.772  15.015  0.1234 -0.0476  0.0296
21002W        W25402   0.398   0.379  32.189 -0.0548  0.1656 -0.0878
21003W        W25403  12.652   6.817   5.847  0.2963  0.2206 -0.4530
21004W        W25404   3.345   0.410  21.667 -0.1745 -0.0665 -0.1300
21005W        W25405   5.274   3.849   9.401  0.1172 -0.0246 -0.1647
21006W        W25406  24.903   1.572  21.868  0.3513  0.3729 -0.1741
21007W        W25407  22.676   6.052  16.212 -0.0569  0.1602  0.3035
21008W        W25408  21.924   4.370  23.040 -0.1389 -0.0456 -0.1537
21009W        W25409  13.363   3.096  11.527 -0.1948  0.1388  0.0435
21010W        W25410  13.531   2.208  22.162  0.0964 -0.0344  0.3633
21011W        W25411  14.457   1.598  26.933 -0.0651  0.1504  0.3031
21012W        W25412   6.715   5.942  24.842  0.1572 -0.0867 -0.0161
21013W        W25413  11.819   6.728   6.760  0.1010  0.0684 -0.1259
21014W        W25414  10.991   7.072  28.562 -0.0057  0.0411  0.0040
21015W        W25415  12.422   2.612   7.148 -0.1047 -0.0777  0.3345
21016W        W25416   7.762   3.201  14.127 -0.2359  0.0482 -0.0483
21017W        W25417   6.260   5.932  23.334  0.1014 -0.1707 -0.3401
21018W        W25418  19.935   2.093  16.917 -0.2647  0.1205 -0.1553
21019W        W25419  24.257   3.265   7.008 -0.0820 -0.0132  0.3472
21020W        W25420  13.131   6.694  15.171 -0.2587 -0.3722 -0.0389
21021W        W25421   2.994   5.097  24.459 -0.0837 -0.0686  0.1448
21022W        W25422   2.462   1.619  11.582 -0.0660  0.0493  0.0301
21023W        W25423   0.309   7.778   7.385 -0.0903 -0.1572  0.1608
21024W        W25424   3.616   5.512  21.498 -0.1870 -0.2783 -0.0548
21025W        W25425  20.980   6.627  26.113 -0.3124 -0.0417  0.1453
21026W        W25426   7.882   0.311   3.286 -0.5092 -0.1771 -0.0235
21027W        W25427  20.456   5.431  17.646 -0.1822 -0.0104 -0.2009
21028W        W25428   9.883   7.431  22.928 -0.3738  0.0792  0.3218
21029W        W25429   2.165   3.169  22.349  0.1618  0.4062  0.0250
21030W        W25430   6.013   4.688   7.432  0.2847  0.0586 -0.0948
21031W        W25431  23.764   7.580  26.998 -0.1905 -0.3030  0.2207
21032W        W25432  22.236   7.328   0.360 -0.0782  0.0531  0.1411
21033W        W25433   8.086   6.521  27.585 -0.2077  0.0978  0.1035
21034W        W25434  12.494   2.495  10.629  0.1210  0.0685 -0.2597
21035W        W25435  19.282   6.390  26.894 -0.1858  0.1704 -0.1224
21036W        W25436   2.805   4.334  13.632  0.0279  0.0082 -0.0300
21037W        W25437  13.067   7.651  25.038  0.4472  0.0239  0.4234
21038W        W25438   8.101   5.626   5.952  0.3385  0.0653 -0.0857
21039W        W25439   4.223   6.978  28.960  0.2349  0.1322  0.1526
21040W        W25440  22.949   5.992   0.572  0.1272 -0.1534  0.0944
21041W        W25441  23.119   3.935  17.692  0.0032 -0.1738  0.1244
21042W        W25442  24.606   5.285   1.857 -0.0082 -0.1018  0.0473
21043W        W25443  22.853   3.692   0.560  0.3453 -0.0962 -0.0077
21044W        W25444   1.838   3.961  27.022 -0.2283  0.0404  0.0056
21045W        W25445   0.395   4.937  23.579  0.0662 -0.1096  0.1545
21046W        W25446  10.920   4.593  27.716 -0.1628  0.2008 -0.0240
21047W        W25447  24.246   6.069   7.649 -0.1016 -0.0775  0.0448
21048W        W25448  10.267   0.682  23.604  0.1268  0.0616  0.0302
21049W        W25449  19.207   7.393  18.471  0.2168 -0.0656 -0.0051
21050W        W25450  20.521   7.502   8.439  0.0900  0.3617 -0.0112
21051W        W25451  22.515   1.904   0.452  0.0717 -0.2019  0.2116
21052W        W25452   1.682   0.740  22.433  0.5677  0.0819  0.3637
21053W        W25453  21.726   5.137  18.560 -0.2563  0.1174 -0.0259
21054W        W25454  20.983   7.746  28.380  0.2232 -0.1042 -0.0469
21055W        W25455  11.031   5.060   7.016  0.2596  0.3441 -0.0048
21056W        W25456  16.378   5.626   9.912 -0.3964 -0.0431 -0.2129
21057W        W25457  10.831   5.474  10.403 -0.0525 -0.1603 -0.0910
21058W        W25458  24.724   1.398  29.253  0.1028 -0.2555 -0.1124
21059W        W25459  12.260   6.521   8.341  0.2118 -0.2798 -0.3494
21060W        W25460  13.953   0.857  12.125  0.0201  0.1709  0.0822
21061W        W25461  13.774   6.530   6.688 -0.0471  0.1706 -0.1783
21062W        W25462  13.858   3.017  28.461  0.4063 -0.1256 -0.2333
21063W        W25463  13.045   5.594  26.311  0.5531  0.0447 -0.2590
21064W        W25464  11.054   5.261   9.930 -0.0921  0.1695  0.0092
21065W        W25465  20.408   4.629  23.792  0.0670  0.3161 -0.1987
21066W        W25466  11.853   2.859  15.475 -0.0643  0.0512 -0.2491
21067W        W25467   0.622   0.321  19.555 -0.0644  0.2348 -0.0484
21068W        W25468  20.709   5.856   4.149  0.0749  0.1752 -0.0198
21069W        W25469  24.299   6.552  20.596 -0.0673  0.1841 -0.2606
21070W        W25470   0.532   1.288  26.220 -0.4157 -0.0634 -0.0584
21071W        W25471   0.038   2.224  31.400 -0.2815  0.3011 -0.1183
21072W        W25472  19.976   0.931   1.372  0.1397 -0.0182 -0.1406
21073W        W25473  17.455   2.945  24.706 -0.2799 -0.0031  0.1526
21074W        W25474   3.347   5.509  24.374  0.1357 -0.2306  0.1598
21075W        W25475  18.810   5.226  18.326  0.0392 -0.0230 -0.2301
21076W        W25476  19.867   4.783   1.038 -0.2372  0.2007 -0.4882
21077W        W25477   5.033   1.920   6.083  0.0966 -0.2721 -0.0016
21078W        W25478  15.464   6.136  21.128 -0.0418 -0.0323 -0.1433
21079W        W25479  17.218   0.874   5.574 -0.2491  0.3347  0.0002
21080W        W25480  17.467   4.034   1.902  0.1981  0.0968  0.0408
21081W        W25481   5.681   3.691  15.548 -0.3297 -0.0499  0.1182
21082W        W25482   2.950   0.636   9.964  0.0520  0.0037  0.0844
21083W        W25483   6.169   6.222   4.142 -0.0745  0.3049 -0.0041
21084W        W25484  18.439   0.558  31.253 -0.3603 -0.0900 -0.0909
21085W        W25485  11.050   2.610  24.978  0.0275 -0.1054  0.1467
21086W        W25486   2.301   3.434  29.413  0.0036 -0.1060 -0.1010
21087W        W25487  11.436   0.585  25.963  0.1886  0.1573  0.0838
21088W        W25488   3.202   1.972  11.605  0.2107  0.1092  0.0676
21089W        W25489   5.920   1.043  12.188 -0.0680 -0.0240 -0.1105
21090W        W25490  13.059   6.255  15.648  0.0333  0.2776  0.4605
21091W        W25491   9.488   3.887  17.213 -0.1820  0.3439 -0.2044
21092W        W25492  13.851   4.445  25.659 -0.1153  0.1393 -0.1086
21093W        W25493   9.869   3.427  12.132 -0.1069 -0.0256  0.0560
21094W        W25494  18.646   3.182  16.142  0.3915 -0.2324 -0.1235
21095W        W25495  18.715   0.129  29.801  0.2319 -0.1608  0.4433
21096W        W25496  20.639   0.712  19.709 -0.0943 -0.0632  0.2454
21097W        W25497  18.250   0.472  17.881 -0.0002  0.1234 -0.1544
21098W        W25498  10.535   0.979  17.190 -0.0724  0.0670 -0.1173
21099W        W25499   8.223   3.089   2.274 -0.0578  0.1358 -0.1212
21100W        W25500  24.916   0.895  19.254  0.2031 -0.3166  0.2504
21101W        W25501  24.338   4.197   0.406  0.1097 -0.1945 -0.3412
21102W        W25502  13.067   2.920   4.220 -0.2837 -0.1263  0.0224
21103W        W25503  22.621   0.834  27.200  0.1298 -0.2366 -0.1247
21104W        W25504   0.311   5.197  22.694  0.2730  0.1743 -0.2533
21105W        W25505  18.656   3.929   6.868  0.0882 -0.0603 -0.0826
21106W        W25506  23.762   5.368   2.349  0.2386  0.3793 -0.1283
21107W        W25507  21.158   0.490   3.600  0.2467 -0.0049  0.2652
21108W        W25508   6.687   4.485  27.587  0.1693  0.0573  0.2075
21109W        W25509   9.095   0.307  24.748  0.0747  0.1646 -0.1427
21110W        W25510   8.485   1.999  31.670  0.0166  0.0705 -0.0222
21111W        W25511  11.722   5.570  15.674  0.1632 -0.2203 -0.0022
21112W        W25512  17.150   5.027  18.791 -0.1447 -0.1169  0.0943
21113W        W25513  23.043   4.926  20.554 -0.3806  0.1331 -0.0082
21114W        W25514   8.773   5.693  31.281 -0.1414  0.0756 -0.0049
21115W        W25515  19.123   0.764  30.916  0.4902  0.1354  0.3827
21116W        W25516   5.346   5.878  28.070 -0.0463  0.0121  0.1633
21117W        W25517   6.584   0.953  12.051  0.2050 -0.1103 -0.2224
21118W        W25518   3.303   5.499   0.839  0.0215 -0.1446 -0.0853
21119W        W25519   6.922   6.019   0.847 -0.1048  0.0274 -0.0490
21120W        W25520   1.715   6.357  28.773  0.2246 -0.3237  0.1527
21121W        W25521  17.024   4.544  20.796 -0.0221 -0.2351  0.3495
21122W        W25522   7.008   3.233  24.927  0.0314  0.2095  0.0263
21123W        W25523  22.481   5.582  22.770 -0.0801  0.0005  0.1058
21124W        W25524  23.416   1.833   9.584  0.0199  0.0410 -0.2296
21125W        W25525   4.876   5.638  14.821  0.0283 -0.0575  0.0782
21126W        W25526   2.098   4.905  11.736 -0.3065  0.2367  0.3881
21127W        W25527   5.494   4.145  15.688  0.3527  0.0959 -0.1205
21128W        W25528  15.777   6.782   8.869  0.2273  0.0966 -0.0587
21129W        W25529   2.868   2.063   4.755 -0.1108 -0.2295 -0.1047
21130W        W25530   8.310   5.563  17.415 -0.0971 -0.1060  0.7029
21131W        W25531  23.727   4.391  31.338 -0.3158 -0.1070 -0.1370
21132W        W25532  17.624   3.673  28.932  0.0624  0.0804  0.1727
21133W        W25533  16.445   4.727  27.987 -0.3153 -0.0970  0.0461
21134W        W25534  18.345   7.655  31.985 -0.0786  0.1816 -0.1360
21135W        W25535   6.180   0.990  27.814  0.1801 -0.2272 -0.0322
21136W        W25536   6.748   1.928  24.836 -0.1324  0.4924 -0.0456
21137W        W25537  20.614   4.298  30.190  0.2357  0.0023 -0.0980
21138W        W25538   9.831   5.432   0.701 -0.3022 -0.2519  0.1059
21139W        W25539  10.284   1.816  30.078  0.1569  0.0400 -0.3239
21140W        W25540  24.706   2.586  26.356 -0.0691 -0.2877 -0.0334
21141W        W25541   4.953   6.967  31.272 -0.0660 -0.0970  0.2205
21142W        W25542  18.949   3.202  21.982  0.3755 -0.3108  0.2983
21143W        W25543  17.860   4.336  28.498  0.1390  0.1399 -0.3825
21144W        W25544  23.350   2.382  32.175 -0.0026  0.0682 -0.1353
21145W        W25545  23.802   1.627  25.470 -0.1480 -0.0655  0.1257
21146W        W25546   7.985   4.197  13.972  0.2656  0.1136 -0.0231
21147W        W25547  18.512   0.955   4.906  0.0325 -0.1220 -0.0983
21148W        W25548  22.458   1.125   3.573 -0.0116 -0.1177 -0.1781
21149W        W25549  13.217   1.621   0.045  0.2196  0.1962  0.3414
21150W        W25550   5.314   6.357   3.682 -0.1947  0.2821  0.0455
21151W        W25551   1.066   0.491  10.028  0.2197  0.0596  0.0322
21152W        W25552  10.599   0.805  12.300 -0.0655 -0.0476  0.0760
21153W        W25553   9.899   2.310  26.515 -0.0199  0.0817 -0.0616
21154W        W25554   9.553   5.541   8.704 -0.3606  0.4561  0.1523
21155W        W25555   4.956   2.695  24.624 -0.3025 -0.1541 -0.1349
21156W        W25556   1.481   3.694  23.217  0.0108 -0.0310 -0.0282
21157W        W25557  22.486   6.508  25.615 -0.0149  0.2307  0.1626
21158W        W25558  19.462   5.129  29.003  0.0894 -0.0943 -0.0019
21159W        W25559  12.192   5.986  31.463 -0.0910 -0.0141  0.0191
21160W        W25560  11.981   6.201  14.394  0.0832 -0.0112 -0.1279
21161W        W25561   6.506   6.392   3.250  0.1569  0.0657  0.0659
21162W        W25562  19.956   7.745  23.093 -0.0950  0.1597  0.1364
21163W        W25563  11.803   6.503  21.959  0.1975  0.1156  0.1035
21164W        W25564  23.628   5.889  18.187  0.1361  0.0963 -0.0665
21165W        W25565   3.794   7.059   7.138 -0.2141  0.0703  0.1489
21166W        W25566  10.161   6.072  23.923 -0.0792 -0.0911  0.0957
21167W        W25567  15.168   1.658  22.020 -0.0935  0.0956 -0.0411
21168W        W25568  14.437   0.763   3.504  0.0994  0.2080  0.0291
21169W        W25569  14.029   1.145   2.734 -0.0922 -0.0915 -0.1067
21170W        W25570   6.753   6.196   6.316  0.0956 -0.1698 -0.2656
21171W        W25571  16.124   7.189   0.672 -0.0846  0.1745 -0.0510
21172W        W25572  17.048   3.875  22.213 -0.0217 -0.2243  0.0923
21173W        W25573  18.802   6.546   1.587 -0.3030  0.0844  0.2110
21174W        W25574   0.371   5.958   8.876  0.0912 -0.2239 -0.0921
21175W        W25575  19.746   0.852  28.569  0.2519 -0.2609 -0.1182
21176W        W25576  11.328   4.697  26.134  0.2470  0.0428 -0.3316
21177W        W25577   6.826   3.463  18.856  0.2012  0.0803  0.2404
21178W        W25578  23.523   0.783  32.510  0.0975 -0.2112 -0.2741
21179W        W25579  13.561   1.184  30.471 -0.1585  0.0979 -0.0693
21180W        W25580  24.314   3.871   3.794 -0.0222  0.0051 -0.2251
21181W        W25581  17.413   1.522  28.911 -0.1754  0.0299 -0.2018
21182W        W25582  24.117   4.621  14.663  0.1109 -0.1075  0.0147
21183W        W25583  12.234   7.378  22.830  0.0955 -0.1965  0.1822
21184W        W25584  21.882   3.292  32.447  0.1338  0.0371  0.1758
21185W        W25585  22.381   2.547   9.632 -0.3212 -0.0787  0.0110
21186W        W25586  10.608   3.260   6.992 -0.4589  0.0246  0.1551
21187W        W25587  18.011   0.859  23.463 -0.0233 -0.1982  0.1486
21188W        W25588   5.974   6.477  28.119  0.0885 -0.0744  0.0569
21189W        W25589  24.648   2.188  20.816 -0.2238  0.0112 -0.1182
21190W        W25590   1.892   3.090   9.769 -0.1344 -0.1846  0.1553
21191W        W25591   3.045   1.209   3.193  0.5042 -0.0525  0.1835
21192W        W25592  17.805   1.910  28.895  0.0676 -0.2312 -0.0956
21193W        W25593  12.846   3.653  15.489  0.0424 -0.0087 -0.0328
21194W        W25594  24.194   7.117   1.535 -0.0063  0.0257  0.1580
21195W        W25595   2.076   3.962   2.642  0.2495  0.1394  0.3240
21196W        W25596  17.416   0.167  24.748  0.1578 -0.3593  0.0314
21197W        W25597   4.840   7.106  12.677 -0.1418  0.1125  0.0850
21198W        W25598  13.902   7.425  28.728 -0.0721  0.2281 -0.5771
21199W        W25599  15.410   7.658  12.307  0.0537 -0.0420 -0.0570
21200W        W25600  24.744   3.951  31.821 -0.5260 -0.2035 -0.0831
21201W        W25601   5.548   5.946  26.968  0.0827  0.1778 -0.0534
21202W        W25602  14.628   6.515  11.699 -0.2905  0.2614  0.0463
21203W        W25603  23.716   6.988  30.434 -0.2185  0.1425  0.1955
21204W        W25604  13.776   6.856  10.259  0.1008 -0.1416 -0.1028
21205W        W25605  16.348   5.059  29.220 -0.1199 -0.2693 -0.0724
21206W        W25606  10.443   4.133   1.023 -0.2075 -0.0778  0.0973
21207W        W25607  11.342   7.353  15.743  0.1612  0.0151 -0.3105
21208W        W25608  21.047   5.779  20.556 -0.1413 -0.0068  0.2160
21209W        W25609   8.859   2.050  28.332  0.1815  0.0105 -0.3233
21210W        W25610   7.814   3.161  23.410 -0.1174  0.1608 -0.1160
21211W        W25611   3.711   2.250   8.854  0.1365  0.2905  0.1491
21212W        W25612  17.187   4.703   3.306  0.1792  0.1271  0.0457
21213W        W25613  17.784   1.766  17.693  0.1146  0.1418 -0.1987
21214W        W25614  22.760   7.363  31.858  0.0871  0.1184 -0.1313
21215W        W25615   6.340   1.272  31.033  0.0221  0.2142 -0.1086
21216W        W25616   4.653   6.653  28.429 -0.2124 -0.0406  0.1190
21217W        W25617   7.556   0.736  11.076  0.1423  0.0202  0.2017
21218W        W25618  18.855   3.597  27.128  0.3514  0.0501  0.2966
21219W        W25619  24.860   5.616  18.888  0.0169  0.0863  0.3361
21220W        W25620   7.891   3.473   1.869  0.3637  0.1385  0.2807
21221W        W25621  11.428   5.539   9.203  0.1480  0.0117  0.1145
21222W        W25622  14.998   7.541  31.135  0.1104  0.0618 -0.0254
21223W        W25623   3.239   3.483  24.277 -0.1234  0.0768 -0.0061
21224W        W25624  18.675   5.787   7.248  0.1137  0.1834 -0.2671
21225W        W25625   8.152   0.659   1.567 -0.1266  0.1260  0.1202
21226W        W25626  11.718   0.240   6.095 -0.0349  0.0516  0.2691
21227W        W25627  15.918   0.020   9.648  0.0616 -0.0879  0.2730
21228W        W25628  17.721   4.858  24.377  0.2815 -0.0210 -0.2617
21229W        W25629  18.618   2.052  24.100 -0.1123  0.0751  0.0824
21230W        W25630  21.210   6.382   0.366  0.1420 -0.1296  0.0744
21231W        W25631  10.646   3.158  30.577 -0.0242 -0.1552 -0.1781
21232W        W25632   5.809   4.991  12.269  0.0678  0.1284  0.0986
21233W        W25633  10.943   2.424  25.909  0.0523  0.2230 -0.1134
21234W        W25634  21.506   2.236  23.535  0.1007 -0.1530 -0.1011
21235W        W25635   7.799   2.380  25.880 -0.1769 -0.2609  0.0296
21236W        W25636  10.988   0.324  29.309 -0.3836 -0.2662 -0.2169
21237W        W25637  22.217   1.614   1.545 -0.0741  0.1386  0.1892
21238W        W25638   1.249   1.701   1.769  0.2488  0.1078  0.0328
21239W        W25639   6.436   0.070   3.072 -0.0262  0.1052  0.1015
21240W        W25640  21.353   6.105   8.591  0.3597  0.0562 -0.0245
21241W        W25641   6.352   4.814  32.433 -0.1293  0.0158  0.1607
21242W        W25642   6.737   5.980   2.997 -0.1243 -0.0655 -0.0571
21243W        W25643   1.583   7.107  21.989  0.1865 -0.2739 -0.1567
21244W        W25644  21.179   4.623  22.687  0.3682  0.0320  0.0734
21245W        W25645   6.587   0.697  28.735 -0.1229  0.1160  0.0854
21246W        W25646   5.446   4.267  27.413  0.2370  0.2080 -0.1447
21247W        W25647   9.195   2.629   3.916 -0.1957  0.2472  0.0411
21248W        W25648  18.273   6.407  32.075 -0.0589  0.0593 -0.2068
21249W        W25649   4.074   7.694  14.340  0.1152 -0.3667 -0.0838
21250W        W25650  24.508   7.536  27.584 -0.0959 -0.1144  0.0412
21251W        W25651  22.657   0.892  18.064 -0.1134 -0.0836  0.1880
21252W        W25652  11.351   1.089  29.295  0.1461 -0.2320  0.0472
21253W        W25653   9.590   7.732  32.279  0.0447 -0.2544 -0.2144
21254W        W25654   3.670   6.393  27.932  0.3317 -0.0609 -0.0706
21255W        W25655  24.025   4.837   5.710  0.1936 -0.3708  0.2457
21256W        W25656   8.499   5.724  27.558 -0.1576 -0.0838 -0.0287
21257W        W25657   0.454   0.528  27.024  0.1052 -0.2526 -0.0423
21258W        W25658  10.580   6.376  11.086  0.1647 -0.0141 -0.3173
21259W        W25659   1.082   4.110   0.964  0.1828 -0.1577  0.0730
21260W        W25660   7.485   5.914  27.077  0.0534 -0.0771 -0.0938
21261W        W25661  18.530   2.628   7.620 -0.1795  0.0730  0.0153
21262W        W25662  18.042   6.680  16.157  0.2613 -0.1642  0.1199
21263W        W25663  17.408   4.336  29.048  0.0027  0.2590 -0.0028
21264W        W25664  19.028   6.369   9.543  0.0566  0.0513  0.2337
21265W        W25665   9.415   1.754  31.341  0.2476  0.0579  0.0787
21266W        W25666   0.611   6.063  19.630 -0.1779  0.1544 -0.2033
21267W        W25667   7.072   5.955  31.735  0.0617 -0.0075 -0.2381
21268W        W25668  16.178   0.131  32.689 -0.0066 -0.2281 -0.0297
21269W        W25669   9.277   5.101  30.646 -0.0356  0.2061  0.0264
21270W        W25670   7.927   3.396  27.705  0.0116 -0.0392  0.0839
21271W        W25671   0.080   4.614   4.513  0.1424  0.2656 -0.2568
21272W        W25672  17.464   7.794   6.855 -0.0069  0.1286 -0.2060
21273W        W25673   4.998   0.050   2.062 -0.0027 -0.0407  0.1279
21274W        W25674  17.764   4.400  18.609  0.0244 -0.1474 -0.2073
21275W        W25675  11.961   4.851  14.618  0.3358  0.1872 -0.1406
21276W        W25676   0.183   1.445   5.041  0.2121 -0.3373 -0.0856
21277W        W25677  13.261   5.885  25.327  0.1636 -0.1127 -0.4505
21278W        W25678   0.993   7.288  11.388 -0.1458 -0.2033  0.0646
21279W        W25679  16.402   0.641  30.580 -0.2425  0.1454 -0.0048
21280W        W25680   9.783   5.946   0.436  0.3285  0.1261  0.0523
21281W        W25681   3.947   3.618   9.302 -0.3591  0.0352 -0.1585
21282W        W25682   2.426   0.197   5.949  0.1525  0.0629  0.0709
21283W        W25683  16.665   2.077   8.951  0.0721 -0.2667  0.0336
21284W        W25684  20.037   0.101  27.058  0.2570 -0.0932 -0.2114
21285W        W25685   9.263   3.562   4.436  0.2745  0.1527  0.1477
21286W        W25686  19.518   1.284  17.880 -0.1458 -0.1621  0.1741
21287W        W25687  14.276   1.505  24.746 -0.1031 -0.0156  0.1767
21288W        W25688  17.568   7.118  23.048 -0.1262  0.1902  0.1341
21289W        W25689   2.643   0.669  28.114 -0.2692 -0.2711  0.0286
21290W        W25690  19.754   2.630  27.902 -0.1108 -0.4016  0.0548
21291W        W25691  12.703   1.977   3.265 -0.0246 -0.2917 -0.2604
21292W        W25692   4.937   7.193   1.332 -0.0984  0.0674  0.1678
21293W        W25693  17.198   7.146  27.266  0.0925 -0.0196 -0.0335
21294W        W25694  13.578   3.035   9.658  0.0285  0.0977  0.2036
21295W        W25695   0.054   5.915  23.189 -0.2182  0.1449 -0.0442
21296W        W25696  15.558   5.346   5.529  0.2442 -0.1739  0.1068
21297W        W25697   1.750   1.763  31.469 -0.0730 -0.0816 -0.2066
21298W        W25698  18.561   2.544   3.970 -0.1575  0.2249 -0.0238
21299W        W25699  22.292   5.018  30.529 -0.0216 -0.0996 -0.1180
21300W        W25700   7.418   2.697   4.742  0.0610 -0.1006 -0.1715
21301W        W25701  23.408   7.799  29.431  0.0819  0.1073 -0.2051
21302W        W25702   0.324   2.834  27.798 -0.0511  0.0967 -0.0532
21303W        W25703   4.040   4.200   4.641 -0.1354  0.3723 -0.0750
21304W        W25704   5.558   1.823   8.724 -0.3003  0.2767 -0.1137
21305W        W25705   6.870   3.893   7.141  0.2467 -0.2376 -0.1115
21306W        W25706   0.233   6.806  10.804  0.1741  0.3992  0.0562
21307W        W25707  18.154   3.428  15.984 -0.0687  0.0341  0.3147
21308W        W25708   4.254   5.717  10.357 -0.1558 -0.0767 -0.0408
21309W        W25709  14.728   1.495   2.434  0.1558 -0.0197 -0.2851
21310W        W25710   0.860   7.760  30.826  0.0830 -0.1085  0.2024
21311W        W25711  15.214   5.873  31.964  0.0621  0.1278 -0.0324
21312W        W25712  19.924   2.303  24.722  0.0510 -0.1569 -0.0542
21313W        W25713  23.322   2.377  19.455 -0.1728  0.1074  0.0243
21314W        W25714  21.406   2.445  29.781 -0.1508  0.1277  0.2570
21315W        W25715   4.440   0.390  25.003  0.2037  0.0208  0.1386
21316W        W25716  18.590   0.152  18.382  0.0714 -0.0278 -0.2035
21317W        W25717  16.535   0.767   3.589 -0.2289 -0.0032 -0.0087
21318W        W25718   9.002   2.441  18.274 -0.2684  0.0615 -0.1683
21319W        W25719   1.762   0.991  11.837  0.2332  0.0118 -0.0081
21320W        W25720  24.514   6.622  18.750  0.2841 -0.3010 -0.1526
21321W        W25721  13.256   4.746  10.283 -0.0891 -0.0043 -0.1538
21322W        W25722   2.101   6.802   2.583  0.2412  0.1645  0.0002
21323W        W25723   4.339   5.498   2.533  0.2476  0.0909  0.2078
21324W        W25724  20.613   6.103  10.105  0.2257 -0.0707 -0.1250
21325W        W25725   6.435   3.818  11.548 -0.1226  0.0780  0.3607
21326W        W25726  24.804   1.961  17.449  0.1093 -0.1781  0.1669
21327W        W25727  10.708   6.199  12.797  0.0640 -0.1554 -0.1567
21328W        W25728   5.772   1.457  13.168  0.0513  0.1881  0.2944
21329W        W25729   9.535   7.275  23.568  0.0709 -0.2474  0.0864
21330W        W25730   5.978   1.809  27.829 -0.2266 -0.1945  0.0288
21331W        W25731  16.245   6.863   3.314 -0.1193 -0.0405 -0.3078
21332W        W25732   7.630   2.222   4.962  0.1384  0.2221 -0.1841
21333W        W25733   1.675   1.965  30.965  0.1070 -0.0964 -0.2307
21334W        W25734  23.959   2.648   0.787  0.0420 -0.0950  0.2567
21335W        W25735   4.934   7.757   9.274  0.0941  0.1764 -0.1615
21336W        W25736   9.394   7.747  22.901  0.0059 -0.3531  0.1609
21337W        W25737   7.321   4.676   2.146 -0.1665 -0.0180  0.0094
21338W        W25738  13.097   0.651   3.092  0.1988  0.2772  0.0715
21339W        W25739  18.628   6.831   5.254  0.3291  0.2337  0.0427
21340W        W25740  13.441   2.419   1.588 -0.0470  0.3753 -0.2363
21341W        W25741   3.958   7.119   6.182 -0.3193  0.0498  0.0499
21342W        W25742  23.472   7.162   0.067  0.2228  0.3388 -0.1033
21343W        W25743   4.196   3.771   2.796  0.0053 -0.1861 -0.1484
21344W        W25744   1.919   2.049  23.190  0.0257 -0.0396 -0.0598
21345W        W25745  18.756   6.027  16.416  0.1721 -0.5885 -0.4390
21346W        W25746   8.756   3.085   6.039 -0.1787  0.1104  0.1664
21347W        W25747  18.763   4.390  32.363  0.0247  0.0855  0.1295
21348W        W25748   2.369   5.599   7.119  0.0759  0.0047 -0.3075
21349W        W25749   4.131   5.663   1.000 -0.1164 -0.0719  0.1011
21350W        W25750   2.691   2.654   1.840 -0.0486 -0.2278 -0.4604
21351W        W25751   2.057   5.342  12.001 -0.3851  0.2139 -0.0351
21352W        W25752  13.074   7.533   6.392  0.2254 -0.0007 -0.2627
21353W        W25753  12.121   6.372   7.531  0.1280 -0.2525 -0.0313
21354W        W25754  22.032   7.456  22.991  0.1564 -0.2113 -0.0564
21355W        W25755   3.926   5.155   9.935  0.3856 -0.2682  0.1728
21356W        W25756  24.079   0.833  21.572  0.1477  0.0256 -0.0705
21357W        W25757   7.276   5.332  14.807  0.2217  0.0439 -0.0459
21358W        W25758  21.365   5.903  15.539  0.0701 -0.2070 -0.0413
21359W        W25759   7.049   5.358  24.762 -0.3948  0.2274  0.0947
21360W        W25760   6.379   1.406  12.547  0.0895  0.0241 -0.1257
21361W        W25761  12.369   7.258   9.980 -0.2276  0.2540 -0.2268
21362W        W25762  15.766   0.720  19.323 -0.0753  0.0865  0.2854
21363W        W25763  12.142   0.982  10.248 -0.0942 -0.1148 -0.0883
21364W        W25764  19.871   5.251   4.531  0.1499  0.0665 -0.1538
21365W        W25765   6.951   4.835   4.106 -0.2819  0.0005 -0.2832
21366W        W25766  16.054   0.839   3.680 -0.0785  0.1638  0.2263
21367W        W25767  23.678   0.683   6.931  0.2660 -0.1762  0.0146
21368W        W25768   4.779   3.036   6.751  0.0905 -0.1005  0.0808
21369W        W25769  22.805   1.677   0.915  0.1111 -0.3609  0.2030
21370W        W25770   4.071   3.383  12.254 -0.0459 -0.1524  0.0157
21371W        W25771   0.953   5.150   5.860  0.1707  0.0356 -0.2095
21372W        W25772  11.223   4.386  11.912 -0.2217 -0.1172  0.0842
21373W        W25773   0.845   4.470   8.023 -0.1233 -0.2388  0.2186
21374W        W25774  11.613   5.739   1.909  0.1574  0.1513  0.0478
21375W        W25775  13.144   7.332  22.409  0.0545 -0.1085  0.0663
21376W        W25776  23.835   7.103  18.552  0.0502  0.1771  0.1404
21377W        W25777   2.283   0.224  13.313  0.3130 -0.0759  0.1304
21378W        W25778  19.064   1.980  19.192  0.0205 -0.1704 -0.0079
21379W        W25779  20.598   0.404  19.324 -0.0436  0.2694 -0.0930
21380W        W25780   0.585   0.755   7.948  0.0747 -0.1707 -0.0893
21381W        W25781  11.603   2.444  22.342 -0.0313 -0.0491  0.0888
21382W        W25782   0.804   5.730  30.031  0.1126 -0.0280  0.1596
21383W        W25783  13.203   5.820  23.883  0.0130 -0.0383 -0.0365
21384W        W25784  23.115   3.753  21.230 -0.1505  0.0021  0.1435
21385W        W25785   0.788   5.336   8.201  0.0017 -0.0022  0.1986
21386W        W25786   5.635   4.646  27.748 -0.1987  0.0008 -0.0317
21387W        W25787  20.555   7.492   5.956  0.1914  0.0294 -0.2838
21388W        W25788   5.968   0.524  14.406 -0.0795  0.3061 -0.1148
21389W        W25789  16.062   7.341   2.583  0.4189 -0.1362 -0.0901
21390W        W25790  12.629   2.589  13.703  0.1281  0.2859  0.1168
21391W        W25791   1.198   6.427   0.291 -0.2199  0.0540 -0.0187
21392W        W25792   2.425   0.264   3.745  0.0838  0.2326 -0.0869
21393W        W25793  24.346   1.194  28.522  0.2956 -0.0110  0.1720
21394W        W25794  11.936   1.910  27.158 -0.0714  0.0105 -0.1744
21395W        W25795  18.661   3.555   3.702 -0.1224  0.1745 -0.0735
21396W        W25796   7.909   0.518  16.577 -0.1327  0.0936 -0.1740
21397W        W25797   0.276   2.540   9.113  0.0217  0.2732 -0.0531
21398W        W25798  11.179   6.313  12.575  0.0930  0.2317 -0.0069
21399W        W25799  15.374   4.902  31.625 -0.1864  0.0022 -0.0600
21400W        W25800  19.103   4.966  30.758  0.0614 -0.1921 -0.2987
21401W        W25801   7.463   1.790  16.244 -0.1381 -0.2123 -0.2995
21402W        W25802  20.864   1.148  25.433 -0.0309  0.2035  0.2852
21403W        W25803   5.902   1.384  30.741  0.0282  0.2417 -0.2952
21404W        W25804  18.161   6.030  18.849 -0.0439 -0.1816 -0.1147
21405W        W25805   4.368   7.001  15.029  0.1080  0.1885  0.1394
21406W        W25806   4.251   0.486  31.202  0.1318  0.1043 -0.1080
21407W        W25807  11.074   1.988  26.150  0.0210 -0.0193  0.0284
21408W        W25808  19.735   2.914   8.586 -0.0391 -0.1896 -0.3309
21409W        W25809  22.895   5.776  30.074  0.2411  0.3255  0.2830
21410W        W25810   2.138   3.558  30.358 -0.1488  0.3477  0.0607
21411W        W25811  21.311   6.008  29.517 -0.0003  0.0865  0.1284
21412W        W25812  12.662   7.638   0.150  0.0345  0.0310 -0.1229
21413W        W25813  22.134   7.642  27.943  0.1990  0.0245 -0.1811
21414W        W25814   2.006   1.091   7.511 -0.1147 -0.1576 -0.1631
21415W        W25815   4.342   1.025   9.321  0.2198 -0.0905  0.2002
21416W        W25816   8.780   4.942   6.680 -0.0772  0.0813 -0.2883
21417W        W25817  25.005   5.546   8.022 -0.0035  0.1451  0.0131
21418W        W25818   2.076   6.962  25.834 -0.1092  0.0326  0.1167
21419W        W25819  15.240   1.708   7.654 -0.3275  0.1340  0.3134
21420W        W25820   9.536   3.756   6.100  0.0857 -0.0430  0.2639
21421W        W25821   3.872   4.246  22.859  0.0047  0.1601  0.2015
21422W        W25822  20.591   7.104  30.033 -0.1127 -0.3575  0.2427
21423W        W25823   0.979   6.780  29.895  0.0526  0.2505  0.2697
21424W        W25824  21.918   5.395  31.920 -0.1760  0.2636 -0.2011
21425W        W25825  13.097   1.432  13.596 -0.2731 -0.1721  0.0318
21426W        W25826  22.873   4.874  21.866  0.1040 -0.1634 -0.0253
21427W        W25827  24.189   2.081   6.389 -0.1862  0.2154  0.1840
21428W        W25828   5.798   6.013   2.692 -0.1189 -0.0082  0.1851
21429W        W25829  11.083   2.612  11.635 -0.0970  0.1496 -0.0059
21430W        W25830  12.267   1.538   2.987 -0.2578 -0.1032 -0.1562
21431W        W25831  17.557   1.309  30.245 -0.2017 -0.1128  0.1341
21432W        W25832  20.109   2.990  29.905  0.1281 -0.1793 -0.1157
21433W        W25833   5.872   2.304   5.902  0.0432  0.1734  0.0951
21434W        W25834   8.882   7.595   5.962 -0.0428  0.0120  0.0352
21435W        W25835   8.814   7.438  25.518  0.1381  0.2749 -0.1747
21436W        W25836   9.627   5.789  22.519 -0.0293  0.1139  0.0793
21437W        W25837   3.890   7.144  32.020 -0.4178  0.1343 -0.1069
21438W        W25838  17.864   6.405  30.893 -0.3041  0.0265  0.0452
21439W        W25839  17.427   5.373   4.814 -0.0977  0.0733  0.0980
21440W        W25840  15.649   1.519  29.240  0.0073 -0.2183  0.0897
21441W        W25841  21.859   3.649  21.238 -0.0230 -0.2537 -0.2455
21442W        W25842  11.226   5.777  10.636  0.2127 -0.1589 -0.0795
21443W        W25843   4.527   0.419  10.542  0.2752 -0.3212  0.2141
21444W        W25844  12.200   3.577   3.025 -0.0248 -0.0711 -0.0698
21445W        W25845   9.109   4.245  17.094  0.2466 -0.0224 -0.0557
21446W        W25846  23.952   6.896  31.935 -0.0566  0.0921 -0.3192
21447W        W25847  11.870   0.746   6.219  0.1926  0.1402  0.0293
21448W        W25848   3.834   4.013  29.170  0.0710 -0.2843  0.1031
21449W        W25849  12.586   3.393   2.033 -0.0671 -0.1134  0.0703
21450W        W25850   6.834   0.247   3.847  0.3666  0.2068  0.0418
21451W        W25851   3.824   2.599  13.525  0.1221 -0.0131  0.1913
21452W        W25852   0.005   6.059  16.961  0.2206  0.3219  0.0359
21453W        W25853   9.154   2.804   5.700 -0.3961  0.0264  0.5720
21454W        W25854  20.859   2.979  24.117  0.1479  0.2330  0.0440
21455W        W25855   2.948   1.651  24.537 -0.3216 -0.0593 -0.2343
21456W        W25856   4.750   6.037  21.965 -0.1070 -0.0811 -0.0926
21457W        W25857   5.474   0.800   2.853  0.0545  0.0024  0.2148
21458W        W25858  16.055   0.910   7.185 -0.0196  0.1991 -0.6165
21459W        W25859  18.748   6.320  10.427 -0.4384 -0.1203 -0.1525
21460W        W25860   9.240   6.542   5.712  0.1077 -0.1956 -0.1058
21461W        W25861  20.401   6.500  29.614  0.0906 -0.0915  0.1277
21462W        W25862   6.472   7.498  27.493  0.4760  0.0024 -0.0243
21463W        W25863  16.780   6.392  28.783 -0.2132  0.2191  0.1678
21464W        W25864   7.138   0.832   0.070  0.3760  0.1070  0.1892
21465W        W25865  20.960   1.807  22.016 -0.0109 -0.0279  0.2373
21466W        W25866  19.748   0.987  26.210  0.1333  0.0999  0.1118
21467W        W25867   7.778   4.811  24.558  0.0736  0.0525  0.0739
21468W        W25868  19.552   6.121   4.686  0.1782  0.0437  0.1303
21469W        W25869  21.953   4.552   2.222  0.0081  0.0296 -0.0063
21470W        W25870   7.147   6.416   9.207 -0.3247 -0.0320 -0.0062
21471W        W25871  21.565   2.395  16.122 -0.1588  0.0543 -0.2012
21472W        W25872  21.193   3.748  18.696  0.1203 -0.0016 -0.0432
21473W        W25873  20.889   6.178   0.020 -0.0120  0.1382  0.0956
21474W        W25874   3.346   0.453  30.720 -0.1404 -0.0012  0.3527
21475W        W25875   7.946   3.977  31.409  0.2983 -0.1316  0.0869
21476W        W25876  19.846   1.834   9.763 -0.1240 -0.0514 -0.0912
21477W        W25877  22.433   4.958   0.263  0.2668  0.3579  0.2996
21478W        W25878   2.009   5.832  31.369 -0.0323  0.0208 -0.1503
21479W        W25879   0.348   2.327  10.207  0.0899  0.0677 -0.0492
21480W        W25880  21.219   4.251  20.017 -0.0721 -0.0790 -0.3432
21481W        W25881  13.661   6.591  22.198 -0.3931  0.2101  0.0250
21482W        W25882   9.014   4.153  11.252 -0.0546  0.1685 -0.0206
21483W        W25883  12.532   0.715   4.344 -0.0754 -0.1251  0.0799
21484W        W25884  10.786   1.342  24.945  0.1254  0.0661 -0.0974
21485W        W25885   3.551   0.300   9.016  0.0955  0.0106 -0.0590
21486W        W25886   3.570   7.146   4.573 -0.0871 -0.0859  0.0108
21487W        W25887  23.401   1.446  19.175  0.2123 -0.2810  0.0332
21488W        W25888  24.892   5.034   3.585  0.1706  0.1668  0.2505
21489W        W25889   6.322   1.460   4.691  0.1186  0.0267  0.1889
21490W        W25890   3.287   1.066  31.197  0.2597 -0.0155 -0.1691
21491W        W25891  19.803   5.261  20.540 -0.2714 -0.0791  0.0197
21492W        W25892  18.974   2.177   6.282 -0.2442 -0.0735 -0.1334
21493W        W25893   6.805   6.657  10.592  0.1954 -0.0841 -0.1414
21494W        W25894   4.929   0.423  15.023  0.0352 -0.2202  0.2442
21495W        W25895   5.351   4.126   9.865 -0.0654  0.1356 -0.3141
21496W        W25896   3.323   7.665  28.223 -0.2023 -0.0086 -0.0212
21497W        W25897   7.373   0.039   7.596 -0.0357 -0.2259  0.0685
21498W        W25898   8.708   4.325  15.844  0.0405 -0.0111 -0.1266
21499W        W25899  15.341   7.260  31.942 -0.1539 -0.2094  0.0389
21500W        W25900   6.688   2.004  30.392  0.2884  0.1642  0.0597
21501W        W25901  15.073   0.819   0.158  0.0821 -0.0348  0.1167
21502W        W25902  24.079   0.687   6.531  0.0313 -0.0337 -0.0804
21503W        W25903  11.316   1.821   3.178  0.0561  0.2113 -0.1374
21504W        W25904  20.852   0.987   4.233 -0.2115 -0.0206  0.0027
21505W        W25905   1.497   3.570   8.756 -0.1144  0.0720  0.0885
21506W        W25906   7.044   5.393  13.138  0.0639  0.0345  0.0713
21507W        W25907   1.679   7.299   0.331 -0.2662  0.2489  0.2445
21508W        W25908  17.084   4.649  31.468 -0.4855 -0.0760 -0.0787
21509W        W25909   7.023   7.678  24.731  0.0533  0.1065 -0.0068
21510W        W25910   4.611   4.062  28.624  0.3942  0.0702  0.1932
21511W        W25911  13.647   1.866  23.884  0.0553 -0.1749  0.0404
21512W        W25912  16.891   6.590   2.717 -0.2869  0.1446  0.1537
21513W        W25913   2.711   5.859  12.525  0.3309 -0.3161  0.1602
21514W        W25914   6.309   2.574  23.493 -0.0503  0.0667 -0.0921
21515W        W25915   5.630   3.565  28.559  0.1410 -0.3038 -0.1507
21516W        W25916   5.324   1.291   4.170  0.0502 -0.2065 -0.1139
21517W        W25917   4.808   0.787  29.154 -0.0056  0.1038  0.0793
21518W        W25918   6.504   7.034  12.708 -0.1374  0.0500  0.0496
21519W        W25919   0.167   1.694  28.111 -0.1582  0.0345  0.1987
21520W        W25920  12.839   5.725  24.333 -0.0755  0.0774  0.2611
21521W        W25921  19.054   5.820  23.307 -0.0890 -0.1801  0.3464
21522W        W25922   0.658   4.286  29.298  0.0052 -0.0109  0.1835
21523W        W25923  24.883   4.073  23.229 -0.2815 -0.0051 -0.0825
21524W        W25924  11.843   6.547  11.581 -0.0250  0.0488 -0.1706
21525W        W25925   4.991   1.763  29.397 -0.0848 -0.0143  0.3161
21526W        W25926  20.977   3.065  19.406 -0.2461 -0.3686 -0.0690
21527W        W25927   7.547   3.123  17.590 -0.0309  0.1241  0.3409
21528W        W25928  20.765   1.324  24.908 -0.1805 -0.1788  0.0106
21529W        W25929  16.958   4.698  26.164  0.0240 -0.0398 -0.0941
21530W        W25930  23.313   5.935  16.395  0.1763  0.2227  0.0824
21531W        W25931   9.063   0.976  29.779  0.1026  0.0555  0.0345
21532W        W25932  18.476   4.925   2.627  0.0050  0.3552  0.3508
21533W        W25933  17.236   3.449  10.502 -0.1016 -0.1267 -0.0178
21534W        W25934  23.047   5.302   8.372  0.0704 -0.1158  0.0484
21535W        W25935  10.435   1.783   9.754  0.1028 -0.2874  0.2057
21536W        W25936   2.105   2.248  27.407 -0.2771  0.1242  0.1382
21537W        W25937   1.092   3.714  17.891 -0.5666 -0.1017 -0.0109
21538W        W25938  13.927   6.670  20.705  0.0238 -0.0828 -0.0484
21539W        W25939  13.542   2.493   5.684 -0.0155 -0.4145 -0.0250
21540W        W25940  20.132   0.306  23.891  0.1534 -0.1552 -0.0088
21541W        W25941  21.980   6.753  20.582  0.2199 -0.0291  0.2154
21542W        W25942   0.002   2.135   9.394 -0.3347 -0.1495  0.2552
21543W        W25943  21.287   4.398   3.191 -0.1030  0.2173  0.1358
21544W        W25944  15.842   7.596  26.892  0.4399  0.2319 -0.2538
21545W        W25945   3.848   7.070   5.276 -0.0031  0.1990 -0.2521
21546W        W25946  12.084   7.215   7.783 -0.0489 -0.2630 -0.4454
21547W        W25947  18.628   5.947   5.183 -0.1824  0.0863 -0.0822
21548W        W25948  21.723   1.368   6.158 -0.1508 -0.2224  0.0818
21549W        W25949   5.408   6.025   3.003 -0.4334 -0.0723 -0.0117
21550W        W25950  22.663   2.327  27.323 -0.2771  0.2260  0.0055
21551W        W25951   5.980   1.227  26.487 -0.2473 -0.1615  0.4283
21552W        W25952   1.614   2.532  20.952 -0.2030  0.1367  0.1730
21553W        W25953   8.499   5.704  23.810 -0.0797 -0.1645 -0.0812
21554W        W25954   1.082   6.900   2.657 -0.1797 -0.2479  0.1706
21555W        W25955  21.879   4.144  16.299  0.2204 -0.1054  0.0290
21556W        W25956  22.751   6.914   6.182  0.1078 -0.0132  0.3131
21557W        W25957  13.962   6.797   1.926  0.1304 -0.3581 -0.0947
21558W        W25958   7.300   3.757   9.271 -0.1813 -0.0905  0.0369
21559W        W25959  10.664   4.369  28.744  0.0895 -0.0066  0.0127
21560W        W25960  10.418   4.648   1.042  0.0089 -0.0825 -0.1667
21561W        W25961   0.943   5.078  23.545  0.3222 -0.1456  0.0067
21562W        W25962   1.666   5.692  22.413  0.2817 -0.0837 -0.0060
21563W        W25963  21.096   0.737  21.302 -0.0650 -0.0307 -0.2640
21564W        W25964  19.000   1.952  10.013  0.0162 -0.0596 -0.2336
21565W        W25965  11.221   1.043  24.845 -0.1238 -0.0856  0.2740
21566W        W25966  18.679   2.008   2.597  0.2246 -0.0054  0.0487
21567W        W25967   8.120   3.345  15.851  0.2566 -0.1112 -0.2628
21568W        W25968  10.657   6.427  29.898  0.1656  0.0910 -0.1102
21569W        W25969  12.544   4.922   3.829  0.3459 -0.1383  0.0074
21570W        W25970  21.794   4.564  24.210 -0.0085  0.1389 -0.0507
21571W        W25971   8.798   2.825  31.859  0.1419 -0.0974  0.4859
21572W        W25972  15.322   2.289  24.039 -0.0214 -0.1479  0.0379
21573W        W25973   4.778   2.316  11.587  0.0818  0.1571  0.2869
21574W        W25974   8.672   6.646  27.397 -0.2137  0.3703  0.0893
21575W        W25975   7.355   3.812  17.302 -0.3084  0.3561 -0.0645
21576W        W25976   7.136   6.626  25.692 -0.2392 -0.0960 -0.1134
21577W        W25977   1.264   4.510   3.742  0.1916  0.1057  0.0292
21578W        W25978   0.626   5.146  24.704  0.1552 -0.1620  0.1135
21579W        W25979  16.980   2.619  20.985 -0.1510 -0.2984  0.1150
21580W        W25980   9.758   5.155  30.370 -0.0070 -0.4058  0.0426
21581W        W25981   4.721   7.531  26.830  0.3678  0.1141  0.0818
21582W        W25982  10.625   6.670  23.223  0.2789  0.3426 -0.0176
21583W        W25983  17.443   3.528   8.357  0.1141 -0.0085 -0.0519
21584W        W25984  20.838   4.975  22.394 -0.3722 -0.0803  0.0478
21585W        W25985  21.113   4.288  19.453 -0.1914 -0.1218 -0.0116
21586W        W25986   7.151   5.090   6.155  0.1199  0.2638  0.0302
21587W        W25987  10.380   6.482   2.769  0.1422 -0.0437  0.0089
21588W        W25988  20.075   4.586  19.047 -0.1107 -0.5876 -0.0118
21589W        W25989  13.166   2.497   9.570 -0.1389 -0.1710  0.0529
21590W        W25990   3.710   4.072   9.093  0.2738  0.5448 -0.2451
21591W        W25991  19.785   6.578   0.929  0.1440  0.0488 -0.1735
21592W        W25992  12.072   1.497  17.234  0.0778 -0.0800  0.2360
21593W        W25993  16.841   4.057  24.193 -0.2781 -0.2197  0.1923
21594W        W25994   7.090   7.384  12.000  0.1051 -0.1415  0.1784
21595W        W25995  13.746   3.336   3.900  0.3605  0.1466  0.3376
21596W        W25996   7.460   1.268  28.029  0.1656  0.1406 -0.1539
21597W        W25997  15.748   0.930   1.799  0.1567  0.0251 -0.1722
21598W        W25998   9.106   7.697  17.648  0.1239  0.1495 -0.1605
21599W        W25999  21.722   3.067  24.934 -0.1145  0.0811  0.1313
21600W        W26000  20.171   7.122  25.910 -0.0571 -0.1567 -0.1948
21601W        W26001  22.659   2.385  15.176  0.2916 -0.2359  0.0223
21602W        W26002  22.481   7.566  23.886  0.0840  0.0873 -0.0019
21603W        W26003   5.171   0.404  14.122 -0.0306 -0.0193 -0.0312
21604W        W26004   9.266   1.850  22.745  0.0936 -0.0201  0.1152
21605W        W26005   0.565   5.140  23.120 -0.6798 -0.1889  0.0135
21606W        W26006  15.217   0.041  22.404 -0.1880  0.3176 -0.0736
21607W        W26007  14.723   5.647  27.362 -0.0417 -0.3771  0.2315
21608W        W26008  14.312   0.621  24.802 -0.0165 -0.1486 -0.0550
21609W        W26009  14.868   7.055   0.764 -0.0391  0.0929 -0.1965
21610W        W26010   1.861   4.176   1.015  0.0637  0.2901 -0.1175
21611W        W26011   8.019   2.401  13.222  0.2447  0.0204  0.1679
21612W        W26012  19.093   7.399  21.612  0.0602 -0.0747  0.0978
21613W        W26013   9.338   0.151   0.425  0.1079 -0.1929  0.0888
21614W        W26014   2.037   0.046   4.728  0.2997 -0.2140 -0.0755
21615W        W26015   7.222   7.189  22.852 -0.1468  0.1531 -0.1045
21616W        W26016   2.361   1.266  21.942 -0.3172  0.1125 -0.1281
21617W        W26017  11.703   1.162  13.173 -0.0841  0.1582 -0.2971
21618W        W26018  11.039   6.638  10.952 -0.1709  0.0526  0.3925
21619W        W26019  23.860   5.586   8.831  0.0553 -0.0503  0.0380
21620W        W26020   1.163   1.725  28.937 -0.1754  0.0354  0.0389
21621W        W26021  21.881   4.991  17.563  0.2694  0.1825  0.1961
21622W        W26022  23.146   5.945  19.623 -0.4364  0.1509  0.1009
21623W        W26023  18.390   4.048  30.214 -0.3139  0.1014  0.1145
21624W        W26024  23.956   0.172  18.011  0.1747 -0.0553 -0.1629
21625W        W26025  18.812   0.461  29.395 -0.4599  0.2652 -0.1318
21626W        W26026  24.875   4.833   9.033 -0.3430 -0.0639 -0.1048
21627W        W26027  23.128   4.799  30.116  0.1134  0.3517 -0.1955
21628W        W26028  15.345   6.062   1.314 -0.0567  0.0393 -0.1361
21629W        W26029  12.254   4.998  14.225  0.2651  0.3311 -0.0239
21630W        W26030  24.489   2.504  25.379  0.0607  0.2825  0.3901
21631W        W26031   6.860   3.832  22.445  0.2819 -0.0667  0.1331
21632W        W26032   8.588   5.455  22.608 -0.0485 -0.1932  0.1423
21633W        W26033   8.377   5.890  24.762 -0.3173  0.0425  0.1939
21634W        W26034  16.283   2.561   3.656  0.0512  0.0572  0.2965
21635W        W26035   2.904   5.130  27.842 -0.2585  0.0290  0.0644
21636W        W26036   8.111   0.802  25.457 -0.2100 -0.0068  0.1034
21637W        W26037  16.458   2.982  28.506  0.0553  0.1496 -0.1839
21638W        W26038  10.929   4.800   9.678 -0.0987 -0.2940  0.0919
21639W        W26039  21.692   5.393  23.616  0.3236 -0.2058 -0.1417
21640W        W26040  13.678   0.076  28.697  0.0722  0.0402  0.1835
21641W        W26041  18.202   6.493  17.065  0.0986 -0.0261  0.0434
21642W        W26042  18.335   0.110   0.528 -0.0264 -0.1636 -0.1613
21643W        W26043   2.414   5.096  29.472  0.2034  0.2466  0.4774
21644W        W26044   2.601   3.728  23.734  0.2412  0.1717 -0.2896
21645W        W26045  11.713   3.212  11.911 -0.1681  0.0833  0.0227
21646W        W26046   4.121   0.804  30.109 -0.2661  0.2921 -0.1555
21647W        W26047  24.411   0.932   1.988  0.3331  0.0331  0.3933
21648W        W26048  10.548   5.357  16.464 -0.3891  0.0302 -0.0135
21649W        W26049  10.139   3.415  11.712 -0.0345 -0.1843 -0.2472
21650W        W26050  24.137   6.104  27.863  0.0543 -0.0925  0.1517
21651W        W26051  17.050   0.734  20.671  0.1461  0.1780 -0.1096
21652W        W26052   7.744   4.568  10.742 -0.3083 -0.1910  0.2360
21653W        W26053   1.761   3.579  32.302  0.0780  0.0849 -0.0899
21654W        W26054   1.751   1.828  31.964 -0.1205  0.0788 -0.0627
21655W        W26055  20.526   3.338  22.039  0.0644  0.3956  0.0334
21656W        W26056   3.523   1.278  24.736  0.0829  0.0959 -0.0930
21657W        W26057   9.754   7.644  10.574  0.1579  0.1775 -0.0820
21658W        W26058   2.916   6.545  28.934 -0.0181 -0.1043 -0.0804
21659W        W26059   5.981   5.074  10.072 -0.0451 -0.3287  0.1390
21660W        W26060  24.127   6.640   9.080  0.1831  0.2032 -0.1226
21661W        W26061  20.135   2.609  16.857 -0.1619  0.0795 -0.1870
21662W        W26062  19.842   2.574  15.493  0.2040 -0.1055  0.0233
21663W        W26063  24.047   3.763  31.529  0.1167 -0.2180 -0.0486
21664W        W26064   7.482   7.569  29.240  0.2333  0.0496  0.1033
21665W        W26065  15.169   1.159  26.315 -0.2435 -0.0248  0.1191
21666W        W26066   8.196   2.958  23.126  0.2557 -0.0106  0.2143
21667W        W26067  17.952   7.772  21.461 -0.0305  0.0865 -0.1987
21668W        W26068   7.678   2.688  23.251  0.0073 -0.1997 -0.1106
21669W        W26069   8.907   1.490  29.447 -0.0766  0.0611 -0.3757
21670W        W26070  12.538   0.109  10.800  0.0710 -0.1222  0.2004
21671W        W26071  12.736   6.044   2.067  0.0491  0.1029 -0.4731
21672W        W26072  23.135   5.811   3.788 -0.0310  0.0036  0.0217
21673W        W26073  21.533   0.101  21.980  0.2142  0.0382 -0.0967
21674W        W26074   7.753   5.305  27.705 -0.1002 -0.1693  0.3389
21675W        W26075  23.880   0.068  30.916  0.0630  0.0753 -0.1429
21676W        W26076  17.815   0.396   3.134  0.3290 -0.0750 -0.1144
21677W        W26077   6.657   6.172  31.492  0.3730  0.0930  0.0100
21678W        W26078   3.504   0.061  12.409  0.3453  0.2096  0.0267
21679W        W26079   5.836   0.356   9.212  0.1360  0.2320 -0.2005
21680W        W26080  12.558   5.960   5.910 -0.1105  0.0489 -0.0163
21681W        W26081  22.856   1.765   8.207  0.0392 -0.2926  0.2910
21682W        W26082  15.712   1.187   4.984 -0.2287  0.2314 -0.2237
21683W        W26083  16.950   2.686  11.002 -0.0677  0.0505 -0.0022
21684W        W26084  20.717   3.491   0.084 -0.2632 -0.1461  0.1558
21685W        W26085  16.553   6.785  16.809  0.1232  0.0762 -0.1807
21686W        W26086  12.037   1.037   9.301  0.2326  0.2414 -0.0530
21687W        W26087  18.916   2.217   6.879  0.1911  0.1531 -0.0077
21688W        W26088   9.321   3.342   1.526  0.0157 -0.0339  0.0989
21689W        W26089  24.614   6.362  28.313  0.1614  0.0094  0.0247
21690W        W26090   0.057   2.774  23.841  0.1570  0.2331  0.1163
21691W        W26091   7.779   1.727  26.471  0.1302 -0.0366 -0.0070
21692W        W26092   8.542   2.065  10.862  0.1922 -0.0364 -0.0264
21693W        W26093  19.772   1.744   3.982  0.1905  0.0215 -0.0616
21694W        W26094   3.062   7.807  29.318  0.1869 -0.0285  0.0702
21695W        W26095  11.167   1.367   2.935 -0.0287 -0.0595  0.1473
21696W        W26096   7.959   0.271  23.891  0.0940 -0.0584  0.3433
21697W        W26097  20.395   2.166  18.430  0.1016  0.0678 -0.0116
21698W        W26098  13.135   6.202   7.477  0.3675 -0.1051  0.2061
21699W        W26099   1.909   7.210   2.864 -0.0447  0.0397 -0.1712
21700W        W26100  24.831   1.561  25.496 -0.1117 -0.1200  0.0340
21701W        W26101   9.154   0.612  17.513 -0.2004 -0.0337 -0.0872
21702W        W26102   8.881   1.670  15.274  0.2365  0.0388 -0.0103
21703W        W26103  13.302   1.259  29.923  0.0507  0.2981  0.0556
21704W        W26104   6.415   4.697  22.685  0.1070 -0.0133 -0.1002
21705W        W26105  19.716   0.402  21.303 -0.3385  0.1108  0.0324
21706W        W26106  23.181   7.028   9.058 -0.1126 -0.2003 -0.0558
21707W        W26107  24.328   2.215   6.814  0.0255  0.1724  0.1324
21708W        W26108  10.365   0.366  12.472  0.0604  0.1997  0.0845
21709W        W26109   1.885   7.017   1.304  0.0616 -0.0234 -0.0637
21710W        W26110  10.402   6.985   8.881  0.4079 -0.3165 -0.0346
21711W        W26111   9.718   1.981  17.657 -0.2752  0.0376 -0.0899
21712W        W26112  15.908   3.477   1.604 -0.2475 -0.0719  0.0221
21713W        W26113   8.036   2.018  25.676  0.1460  0.1739  0.0131
21714W        W26114   7.870   1.686  17.206  0.3712 -0.2840 -0.1984
21715W        W26115  15.737   4.704  28.716 -0.0313  0.2951  0.1261
21716W        W26116   0.926   6.177   6.117  0.4995  0.1198  0.2782
21717W        W26117   9.978   4.840  27.637 -0.0035  0.1093 -0.0153
21718W        W26118   8.531   7.293   8.660 -0.3731  0.0597  0.0889
21719W        W26119  17.156   1.227  28.443 -0.0384  0.0841 -0.1070
21720W        W26120   5.160   5.901   0.513  0.3280  0.0431 -0.2019
21721W        W26121  20.148   4.572  15.891  0.0254 -0.3382 -0.1948
21722W        W26122  18.963   4.682   2.717  0.0209 -0.3104 -0.0152
21723W        W26123  12.774   5.429  10.223 -0.1910  0.0437 -0.2775
21724W        W26124  10.827   0.809   0.843  0.1801 -0.1905  0.0146
21725W        W26125  15.602   2.950  27.403  0.0112 -0.0135 -0.1288
21726W        W26126  18.889   0.364  24.508  0.4144 -0.2403 -0.0189
21727W        W26127   3.125   7.400  30.532 -0.3718 -0.2937  0.1597
21728W        W26128   0.184   6.182   2.291  0.1429  0.2875 -0.2052
21729W        W26129  20.104   6.850   5.174 -0.1488  0.1667  0.0039
21730W        W26130  18.748   2.448  31.512  0.2275 -0.0319  0.1055
21731W        W26131   4.030   7.762   2.340  0.0192  0.0904 -0.2694
21732W        W26132   1.166   2.081   4.265 -0.0255  0.0287 -0.1688
21733W        W26133   0.719   0.525  18.646  0.2072 -0.1557  0.2812
21734W        W26134  14.770   4.761  23.606 -0.0054 -0.0338 -0.0242
21735W        W26135   4.585   5.786   3.421  0.1917  0.1676 -0.2653
21736W        W26136   4.093   2.480   9.328  0.2064 -0.1233  0.5416
21737W        W26137  18.680   5.741  28.034  0.1078 -0.0900 -0.3281
21738W        W26138  12.321   6.081  10.933  0.2477 -0.1825  0.1369
21739W        W26139  23.565   3.824  24.412 -0.0648 -0.3137  0.1609
21740W        W26140  19.304   5.326  15.221 -0.2112 -0.0552 -0.0293
21741W        W26141  21.148   2.760  16.957 -0.1246 -0.1702 -0.1033
21742W        W26142  25.011   4.881  31.733  0.2497 -0.2163 -0.1396
21743W        W26143   6.323   3.647  17.512  0.1934  0.0580  0.1200
21744W        W26144  13.259   5.346   9.187  0.0425  0.1760  0.0830
21745W        W26145  12.503   5.377   0.420 -0.0593  0.1030  0.2059
21746W        W26146  17.583   5.132   6.719 -0.4965  0.1806 -0.0285
21747W        W26147  23.429   7.167   1.988  0.0274 -0.4555 -0.3484
21748W        W26148  10.802   1.360   3.304  0.3140 -0.1210  0.0885
21749W        W26149   5.266   2.251  28.082 -0.1196  0.1240  0.2964
21750W        W26150   2.727   0.376  31.371  0.2396  0.1354 -0.1525
21751W        W26151   3.605   6.452   8.721  0.0770  0.1788 -0.1064
21752W        W26152  16.692   6.855  26.448 -0.1081  0.0134 -0.0807
21753W        W26153  13.113   5.894  25.811  0.0595  0.0425 -0.2018
21754W        W26154  19.024   6.261  25.453  0.1383  0.0576  0.3999
21755W        W26155   2.416   0.947   7.748 -0.1357 -0.3617 -0.2912
21756W        W26156  11.184   6.034  21.498  0.2920  0.0360 -0.0926
21757W        W26157   7.644   4.736  28.014 -0.0980 -0.2551 -0.0971
21758W        W26158  24.237   3.977  28.785  0.0942  0.0352  0.1717
21759W        W26159   2.962   7.467  31.614 -0.0408 -0.0115 -0.0624
21760W        W26160  21.145   6.951   8.343  0.2016 -0.1637  0.0483
21761W        W26161   3.503   6.653  24.163 -0.0354  0.1945 -0.2427
21762W        W26162  21.581   6.489   1.705  0.1422 -0.0694  0.0777
21763W        W26163   9.648   6.756   6.983 -0.1522 -0.0443  0.0416
21764W        W26164  18.896   2.899   4.141 -0.0913  0.0070  0.0551
21765W        W26165  19.101   0.251   9.191 -0.2288 -0.1034 -0.2206
21766W        W26166  20.757   6.635  27.441  0.1623  0.1229 -0.1389
21767W        W26167  24.877   3.639   7.846 -0.1562 -0.2953 -0.1451
21768W        W26168   6.490   1.572  10.848  0.0442  0.0678 -0.1192
21769W        W26169  14.594   6.486  23.334 -0.0339  0.0842 -0.1147
21770W        W26170  12.138   2.393   4.913  0.0600  0.0343  0.3231
21771W        W26171  19.935   3.105  21.349 -0.1052 -0.2561  0.0860
21772W        W26172   5.055   7.563  25.006 -0.2748  0.2159  0.2006
21773W        W26173  10.195   4.394  28.906  0.0979 -0.2921 -0.1266
21774W        W26174  24.148   5.990  19.857  0.0631  0.2578 -0.1381
21775W        W26175  14.027   6.004   5.993 -0.1926  0.2902  0.0124
21776W        W26176  13.076   2.265  23.582  0.1149  0.0038 -0.0960
21777W        W26177   6.425   1.531   9.277  0.2076  0.0406  0.0755
21778W        W26178  12.401   2.997  15.631  0.0761 -0.3870 -0.3063
21779W        W26179   0.230   3.262   2.686 -0.3603  0.0093  0.3665
21780W        W26180   5.588   6.321  27.329 -0.2067  0.0734 -0.1245
21781W        W26181   5.037   4.575   5.104 -0.1272  0.2076 -0.2356
21782W        W26182  17.935   7.259  26.291 -0.0075 -0.0893  0.0196
21783W        W26183   3.997   3.699   4.675 -0.0854 -0.0782  0.0246
21784W        W26184   1.999   1.779  24.336  0.1053  0.0815  0.0680
21785W        W26185  10.772   6.348  15.195  0.2294 -0.1625  0.1272
21786W        W26186  11.952   4.661  10.219 -0.1706  0.0215  0.2119
21787W        W26187   7.438   5.014  25.343  0.0473  0.3734 -0.0398
21788W        W26188   7.089   3.939   1.566 -0.2194 -0.0649  0.2708
21789W        W26189   5.728   2.856   8.907 -0.0315  0.0562  0.2569
21790W        W26190  19.125   1.042  29.912 -0.0292 -0.0952  0.1263
21791W        W26191  19.473   3.010  23.612  0.2587  0.2061 -0.2686
21792W        W26192  10.986   7.261   3.279  0.1676 -0.0837  0.0751
21793W        W26193   6.351   0.630   1.610 -0.2525  0.2378 -0.0155
21794W        W26194  10.663   0.500   0.519 -0.2801 -0.0673  0.4133
21795W        W26195  13.275   7.611   9.636 -0.0921  0.4265  0.0968
21796W        W26196  17.700   1.723  10.670  0.1714 -0.0120  0.2678
21797W        W26197   7.398   3.032   3.252 -0.0727 -0.0428  0.0145
21798W        W26198   2.772   6.637   8.055 -0.3776  0.1278 -0.0699
21799W        W26199  17.996   6.909   7.921 -0.0588  0.2235 -0.0647
21800W        W26200   6.472   0.664  16.418  0.2817 -0.1230 -0.1502
21801W        W26201  18.638   2.249  22.055  0.2957  0.0827 -0.0563
21802W        W26202   6.585   0.040  30.948  0.0159  0.1416 -0.0301
21803W        W26203   5.163   1.140   8.489 -0.0532  0.1538 -0.2069
21804W        W26204  17.212   4.000  32.616  0.1052  0.0003  0.0035
21805W        W26205  24.281   5.831  24.681 -0.1466 -0.0646  0.0798
21806W        W26206   3.485   4.219  25.391 -0.2456  0.0958 -0.0745
21807W        W26207   1.055   7.432  18.491 -0.0177  0.3394  0.2617
21808W        W26208   5.465   0.868   1.448  0.1612 -0.1792 -0.1602
21809W        W26209  16.419   2.060  29.794 -0.2124 -0.2354  0.1532
21810W        W26210  12.173   6.876   6.382 -0.1234  0.0214  0.3734
21811W        W26211  22.618   5.094  22.820  0.1024  0.1391 -0.0837
21812W        W26212   5.241   1.049  24.631  0.2501 -0.0618 -0.4013
21813W        W26213   5.373   6.924  14.594 -0.0143 -0.1035 -0.3621
21814W        W26214  11.910   6.179   2.760 -0.0207  0.3374  0.2039
21815W        W26215  24.222   4.219  31.527 -0.3924  0.0964  0.1471
21816W        W26216  13.008   5.528  31.500  0.1706 -0.0053 -0.2023
21817W        W26217  10.130   1.404  10.531  0.3219  0.0643 -0.0161
21818W        W26218  17.291   4.974  21.268  0.2252 -0.0139  0.2058
21819W        W26219   0.255   2.037   8.936 -0.0439  0.0023  0.1505
21820W        W26220  24.821   3.713  25.958 -0.0484  0.0106 -0.0071
21821W        W26221  19.319   3.268  20.718 -0.1473  0.1614 -0.1112
21822W        W26222  15.990   7.811  32.135  0.1841 -0.3125 -0.2676
21823W        W26223   3.924   2.619  25.679  0.1965  0.1525 -0.2452
21824W        W26224   2.615   4.641   7.171 -0.4306  0.0428 -0.2527
21825W        W26225  18.374   5.282  24.797 -0.0513 -0.1100  0.1420
21826W        W26226   5.020   2.428  23.456 -0.1657  0.3419  0.0768
21827W        W26227   8.660   5.256   2.403 -0.0882  0.0940 -0.1817
21828W        W26228   0.320   1.184   1.492  0.1172 -0.2503 -0.0465
21829W        W26229  23.293   5.505  32.696  0.1599  0.2594 -0.0094
21830W        W26230  16.883   3.290  30.737  0.0547 -0.1165  0.0108
21831W        W26231  23.918   6.906   0.071 -0.1943  0.0735 -0.1404
21832W        W26232  15.135   6.435   6.969  0.0660  0.0682 -0.0853
21833W        W26233  16.949   4.309  22.464  0.2756  0.0100 -0.0598
21834W        W26234   4.816   5.907  14.371 -0.0758 -0.0167  0.0051
21835W        W26235   1.832   4.079  23.702  0.1488 -0.0178 -0.0965
21836W        W26236   6.632   7.246   1.612 -0.2309  0.0238  0.0332
21837W        W26237  23.840   3.402  19.992 -0.0979 -0.0675  0.0538
21838W        W26238   3.774   3.139   5.456  0.2836  0.0315 -0.2291
21839W        W26239  24.064   6.262   9.404  0.0551 -0.0409 -0.3533
21840W        W26240   8.282   7.624  24.364  0.0456  0.4276 -0.0396
21841W        W26241  21.315   1.599  29.941  0.1284  0.0848  0.0412
21842W        W26242  13.507   4.794  28.330  0.0732 -0.0515 -0.0785
21843W        W26243   9.623   6.295  10.731  0.3098  0.0262  0.0626
21844W        W26244  21.073   5.955  25.947  0.3987  0.0145 -0.0529
21845W        W26245  13.981   1.993   2.170  0.1505  0.0545 -0.0633
21846W        W26246   1.585   4.569  30.159  0.0544  0.0699 -0.0136
21847W        W26247  14.889   2.510  11.755  0.0374  0.3008 -0.1204
21848W        W26248   0.742   1.283  16.446  0.0076  0.2978 -0.0416
21849W        W26249   7.111   6.468  27.811  0.1769  0.3865  0.0481
21850W        W26250   3.272   5.891  21.470  0.3158  0.0640  0.0932
21851W        W26251  24.795   6.151   6.262  0.0847 -0.1852 -0.2498
21852W        W26252   5.863   3.464   4.733  0.0685 -0.1304  0.0479
21853W        W26253  13.647   4.417   2.267  0.1440 -0.3917  0.2026
21854W        W26254   5.976   3.613  23.223 -0.0225 -0.1542 -0.0570
21855W        W26255   4.964   3.673  14.429  0.0199  0.1864  0.0533
21856W        W26256   3.911   0.709   9.076 -0.3701 -0.2628  0.0373
21857W        W26257   9.080   0.743  25.369 -0.2105 -0.3654  0.0783
21858W        W26258  11.155   5.594  13.400 -0.1573  0.3169 -0.1917
21859W        W26259  16.146   6.099  21.373  0.0793 -0.0207  0.1363
21860W        W26260  13.535   6.067   7.748 -0.0928 -0.0155  0.4388
21861W        W26261  11.702   4.056  28.714  0.1147 -0.0148  0.0708
21862W        W26262   9.584   6.128   5.756  0.1875 -0.1534  0.2171
21863W        W26263  21.764   5.094  23.174 -0.2163  0.0778 -0.0537
21864W        W26264  22.503   6.642  32.628 -0.0500 -0.3879 -0.1843
21865W        W26265   3.850   6.322  23.180 -0.2314 -0.0030 -0.2450
21866W        W26266  17.836   6.845   2.927 -0.2054  0.0976  0.0834
21867W        W26267  14.215   0.659  28.002  0.0885  0.2827 -0.2431
21868W        W26268  13.275   4.344  32.507  0.0037 -0.1889 -0.3433
21869W        W26269  16.506   2.521  31.565 -0.0237  0.1570 -0.1092
21870W        W26270  18.836   4.812  19.157 -0.0647  0.2003 -0.0319
21871W        W26271   3.991   5.924  25.114 -0.0304 -0.0574 -0.1461
21872W        W26272  14.984   6.473  26.378  0.1207  0.1570  0.2023
21873W        W26273   7.625   4.891  14.474  0.0797  0.3082 -0.1472
21874W        W26274  10.146   3.871  14.531  0.1080 -0.0069 -0.2496
21875W        W26275   9.107   5.024   2.213 -0.0605  0.1962 -0.0153
21876W        W26276  16.274   0.640  24.311 -0.3662  0.0831  0.0208
21877W        W26277  13.683   0.430   0.218  0.2334  0.4866 -0.1837
21878W        W26278   1.985   5.398   1.471 -0.0154  0.1307  0.0393
21879W        W26279   9.180   4.869  14.684  0.1683 -0.1228 -0.0089
21880W        W26280  23.278   3.026   3.935 -0.1697 -0.2512  0.1626
21881W        W26281  12.495   2.596   8.647  0.0162  0.0910  0.0486
21882W        W26282  13.337   3.235   4.683  0.0638 -0.0691 -0.0348
21883W        W26283   1.074   3.370   2.420  0.1586  0.0028  0.1684
21884W        W26284   8.961   2.885  24.071 -0.1353  0.0216 -0.1492
21885W        W26285   9.474   5.022  11.571  0.0052  0.0071  0.2379
21886W        W26286  10.575   3.837  26.027  0.5398 -0.1845 -0.1548
21887W        W26287  16.602   2.100  11.868 -0.0669 -0.2328  0.0656
21888W        W26288  17.407   3.791   8.786 -0.0541 -0.1988  0.0513
21889W        W26289  20.381   2.180   6.359  0.1647  0.3072 -0.0744
21890W        W26290  11.047   5.782  26.864  0.0145 -0.0802  0.2835
21891W        W26291  24.747   6.245  22.869 -0.4976 -0.0041 -0.0411
21892W        W26292   9.358   0.434   6.128  0.0989  0.2815 -0.2017
21893W        W26293  24.185   1.574   4.952  0.0942 -0.3288 -0.1524
21894W        W26294  22.926   3.111  31.615 -0.0492 -0.2035 -0.0892
21895W        W26295   2.939   6.030   6.610 -0.1731  0.1269 -0.0899
21896W        W26296  16.282   1.659  11.865 -0.1268 -0.0626  0.0779
21897W        W26297   0.887   5.703  30.518 -0.3708 -0.0553 -0.1310
21898W        W26298   9.612   5.982   6.967  0.0062 -0.2635 -0.0261
21899W        W26299  20.133   3.353  16.086  0.0413 -0.0390 -0.1355
21900W        W26300  19.732   6.879  28.956 -0.0998 -0.1865 -0.0241
21901W        W26301  19.269   7.038  28.261  0.2457 -0.1097 -0.0039
21902W        W26302   2.170   0.539  10.102  0.4374  0.1418  0.1164
21903W        W26303  12.791   0.403  13.034 -0.2044 -0.0933 -0.3027
21904W        W26304   4.771   7.710   2.817 -0.1028 -0.1128  0.2270
21905W        W26305  13.009   3.770  26.756 -0.1635 -0.2524  0.1956
21906W        W26306  13.642   0.919   1.027  0.0560 -0.1543  0.0226
21907W        W26307  16.425   4.628  25.980  0.2193 -0.2033 -0.0135
21908W        W26308   5.477   2.502  27.696  0.2195  0.1015 -0.0220
21909W        W26309   9.279   5.470  14.540 -0.0810  0.0716 -0.0661
21910W        W26310  11.994   4.097  28.232 -0.2322 -0.1745 -0.0353
21911W        W26311  23.071   0.402  16.807 -0.0412  0.0337  0.2469
21912W        W26312  22.622   3.943  25.570  0.0282 -0.0469  0.0291
21913W        W26313   8.555   2.404  27.438 -0.0137 -0.2269  0.0755
21914W        W26314   4.787   1.469   8.473  0.0098  0.1408  0.2835
21915W        W26315   5.247   0.933   0.639  0.1391 -0.1583 -0.0372
21916W        W26316   1.128   3.849   6.739 -0.0879  0.3070  0.3089
21917W        W26317  13.131   4.386  14.057 -0.1013  0.0517  0.0901
21918W        W26318  15.295   3.700   2.792  0.4650 -0.1141  0.0069
21919W        W26319  14.782   6.273  21.824 -0.2280 -0.2359  0.0663
21920W        W26320  10.346   7.387  13.135 -0.0789 -0.1146 -0.0742
21921W        W26321  15.413   6.450  23.366 -0.0439 -0.0220  0.1324
21922W        W26322   4.506   0.595  30.309 -0.2766 -0.2837 -0.1396
21923W        W26323  20.145   3.474   2.971  0.1508  0.0422  0.0404
21924W        W26324  13.957   4.584  21.077  0.0819  0.0332 -0.3248
21925W        W26325  23.783   5.467   5.512 -0.1057 -0.1353 -0.0658
21926W        W26326  10.795   3.051   7.417 -0.0962 -0.0181  0.0231
21927W        W26327  10.500   2.765   2.284 -0.0018  0.1928  0.0809
21928W        W26328   2.969   4.774  10.598  0.4290  0.0276  0.0840
21929W        W26329   8.550   5.292  18.348  0.1052 -0.0943 -0.1341
21930W        W26330  11.014   7.756  32.377 -0.0526  0.0133 -0.0824
21931W        W26331   4.360   1.684  13.780  0.2086  0.2262  0.3456
21932W        W26332  14.757   3.128  30.373  0.0693  0.0559  0.1169
21933W        W26333   9.813   5.281  25.962 -0.1767 -0.2588  0.1167
21934W        W26334   3.258   7.617   2.950  0.2767  0.1688  0.0766
21935W        W26335  18.534   2.433   8.271  0.1043 -0.0212 -0.3054
21936W        W26336  24.337   3.601  17.231 -0.0651  0.1090  0.3677
21937W        W26337   0.172   6.704   8.645  0.3991  0.1505 -0.0177
21938W        W26338   7.116   3.235   0.368 -0.1949  0.1388  0.0118
21939W        W26339  15.867   1.789   0.428 -0.2189 -0.1296 -0.1774
21940W        W26340  11.850   3.371  27.758 -0.0362  0.2910 -0.1158
21941W        W26341   7.519   6.647   6.585 -0.1232  0.0579 -0.1368
21942W        W26342  11.028   6.914  24.838  0.2296  0.4532 -0.0208
21943W        W26343   1.959   5.247   0.995  0.2969 -0.0286 -0.2227
21944W        W26344   0.995   1.179  31.840  0.2558  0.1594  0.1146
21945W        W26345  18.165   5.250  22.175  0.1267 -0.2299  0.0961
21946W        W26346  21.958   1.987   5.551 -0.2124  0.0805  0.0793
21947W        W26347  16.483   1.999   5.559 -0.1198 -0.1857 -0.0372
21948W        W26348  19.679   0.561   7.838 -0.0984 -0.0079  0.1241
21949W        W26349  10.072   4.722  17.393 -0.2049 -0.0359 -0.1975
21950W        W26350  24.981   6.194  27.877 -0.0581  0.2649  0.1508
21951W        W26351  21.202   5.618  31.699  0.1581 -0.0626  0.1683
21952W        W26352  20.729   4.319   7.718 -0.0642 -0.2209  0.1121
21953W        W26353   2.269   1.725  23.473 -0.4823  0.1203 -0.0663
21954W        W26354  20.073   0.744  23.388 -0.1542 -0.2395  0.2955
21955W        W26355   2.128   1.287  23.107 -0.0060  0.0165  0.2683
21956W        W26356   7.135   2.589  10.014 -0.0281 -0.1006 -0.2383
21957W        W26357  11.551   4.384  23.905 -0.0354 -0.0690 -0.1708
21958W        W26358   1.710   6.522  19.299 -0.0580 -0.3329 -0.0070
21959W        W26359   3.635   4.558  25.919 -0.0366 -0.0328  0.3172
21960W        W26360  21.281   2.269  29.136  0.1727 -0.1712  0.2123
21961W        W26361   1.297   4.904   6.040  0.2583  0.0211  0.1059
21962W        W26362   9.893   3.346  15.306  0.3946 -0.5619  0.2237
21963W        W26363  20.674   2.009  22.464 -0.2403  0.2809  0.2975
21964W        W26364  11.453   5.103  13.074 -0.1989  0.0447  0.1890
21965W        W26365  24.861   5.623   2.755  0.1879  0.0189  0.0418
21966W        W26366  20.085   5.256  25.716 -0.0877  0.0928  0.1669
21967W        W26367  23.681   0.745  20.607  0.3004 -0.0043 -0.1245
21968W        W26368  23.419   0.026  26.348 -0.0656 -0.2647 -0.2811
21969W        W26369  22.866   2.641   0.843  0.0455  0.0653  0.0998
21970W        W26370   7.023   0.256  17.769 -0.0451 -0.3174 -0.1248
21971W        W26371   0.031   2.733  29.495 -0.0015  0.1623  0.1848
21972W        W26372  21.430   3.984   0.893  0.0172  0.1968 -0.0926
21973W        W26373  23.326   5.444  23.127  0.0337  0.2294  0.1316
21974W        W26374  19.205   5.161  24.552  0.2818 -0.2938 -0.3797
21975W        W26375  14.532   2.170   6.289  0.0202 -0.0669  0.0329
21976W        W26376  24.572   4.557  30.665 -0.0958  0.1644 -0.0864
21977W        W26377  19.349   7.181  25.309 -0.2440 -0.1756 -0.0306
21978W        W26378  23.670   3.023  21.132 -0.0255 -0.1191  0.2671
21979W        W26379   9.873   1.672   8.002  0.0102 -0.1190 -0.1728
21980W        W26380   6.301   0.958  25.236 -0.0263 -0.0663  0.1100
21981W        W26381  10.350   1.262   6.912 -0.0657  0.1059 -0.0498
21982W        W26382  21.985   6.015  23.518  0.2882 -0.1150  0.0568
21983W        W26383   9.420   1.976  32.159 -0.3360 -0.0296  0.0086
21984W        W26384   6.042   6.454  22.675 -0.4539 -0.0900 -0.1644
21985W        W26385  14.228   0.640  12.832  0.0255  0.0744  0.2735
21986W        W26386  16.802   5.851  17.776 -0.0476  0.1412  0.1643
21987W        W26387  23.166   5.172   4.293  0.0670  0.1463 -0.0327
21988W        W26388  18.991   0.544  10.550 -0.1067  0.2412  0.1547
21989W        W26389   7.456   2.513  31.468  0.1644  0.0490 -0.0375
21990W        W26390   7.590   6.564  31.069 -0.1255 -0.1869  0.2526
21991W        W26391  24.827   3.311  28.451 -0.1034 -0.0695  0.0454
21992W        W26392  15.398   3.666   2.316 -0.0968  0.0391 -0.4649
21993W        W26393   6.224   1.088  15.242  0.2179  0.0467 -0.0028
21994W        W26394  24.893   2.973  10.735 -0.0037  0.1809  0.3099
21995W        W26395  11.678   4.154   4.598 -0.1535 -0.3154 -0.0692
21996W        W26396   2.522   6.745  30.366 -0.1969  0.0971 -0.1165
21997W        W26397  16.824   3.742   4.191  0.0618 -0.0782 -0.0520
21998W        W26398  13.864   1.292  10.834  0.3155  0.0701  0.2571
21999W        W26399  16.588   7.390  24.560  0.1123 -0.0022  0.3031
22000W        W26400  19.731   7.233   4.103 -0.3300 -0.2407  0.2655
22001W        W26401  21.191   1.947  15.640 -0.1557  0.0022 -0.1267
22002W        W26402  18.191   1.923  28.453  0.1711 -0.0966  0.2381
22003W        W26403  18.621   3.909  32.619 -0.1884  0.0552  0.3381
22004W        W26404  16.638   7.777  17.510 -0.1080  0.0159 -0.0319
22005W        W26405  21.232   2.673  13.976  0.0929 -0.1092  0.1398
22006W        W26406   2.114   7.790  31.713  0.1772  0.0675  0.1296
22007W        W26407  11.182   4.660  23.679 -0.3338  0.0717 -0.0450
22008W        W26408   1.534   3.048  26.160 -0.0138  0.1425 -0.2722
22009W        W26409  21.173   2.454  28.031 -0.0040 -0.2681 -0.4031
22010W        W26410   0.394   7.638   2.370  0.1886  0.1915 -0.1787
22011W        W26411  12.716   5.362  22.174 -0.0388  0.1725  0.1462
22012W        W26412   2.114   2.522  30.356 -0.1097 -0.2530  0.1509
22013W        W26413  17.209   2.921   2.220 -0.0580 -0.1520 -0.2812
22014W        W26414  12.208   5.747   5.467 -0.2481  0.0731  0.1605
22015W        W26415  17.539   5.527   0.538 -0.0804 -0.1271 -0.1054
22016W        W26416  17.724   2.339   4.788 -0.0015 -0.0274  0.2479
22017W        W26417   4.202   1.599  11.804  0.2786 -0.0077 -0.2545
22018W        W26418  10.937   7.775  16.501  0.0640 -0.1759  0.0843
22019W        W26419   9.422   2.168   7.089 -0.3705 -0.0693 -0.0110
22020W        W26420   0.731   6.543  29.524 -0.0855  0.0291  0.1238
22021W        W26421   1.752   0.145  24.786  0.2961  0.1521 -0.0703
22022W        W26422  20.861   0.056  31.844 -0.3513 -0.2280 -0.3229
22023W        W26423  11.703   2.077   5.726  0.0210 -0.3543 -0.0578
22024W        W26424   7.220   6.647  17.734 -0.2279 -0.0108 -0.1204
22025W        W26425   7.988   3.159  12.092 -0.0331  0.0718 -0.2141
22026W        W26426   7.814   6.649  10.283 -0.1377  0.2202 -0.2471
22027W        W26427   4.236   5.114  13.096  0.0194 -0.0458 -0.0075
22028W        W26428  17.754   2.068  29.666  0.4800 -0.4052  0.1294
22029W        W26429   4.030   3.024  23.872 -0.1582 -0.1460 -0.2392
22030W        W26430   0.405   2.559  24.798 -0.2583 -0.1011  0.3421
22031W        W26431  20.945   1.495  27.017  0.2782  0.1190  0.0474
22032W        W26432  14.507   1.592   1.892  0.1563 -0.0152  0.0081
22033W        W26433   1.588   3.056   0.316 -0.1676  0.0231 -0.1932
22034W        W26434  12.398   1.047  27.108 -0.2344 -0.1617 -0.0752
22035W        W26435  21.202   4.233   6.855 -0.1319 -0.3275 -0.0001
22036W        W26436  20.127   4.367  25.344 -0.1307  0.0452  0.1598
22037W        W26437  11.007   0.122   3.165  0.0768 -0.0463 -0.2042
22038W        W26438   4.041   4.510   2.232 -0.0961 -0.1124  0.3205
22039W        W26439  22.149   6.879  31.953  0.0614 -0.2024 -0.0014
22040W        W26440   6.587   2.909  30.533  0.0914  0.3568 -0.5233
22041W        W26441  20.752   5.898   9.186  0.0725 -0.0434  0.0318
22042W        W26442  23.784   7.603  24.941  0.1462  0.1136 -0.1037
22043W        W26443   6.244   1.816  28.859  0.3042 -0.1960 -0.0416
22044W        W26444   8.918   3.270  26.740 -0.0940  0.0669 -0.0150
22045W        W26445   7.365   2.367   3.957  0.0382 -0.1000 -0.2101
22046W        W26446  10.474   1.689  22.766 -0.2291 -0.0056  0.2708
22047W        W26447   4.084   6.650   5.367 -0.0553 -0.1849  0.2246
22048W        W26448   4.281   0.373  31.680 -0.1171 -0.0554 -0.2608
22049W        W26449  13.388   0.016  11.961 -0.2585 -0.3107 -0.0823
22050W        W26450  21.904   2.041   0.577 -0.1577 -0.1332 -0.0309
22051W        W26451  21.801   1.647   7.976  0.0493 -0.1069 -0.1300
22052W        W26452  13.222   0.982  28.645 -0.0382  0.3396  0.0865
22053W        W26453  12.463   2.996   6.712  0.3826 -0.0375  0.1115
22054W        W26454  18.649   2.334   9.241  0.0091 -0.1377 -0.1235
22055W        W26455   1.050   4.016  29.540  0.0962  0.0477 -0.0056
22056W        W26456  21.293   6.880   0.390  0.0210  0.1043 -0.1861
22057W        W26457   4.970   6.312   8.184  0.0682 -0.1130 -0.1990
22058W        W26458  20.602   4.021  22.258 -0.1281 -0.2147 -0.0535
22059W        W26459  22.117   0.463  18.699 -0.1158  0.2803 -0.0687
22060W        W26460  18.567   5.210  21.873  0.1701 -0.2497 -0.2599
22061W        W26461  17.684   3.239  26.124  0.0056  0.3409 -0.1128
22062W        W26462  14.979   3.238  28.509  0.1664 -0.2625  0.0128
22063W        W26463   5.307   2.095   9.947 -0.0279  0.1506  0.2046
22064W        W26464   2.083   0.934  27.359 -0.0800 -0.0841 -0.3242
22065W        W26465  14.903   1.748  29.427  0.1402 -0.0002  0.0569
22066W        W26466   1.307   6.486  27.820  0.1417  0.0285 -0.2105
22067W        W26467   1.809   1.693  10.926  0.0800  0.2638  0.1737
22068W        W26468   6.193   4.172  30.216  0.2734 -0.0503 -0.0306
22069W        W26469  18.445   0.455   5.410 -0.0106  0.0942  0.0303
22070W        W26470  19.972   4.348   6.563  0.1869  0.1037 -0.3026
22071W        W26471   8.709   5.343   8.354  0.1169 -0.1942 -0.1484
22072W        W26472   1.324   6.902  21.607  0.1096 -0.0447 -0.1831
22073W        W26473  23.469   7.570  31.041  0.1252 -0.1363 -0.2100
22074W        W26474  15.931   6.284   0.161  0.1378  0.0597 -0.2726
22075W        W26475   7.312   5.453  24.055  0.1178  0.0723  0.0526
22076W        W26476   3.838   2.007   5.218  0.0904  0.0517  0.0895
22077W        W26477   6.371   3.156  28.960  0.1882  0.0231  0.0992
22078W        W26478   6.288   1.105  15.752 -0.1572  0.0403  0.1895
22079W        W26479  22.740   4.036  16.415 -0.1426  0.0250  0.0637
22080W        W26480  18.954   1.394  22.398  0.0215  0.1201 -0.2250
22081W        W26481  18.154   0.878  19.204  0.2240 -0.1415  0.2029
22082W        W26482   3.646   7.068  24.468 -0.0143  0.1309  0.0283
22083W        W26483   7.312   7.117   7.004  0.2858  0.0598 -0.1432
22084W        W26484  23.830   4.001  15.684 -0.0333  0.1420  0.2267
22085W        W26485   0.266   3.253  29.154 -0.1388  0.1532 -0.1377
22086W        W26486  15.595   7.617  28.681  0.0058  0.2422 -0.2391
22087W        W26487  18.721   4.151  22.235 -0.2541 -0.1565 -0.1323
22088W        W26488  23.827   0.394  21.544  0.2327  0.0841  0.1129
22089W        W26489  22.049   3.234  31.883 -0.4553  0.3158 -0.1592
22090W        W26490  14.684   2.326  28.110  0.0173  0.4048 -0.0201
22091W        W26491  19.175   6.045   7.274  0.2116 -0.1553 -0.3537
22092W        W26492  13.586   7.795  28.210 -0.1511 -0.1659 -0.1730
22093W        W26493   3.063   3.130  31.840  0.0051 -0.0728 -0.2344
22094W        W26494  12.385   3.295  28.443  0.1320 -0.1503 -0.0165
22095W        W26495  12.008   5.039  31.650 -0.3463  0.1003 -0.2425
22096W        W26496   4.568   1.518  32.337 -0.1667 -0.1051 -0.5363
22097W        W26497  12.182   4.527   0.850  0.0188 -0.0546 -0.1328
22098W        W26498   5.615   1.025  25.049  0.0969  0.2986 -0.0031
22099W        W26499  15.620   0.030  20.101 -0.1127 -0.1350 -0.0448
22100W        W26500  10.683   0.030  24.035 -0.1874  0.1144  0.2629
22101W        W26501   5.660   2.751   3.071 -0.1073  0.0088 -0.3271
22102W        W26502   3.286   7.149   3.466  0.0360 -0.2025 -0.1061
22103W        W26503  22.813   5.840  32.491  0.1666 -0.0527  0.2220
22104W        W26504   7.571   6.637  27.665  0.1179  0.2633 -0.1626
22105W        W26505   5.196   7.573   4.611 -0.0745 -0.0318 -0.1330
22106W        W26506   3.802   7.557  28.341 -0.0577  0.0638 -0.0125
22107W        W26507  23.161   5.162  29.230  0.2688  0.1547  0.0303
22108W        W26508  15.577   5.166   2.511 -0.0004 -0.0237  0.0451
22109W        W26509  23.704   2.911  27.127 -0.1096  0.0076  0.0850
22110W        W26510  13.995   4.463   9.649 -0.0334 -0.2956 -0.0847
22111W        W26511  13.136   3.684  21.945  0.0484  0.0079  0.0699
22112W        W26512   2.434   1.254  30.288  0.3496  0.0465 -0.2356
22113W        W26513  14.015   4.878  26.071 -0.1582  0.1081  0.0331
22114W        W26514  13.970   5.151  28.232 -0.1534 -0.3359  0.3257
22115W        W26515  24.061   7.616   0.845  0.1302  0.4414 -0.0665
22116W        W26516  15.191   4.766  32.552 -0.0426  0.1957 -0.0803
22117W        W26517   9.293   1.220  11.894 -0.0426  0.1575 -0.0631
22118W        W26518  17.975   7.381   8.132 -0.0269 -0.0888  0.3661
22119W        W26519   7.104   7.325  15.316  0.1734  0.1996  0.0610
22120W        W26520   2.956   6.147  27.880  0.1644  0.0569  0.0790
22121W        W26521  20.578   1.029  14.572 -0.0848 -0.1977 -0.2841
22122W        W26522  23.895   0.694  18.214  0.1001 -0.2128  0.1181
22123W        W26523   9.749   2.601  28.357 -0.1329  0.0933 -0.1641
22124W        W26524  20.582   6.691  31.937  0.2021  0.1070 -0.2351
22125W        W26525  23.466   2.939  19.281 -0.3022  0.2025  0.1351
22126W        W26526  16.736   3.209  26.903 -0.1233 -0.1022  0.3609
22127W        W26527   6.582   6.335  26.818 -0.0323 -0.2444 -0.1920
22128W        W26528   4.078   5.538  30.715 -0.2403  0.1997 -0.0986
22129W        W26529  13.307   3.702  27.855 -0.0360  0.0314  0.1155
22130W        W26530   7.803   7.728  15.083 -0.1469 -0.2716  0.0910
22131W        W26531  18.977   3.665  20.879 -0.1427 -0.0025 -0.0421
22132W        W26532  14.838   1.649  19.945  0.2941  0.1069  0.1147
22133W        W26533  14.859   5.218   0.472 -0.2505  0.0154  0.1436
22134W        W26534   9.698   1.394   8.345  0.0561 -0.0044 -0.2873
22135W        W26535  10.551   2.223  27.973  0.4360 -0.0063 -0.0645
22136W        W26536  14.482   0.315  13.179  0.0544 -0.0316  0.3716
22137W        W26537   3.299   7.194   7.092  0.2158  0.0870 -0.0409
22138W        W26538   0.934   0.983  30.476  0.1399  0.1506 -0.0650
22139W        W26539   0.035   7.346  16.771 -0.2768 -0.3006 -0.1363
22140W        W26540   1.415   7.061  31.728  0.1000 -0.0072  0.0669
22141W        W26541   3.199   5.941   0.572  0.0635  0.0300  0.0447
22142W        W26542   7.321   2.042  28.984  0.0100  0.1230 -0.3804
22143W        W26543  23.355   3.890   1.403  0.0197  0.0426 -0.0664
22144W        W26544  16.797   5.077  20.483  0.2104 -0.0921  0.5752
22145W        W26545  17.737   4.109  24.942 -0.3982 -0.0598  0.1377
22146W        W26546  10.777   5.298  13.660  0.0080 -0.0760  0.0020
22147W        W26547   6.293   0.541  12.257 -0.1704 -0.1892  0.0158
22148W        W26548   2.350   0.164  30.938 -0.0550 -0.3810 -0.3295
22149W        W26549  19.222   1.078  16.241  0.2914  0.0803  0.0114
22150W        W26550  17.141   7.061   3.979 -0.0778  0.3966  0.1182
22151W        W26551   4.439   3.742   4.976 -0.3037 -0.0071  0.1147
22152W        W26552  10.111   5.168  24.611 -0.0515 -0.1162 -0.0270
22153W        W26553   2.399   7.711  23.268  0.1464 -0.2256 -0.0389
22154W        W26554   6.471   4.899  10.186 -0.1616  0.0545 -0.1254
22155W        W26555  24.812   1.809   5.081  0.3197 -0.4175 -0.1741
22156W        W26556  17.268   5.874   9.489  0.1936  0.1580 -0.2556
22157W        W26557  23.227   2.456  30.280  0.2137 -0.0988  0.0335
22158W        W26558  24.216   2.586  18.640 -0.2022 -0.1198 -0.0571
22159W        W26559   3.717   2.283  24.458  0.0129  0.0894 -0.2893
22160W        W26560  14.016   6.873  13.538  0.0325  0.1001  0.3007
22161W        W26561  12.960   4.789  25.733  0.0025  0.0180  0.2280
22162W        W26562   4.817   2.902  23.437 -0.0599  0.0858 -0.1444
22163W        W26563   1.146   1.297  26.482  0.0189 -0.0424 -0.0485
22164W        W26564  24.293   5.023   5.328 -0.0784 -0.0539 -0.0154
22165W        W26565  23.829   0.823  31.674 -0.0344  0.1121 -0.0894
22166W        W26566  18.236   3.670   3.476  0.0202 -0.2072 -0.0791
22167W        W26567  14.741   0.895  28.248  0.0471 -0.0115 -0.1892
22168W        W26568  10.388   7.235   6.710  0.2644 -0.0710 -0.1127
22169W        W26569   2.348   5.978   8.101  0.1418  0.1308 -0.4089
22170W        W26570  19.909   7.566   9.143  0.0568 -0.1807  0.2694
22171W        W26571  10.206   3.342  28.626 -0.0088  0.0707  0.0813
22172W        W26572  17.325   2.946  21.264 -0.1372  0.0023 -0.0902
22173W        W26573  11.808   1.078   5.299 -0.0476 -0.1951 -0.0371
22174W        W26574  14.402   6.355   5.902  0.0818 -0.1811 -0.0236
22175W        W26575   0.061   5.724   9.343 -0.1300 -0.0061 -0.0777
22176W        W26576  18.274   7.427  23.785 -0.0961  0.1694  0.0928
22177W        W26577  13.811   4.233  23.263  0.0135  0.1522 -0.2322
22178W        W26578  20.231   5.915  17.574  0.1633  0.2254  0.0157
22179W        W26579   5.132   1.135  26.486  0.2175 -0.1976 -0.1990
22180W        W26580   1.450   3.479  25.257 -0.5252  0.1450 -0.2218
22181W        W26581  10.395   0.433  30.105 -0.1055 -0.3093 -0.0812
22182W        W26582  24.152   6.660  21.086  0.1656 -0.0946  0.1265
22183W        W26583  24.525   1.273  22.736  0.0413  0.1098 -0.2409
22184W        W26584   2.055   7.678  22.074  0.0042 -0.0196  0.0166
22185W        W26585  18.228   0.328  25.124  0.0022  0.3199 -0.1144
22186W        W26586   0.553   5.773   7.565  0.1474  0.1551  0.0649
22187W        W26587  22.056   0.451   3.870  0.2041 -0.1767 -0.0717
22188W        W26588  17.140   3.247  17.245  0.3158 -0.1984 -0.3077
22189W        W26589   0.472   6.396  20.861  0.1795 -0.1675  0.2967
22190W        W26590  14.271   1.275  28.499  0.0635  0.2097  0.1148
22191W        W26591   1.041   1.463  10.065  0.2609  0.2312 -0.2087
22192W        W26592  17.875   3.209  26.725  0.0678  0.1986  0.0332
22193W        W26593   5.242   4.179   7.768  0.0003 -0.0795  0.0239
22194W        W26594  11.478   2.567  24.487  0.0576 -0.1403 -0.2748
22195W        W26595   6.307   0.503  23.890 -0.0185  0.2361  0.0153
22196W        W26596   6.935   4.588  12.226  0.0561  0.0018  0.0811
22197W        W26597  22.063   0.868   4.880 -0.0640 -0.1063 -0.1571
22198W        W26598  22.757   3.282   9.988  0.0013 -0.0513  0.0286
22199W        W26599  11.816   6.270  24.860 -0.0362  0.0608  0.0590
22200W        W26600  23.778   5.240  16.105 -0.2434 -0.0576 -0.1874
22201W        W26601  14.919   0.771   5.084 -0.0706  0.0441 -0.0855
22202W        W26602  19.717   7.810   2.471  0.0977  0.2086 -0.0240
22203W        W26603  10.358   2.247   1.074  0.0295  0.0562  0.0477
22204W        W26604  15.160   2.073  10.483  0.3400  0.1463  0.2653
22205W        W26605  16.123   6.603  21.281 -0.2934  0.0708  0.1674
22206W        W26606  19.746   1.575  29.337  0.0543 -0.0602 -0.1970
22207W        W26607  23.737   3.623  30.237 -0.2543  0.0996  0.1641
22208W        W26608  11.322   2.279   1.421 -0.0783  0.0212 -0.0476
22209W        W26609  13.879   3.210   8.685 -0.1904 -0.2123 -0.1134
22210W        W26610  22.273   7.008   5.430 -0.2585  0.0020 -0.0025
22211W        W26611  13.030   6.664  11.660 -0.1268 -0.2563 -0.1343
22212W        W26612  23.487   1.887   3.240  0.1868  0.0457 -0.3474
22213W        W26613  12.692   0.262  22.389 -0.1674 -0.0635 -0.2297
22214W        W26614   0.294   5.280   3.671 -0.1724 -0.3376 -0.0088
22215W        W26615   1.406   4.401   0.071 -0.1144 -0.5771  0.1334
22216W        W26616   2.869   0.156  24.206 -0.2353 -0.1248  0.0533
22217W        W26617   8.257   1.294   7.470 -0.4008 -0.0438  0.0510
22218W        W26618   1.902   0.416  22.046 -0.1123 -0.2533 -0.0280
22219W        W26619  10.958   2.335   6.398  0.1020  0.0799 -0.1752
22220W        W26620  19.494   0.217  15.143 -0.2998 -0.1305  0.0190
22221W        W26621   9.115   1.450  31.015 -0.2536 -0.0471 -0.0560
22222W        W26622  10.021   5.908   3.567  0.0482  0.0658  0.1449
22223W        W26623  20.172   1.125  15.909  0.0156  0.2773 -0.1871
22224W        W26624   8.923   4.319  25.311  0.3842  0.0369  0.1567
22225W        W26625  21.806   6.209   2.520 -0.2349  0.0292 -0.0673
22226W        W26626  17.975   6.332  28.097 -0.2217  0.0433  0.0697
22227W        W26627  10.890   5.048  16.684  0.0860  0.0535 -0.0653
22228W        W26628   9.928   2.628  17.253  0.2435 -0.2303  0.1309
22229W        W26629  14.371   1.085  21.874  0.0091  0.1121 -0.1859
22230W        W26630   3.124   4.919   0.388 -0.1328  0.0541  0.1168
22231W        W26631  22.589   3.587   0.040 -0.1593  0.2008 -0.1638
22232W        W26632   2.480   2.652   6.278  0.0362  0.1317  0.0663
22233W        W26633  14.954   1.486   5.538 -0.1143  0.1963 -0.3230
22234W        W26634   4.973   3.878  21.910 -0.3488  0.0530  0.2421
22235W        W26635  22.316   3.659  30.400 -0.2621 -0.1761  0.0136
22236W        W26636   0.651   7.291  30.695 -0.1455  0.2942 -0.1884
22237W        W26637  18.202   3.192  10.735 -0.0284 -0.1098 -0.1873
22238W        W26638  12.959   7.103  28.492  0.1879  0.0414 -0.0467
22239W        W26639  10.413   6.695   4.390  0.1084 -0.2331  0.0621
22240W        W26640   4.318   5.390  25.112 -0.1532 -0.0015 -0.0961
22241W        W26641  11.923   5.997  32.436 -0.1446 -0.0193  0.5041
22242W        W26642  22.582   6.635  21.421  0.0227 -0.1486 -0.1219
22243W        W26643  10.354   4.460  13.762 -0.0319 -0.0587  0.3157
22244W        W26644  19.586   6.988  16.924 -0.2819  0.0348 -0.1784
22245W        W26645  23.968   2.102   3.292  0.0251  0.2007 -0.0290
22246W        W26646   8.520   2.215  13.155 -0.2028 -0.0419  0.0322
22247W        W26647  14.288   7.222  27.530  0.2435  0.1736  0.1623
22248W        W26648  21.554   7.273  15.015  0.0404 -0.3883 -0.1298
22249W        W26649   6.423   5.698  10.789  0.1438 -0.0279  0.0368
22250W        W26650   4.352   7.574  12.624 -0.2377 -0.1451  0.4275
22251W        W26651  14.956   1.673  26.753 -0.4857  0.0271 -0.0564
22252W        W26652   6.793   0.420  11.841 -0.2103  0.1980  0.2197
22253W        W26653   0.802   5.015   9.962  0.0215 -0.0335 -0.0442
22254W        W26654  21.081   1.941   9.460 -0.1315 -0.2843 -0.0417
22255W        W26655  13.276   4.736  29.400  0.0723  0.2689 -0.2866
22256W        W26656   0.087   3.652  21.411  0.1867 -0.2369 -0.0982
22257W        W26657  17.860   5.588  15.154  0.0924 -0.0274 -0.1716
22258W        W26658   0.619   2.751  25.214 -0.1161 -0.2487  0.4035
22259W        W26659  17.712   1.664   7.006 -0.0428  0.0125 -0.0020
22260W        W26660   3.540   0.516   6.075 -0.0603 -0.0361  0.1283
22261W        W26661  22.505   6.991   4.362  0.3168  0.3577 -0.1803
22262W        W26662  15.276   5.087  25.628  0.2557 -0.1584  0.2177
22263W        W26663  23.115   2.913  19.629  0.0579 -0.3592  0.1207
22264W        W26664  17.051   1.159  21.491  0.0470 -0.2480 -0.2121
22265W        W26665   0.430   4.292  11.028  0.1624 -0.2337 -0.1946
22266W        W26666  23.099   7.329  25.421 -0.0246  0.0301 -0.0890
22267W        W26667  22.462   5.949  30.200 -0.0867  0.1401 -0.0998
22268W        W26668  22.406   2.948  22.877 -0.2243 -0.1756 -0.0983
22269W        W26669  16.469   0.090  22.730 -0.0513  0.0830  0.1181
22270W        W26670  24.173   1.334  30.180  0.0249  0.1154  0.2951
22271W        W26671   1.898   5.068  22.828  0.0459  0.2230 -0.1788
22272W        W26672  23.516   3.776  20.077 -0.1247 -0.0034 -0.0009
22273W        W26673  17.016   5.301   8.905 -0.1256 -0.1541 -0.2349
22274W        W26674  21.108   0.527  23.772  0.0848  0.2543 -0.1784
22275W        W26675  13.051   6.192   8.754 -0.1492 -0.0777  0.0962
22276W        W26676  13.457   5.657   2.497  0.0370 -0.0648 -0.1462
22277W        W26677  19.519   5.974  23.131 -0.0430 -0.0823  0.0341
22278W        W26678  18.669   6.772  19.460 -0.1310  0.2465  0.2109
22279W        W26679   4.923   3.047   9.600 -0.1034 -0.2425 -0.0401
22280W        W26680   7.868   6.929  18.234  0.0331  0.1665  0.4806
22281W        W26681   9.775   4.963  10.358  0.2034 -0.1627  0.0162
22282W        W26682  19.277   7.151  22.012 -0.2112  0.0339  0.0186
22283W        W26683   4.697   5.566  21.870  0.0258 -0.0076 -0.2500
22284W        W26684  11.037   2.871  30.835 -0.0110 -0.0602 -0.0272
22285W        W26685   1.936   3.262   3.102  0.4129 -0.0230  0.2929
22286W        W26686  15.981   1.860  28.391 -0.1441 -0.1900  0.0235
22287W        W26687  16.042   2.769   8.602 -0.0226  0.1208 -0.0372
22288W        W26688  17.674   7.525   9.081  0.0314  0.1471  0.2987
22289W        W26689  19.355   1.625  28.483 -0.0982  0.0334 -0.0903
22290W        W26690  14.979   5.554  20.108 -0.0628 -0.2937  0.1532
22291W        W26691   7.846   0.297  26.792 -0.1014 -0.1123 -0.0835
22292W        W26692   5.999   7.446  27.260  0.0732  0.0305  0.4117
22293W        W26693  11.518   4.412  24.999 -0.0917  0.0532  0.3301
22294W        W26694   8.537   1.857   4.436 -0.1385  0.1496 -0.0400
22295W        W26695  15.899   7.098   7.585  0.2749 -0.2860 -0.0818
22296W        W26696  16.312   0.236  21.265  0.0677  0.1483  0.0396
22297W        W26697   1.310   0.281  30.134  0.2798  0.1133 -0.0358
22298W        W26698   7.174   2.109  31.561 -0.0990  0.1167 -0.0440
22299W        W26699   8.159   7.530  12.378  0.1597  0.0159  0.1138
22300W        W26700  22.574   7.337  31.066 -0.0006  0.3993  0.3771
22301W        W26701  15.167   5.774  22.839 -0.0307 -0.2567 -0.0962
22302W        W26702   0.358   7.116  16.453 -0.4197 -0.2579 -0.1138
22303W        W26703  13.202   5.489   6.692 -0.1303 -0.1716 -0.1217
22304W        W26704  21.591   4.115  27.675 -0.1326  0.1115 -0.1616
22305W        W26705  24.251   2.203   2.262 -0.0298 -0.0183 -0.0730
22306W        W26706   5.617   3.297  10.161 -0.0861  0.2933  0.1145
22307W        W26707  19.461   4.915   3.563  0.0565  0.1937 -0.1684
22308W        W26708  23.434   1.248  19.933  0.0924  0.0618  0.0814
22309W        W26709   2.879   3.245  22.792  0.3111  0.0108 -0.2610
22310W        W26710   4.186   1.581  22.040 -0.1406 -0.1810 -0.0419
22311W        W26711  20.589   3.394  23.124  0.0020  0.1315  0.0363
22312W        W26712  16.713   4.135  20.666 -0.0162  0.0105  0.1666
22313W        W26713   7.947   7.236  29.403 -0.2076 -0.1778  0.0221
22314W        W26714  16.031   4.526   0.355 -0.0128 -0.0663  0.0387
22315W        W26715   6.231   1.794  25.114  0.1192 -0.2008 -0.1666
22316W        W26716   4.036   0.933  30.698 -0.2552  0.0689  0.3326
22317W        W26717  21.275   2.859  20.210 -0.0500 -0.1141 -0.1212
22318W        W26718  20.692   2.983  21.761 -0.1854  0.1868  0.2316
22319W        W26719   3.423   6.631  23.309 -0.1100  0.3445  0.4163
22320W        W26720  16.046   4.571   7.258  0.1676  0.0583  0.0799
22321W        W26721   7.919   6.410  18.292 -0.0350  0.3455 -0.1181
22322W        W26722  21.014   4.555  18.721 -0.2367 -0.1299  0.0474
22323W        W26723   9.559   4.106  24.251 -0.0616 -0.2407  0.1892
22324W        W26724  16.678   3.228  28.141 -0.1113  0.0292 -0.0044
22325W        W26725   7.262   0.916  13.159 -0.0694  0.1712  0.0597
22326W        W26726   5.599   1.596   7.856 -0.2818  0.0330 -0.2706
22327W        W26727  21.937   2.682   9.412 -0.0161  0.0959  0.1045
22328W        W26728  14.543   0.036  31.907 -0.0461  0.2722 -0.3515
22329W        W26729  16.073   7.492  18.717 -0.1032  0.1271 -0.2678
22330W        W26730   1.483   3.167  12.206 -0.1413 -0.1202 -0.0179
22331W        W26731   7.376   4.415  15.935  0.0036 -0.0358 -0.1625
22332W        W26732  16.972   2.961   2.662  0.2771 -0.0635 -0.0492
22333W        W26733   8.783   6.881  12.578  0.1556  0.0368 -0.0542
22334W        W26734  12.505   2.718  31.217 -0.2100 -0.2336  0.1001
22335W        W26735   5.577   6.054   1.463 -0.1820 -0.0272  0.1469
22336W        W26736  10.157   6.740  11.386 -0.1745 -0.0294  0.3085
22337W        W26737  18.766   7.684   7.283  0.1871  0.2484 -0.1994
22338W        W26738  25.042   6.307  21.008  0.0917  0.1176 -0.1671
22339W        W26739  11.464   7.025   1.968 -0.1562  0.0916 -0.3347
22340W        W26740   9.617   2.482  25.310  0.0593  0.0038 -0.0682
22341W        W26741   1.088   1.932   5.103  0.2991  0.0036 -0.0521
22342W        W26742   5.578   7.392   2.616  0.0319  0.2674 -0.0349
22343W        W26743  14.281   0.241  21.240  0.5896  0.1594  0.1716
22344W        W26744   1.300   5.073  21.236 -0.1636  0.1692 -0.0509
22345W        W26745   1.883   4.536  21.749  0.3242 -0.0012  0.0279
22346W        W26746   2.314   1.024   5.978  0.0689  0.0134 -0.2780
22347W        W26747  12.046   6.430  12.954  0.1153  0.0649  0.0717
22348W        W26748  12.036   6.414  29.045  0.1470  0.0785 -0.0732
22349W        W26749   4.512   6.226  12.347 -0.1888 -0.2745  0.1082
22350W        W26750  14.056   5.844  32.228 -0.2098 -0.0226 -0.2167
22351W        W26751  14.662   0.932  27.417  0.1448 -0.1264  0.1619
22352W        W26752   3.793   5.817   2.363  0.1726  0.1797 -0.1637
22353W        W26753  10.704   3.326  23.012 -0.0664 -0.0437 -0.1323
22354W        W26754  23.518   7.263  31.441 -0.3472  0.1967 -0.0698
22355W        W26755  14.761   6.451   1.848  0.2084 -0.0306  0.0033
22356W        W26756  11.483   7.550   7.645  0.2140  0.1802  0.0447
22357W        W26757   6.915   1.168  12.379  0.1909 -0.0216 -0.0023
22358W        W26758   1.262   1.219  30.732 -0.3648  0.2171  0.2424
22359W        W26759  20.689   4.021   6.611 -0.2495 -0.1848  0.0291
22360W        W26760  22.634   5.890   8.528  0.3685 -0.0537 -0.1700
22361W        W26761  15.346   3.930   0.961 -0.3238  0.0263 -0.2193
22362W        W26762   1.796   1.854  26.453 -0.3728  0.2135 -0.3919
22363W        W26763   6.006   1.802   5.062 -0.1145 -0.2737 -0.1523
22364W        W26764   2.109   6.339  20.092  0.1489  0.2057  0.1808
22365W        W26765  17.759   1.017  24.730  0.0525 -0.1596  0.1263
22366W        W26766   3.029   0.714   6.509  0.2942  0.0342  0.0525
22367W        W26767   1.642   2.167   1.203  0.1500  0.2166 -0.2007
22368W        W26768   0.991   2.994   1.092  0.2127 -0.0942  0.1403
22369W        W26769  23.545   7.384  31.924  0.0081  0.0752  0.0132
22370W        W26770  11.003   5.197  28.337 -0.1427 -0.3136 -0.0304
22371W        W26771  10.253   5.689  12.332 -0.0030 -0.1033 -0.1036
22372W        W26772  21.200   4.017  32.262 -0.0844  0.0690 -0.2414
22373W        W26773  24.518   1.330  16.974 -0.0753 -0.1627 -0.0455
22374W        W26774   3.806   3.961   1.084  0.1409 -0.0536  0.3096
22375W        W26775  10.593   0.998   4.176  0.0529 -0.2077 -0.0021
22376W        W26776  16.676   7.311   6.253  0.2140 -0.1275  0.0640
22377W        W26777  13.023   0.451   7.998 -0.1912  0.1376 -0.0379
22378W        W26778  10.290   3.861  17.384 -0.1231  0.0201 -0.2303
22379W        W26779  24.797   4.059  30.399 -0.0804 -0.2169 -0.1595
22380W        W26780   8.479   7.111  12.955 -0.1979 -0.0186 -0.3347
22381W        W26781   5.400   3.816   5.457  0.1720  0.1221  0.2436
22382W        W26782  16.222   1.688   2.077 -0.1955 -0.1151 -0.2494
22383W        W26783  24.865   7.475   9.123 -0.1387 -0.2403 -0.1547
22384W        W26784  23.006   6.870   4.151  0.0024  0.1037  0.0187
22385W        W26785  12.367   0.215   0.255 -0.0396 -0.0726 -0.1715
22386W        W26786  20.492   2.404   1.596 -0.0095 -0.0124  0.1824
22387W        W26787  11.553   6.056  30.175  0.0320  0.0051 -0.1159
22388W        W26788  12.652   5.233  24.809 -0.1431 -0.1864  0.1736
22389W        W26789  21.612   5.823  25.124  0.3000 -0.0458  0.4474
22390W        W26790  23.602   5.134  21.994 -0.0671  0.2268  0.0005
22391W        W26791  18.508   7.731   5.412 -0.2842 -0.0685  0.3062
22392W        W26792   9.416   5.558   7.119  0.1287  0.0140 -0.2729
22393W        W26793   7.272   5.185  15.717  0.3235 -0.0624 -0.0023
22394W        W26794   4.528   1.676  14.737 -0.1425  0.1416  0.1969
22395W        W26795   3.564   3.796   7.531 -0.2561 -0.0092  0.0480
22396W        W26796  20.451   7.302  18.893  0.0262  0.2577  0.0858
22397W        W26797   9.185   7.074  10.596 -0.0689 -0.1626 -0.0088
22398W        W26798  24.436   6.304  30.070  0.1628 -0.4271  0.1388
22399W        W26799   1.871   2.931  21.142 -0.2028 -0.1405  0.0770
22400W        W26800  23.212   3.422  19.908 -0.0354  0.0473 -0.1326
22401W        W26801  22.036   4.430  16.992 -0.0774 -0.2768  0.1105
22402W        W26802   0.579   5.720  18.340  0.1559 -0.1145 -0.1857
22403W        W26803   7.026   5.938  15.552 -0.0680 -0.2366 -0.3895
22404W        W26804  17.153   0.435  28.162 -0.0380 -0.1205 -0.0671
22405W        W26805  22.554   0.257  19.784 -0.1228  0.2312 -0.1142
22406W        W26806  19.742   4.613   8.900 -0.0232  0.3469  0.1509
22407W        W26807   6.172   7.509  17.348 -0.0371 -0.1519 -0.2010
22408W        W26808  11.828   1.535  30.314 -0.0654  0.0863 -0.0742
22409W        W26809   5.189   7.767   3.075  0.0183  0.0620  0.2232
22410W        W26810   9.072   7.760   7.709 -0.0289  0.1134 -0.1581
22411W        W26811   0.623   4.132   7.561 -0.0122 -0.1439 -0.1673
22412W        W26812   7.829   2.436  10.980  0.1406  0.1588 -0.1517
22413W        W26813  11.365   1.206   7.845 -0.0876  0.0283  0.2860
22414W        W26814  14.827   7.747  28.210  0.2214 -0.0207 -0.0247
22415W        W26815   8.134   6.362  26.572 -0.1186  0.2904 -0.0759
22416W        W26816   7.903   6.371  32.081  0.0236  0.2267  0.1288
22417W        W26817   7.953   2.047  13.566 -0.3423  0.0822 -0.1029
22418W        W26818   9.445   4.343  10.146 -0.2625  0.2711  0.0094
22419W        W26819   7.073   4.522  23.903 -0.0225  0.0223  0.0379
22420W        W26820  18.267   5.790  10.062  0.0702 -0.0233  0.0660
22421W        W26821  22.353   5.397  32.660 -0.1196 -0.1762  0.1239
22422W        W26822   7.946   5.976   9.619 -0.3202 -0.3620 -0.4134
22423W        W26823   5.353   6.605   9.919  0.3180  0.0161  0.3164
22424W        W26824   1.874   2.463  30.785 -0.2972 -0.0337  0.1674
22425W        W26825   8.201   2.597  17.611  0.0354 -0.1652  0.3342
22426W        W26826  12.203   3.548  21.905 -0.1894  0.1087  0.4027
22427W        W26827  21.570   1.835   1.014  0.0096  0.1905 -0.0559
22428W        W26828   8.922   2.739  17.501 -0.2771 -0.0179  0.2390
22429W        W26829  15.155   6.001  27.239 -0.1218  0.2594 -0.0626
22430W        W26830  21.245   0.517   2.643 -0.1602 -0.0308  0.1834
22431W        W26831   3.526   4.913  22.343  0.2255 -0.0959 -0.1930
22432W        W26832   5.331   0.448   2.015 -0.3877  0.3687  0.1206
22433W        W26833  17.434   5.035   7.727 -0.1102  0.0626  0.1903
22434W        W26834   6.382   4.229  22.896  0.2192 -0.1996 -0.3757
22435W        W26835  16.070   6.129  31.980 -0.0689 -0.0257  0.4212
22436W        W26836   6.598   0.895  24.395  0.0166  0.2496 -0.1134
22437W        W26837  14.585   5.646  21.003  0.1345 -0.0958  0.0946
22438W        W26838   2.989   1.322  29.726  0.1329  0.0491  0.2329
22439W        W26839  12.482   2.750  28.542  0.0449 -0.0024 -0.0544
22440W        W26840   7.378   3.115   2.650  0.1853 -0.0897 -0.0307
22441W        W26841  20.239   1.868  27.766  0.2735 -0.1544  0.1991
22442W        W26842  12.713   4.428  24.945  0.2316  0.1531 -0.1982
22443W        W26843   0.566   4.601  27.051  0.2374  0.2964  0.1813
22444W        W26844   1.907   5.545  29.008 -0.1039  0.1218  0.1142
22445W        W26845  24.129   4.454  29.382  0.1436 -0.0319  0.2751
22446W        W26846  12.363   3.173  24.400  0.0117 -0.1806 -0.2427
22447W        W26847  24.192   4.142  18.965  0.2137  0.0632  0.3276
22448W        W26848   8.421   4.214  25.470 -0.5345 -0.0542 -0.1858
22449W        W26849  15.037   6.876  25.480 -0.0689  0.0458  0.0876
22450W        W26850  10.702   7.115  16.128 -0.1867 -0.0556 -0.0432
22451W        W26851  10.792   4.147   6.538  0.2546 -0.0532  0.1761
22452W        W26852   7.159   0.972  25.247 -0.0956  0.1177  0.2848
22453W        W26853  16.814   5.839   7.958  0.2734 -0.1499  0.2286
22454W        W26854   7.145   2.321  32.468 -0.3032 -0.0899 -0.2539
22455W        W26855  22.578   1.370   7.309 -0.1750  0.0052  0.3629
22456W        W26856  11.036   5.400  26.532 -0.0077  0.0419 -0.3019
22457W        W26857  15.162   5.052  11.518  0.0066  0.2169  0.2458
22458W        W26858   0.032   2.122  21.124 -0.1280 -0.1174  0.0757
22459W        W26859  10.046   2.945  13.007  0.3824 -0.0446  0.2638
22460W        W26860  19.326   5.772  30.074 -0.1325  0.0778 -0.2565
22461W        W26861  12.422   0.906  23.775 -0.1629 -0.0334  0.1557
22462W        W26862   9.960   7.185  12.771 -0.1465  0.0248 -0.1945
22463W        W26863  20.438   0.413  27.292  0.0554  0.0923  0.2684
22464W        W26864  20.433   2.237  29.171 -0.3849 -0.1459  0.0800
22465W        W26865  15.063   6.396   5.477  0.0937 -0.1225  0.2088
22466W        W26866   9.737   3.338   7.475  0.2883 -0.1669  0.2086
22467W        W26867  10.593   5.465  13.243 -0.1260 -0.1809  0.0823
22468W        W26868  17.167   2.299  18.220  0.0602  0.0324 -0.2479
22469W        W26869   9.440   5.512  10.305  0.1407 -0.0106  0.1405
22470W        W26870  24.983   5.420   3.973  0.2943  0.1454  0.2190
22471W        W26871  19.400   1.792  26.538 -0.0817 -0.1809  0.0642
22472W        W26872  23.498   0.513  10.736  0.1140 -0.2235 -0.0480
22473W        W26873  18.071   1.256  30.488 -0.2711 -0.0907  0.2187
22474W        W26874  17.108   0.353  17.990  0.0648 -0.0864 -0.2183
22475W        W26875   7.675   1.767   7.035 -0.3425  0.1988  0.1322
22476W        W26876  16.386   7.078  25.390 -0.0399  0.2142 -0.1548
22477W        W26877  10.697   4.665   1.650  0.0766 -0.0988 -0.0383
22478W        W26878  14.544   5.326   4.813 -0.1308 -0.2075 -0.3701
22479W        W26879  24.736   5.970   1.398  0.1099 -0.0521  0.0564
22480W        W26880   3.425   5.706   1.953 -0.2500 -0.0263 -0.0159
22481W        W26881  23.411   0.860   0.914 -0.0412  0.0868  0.1778
22482W        W26882  19.673   6.831  17.473  0.0079 -0.1865  0.0566
22483W        W26883   3.325   1.174   9.162 -0.0772  0.0932 -0.0162
22484W        W26884  22.258   5.407  22.188  0.2191  0.0684  0.0461
22485W        W26885  24.903   5.292  23.837 -0.0080 -0.1392  0.0441
22486W        W26886  18.307   6.642  16.585 -0.1282 -0.0870  0.2042
22487W        W26887   6.060   3.653   1.173  0.1335 -0.4086 -0.1294
22488W        W26888  20.696   4.233  21.495  0.2236 -0.4633  0.2800
22489W        W26889   7.305   5.779  27.938  0.1439  0.3433 -0.1606
22490W        W26890  24.810   0.204  28.313  0.0459 -0.4510  0.1964
22491W        W26891  17.555   7.681  21.824 -0.0532  0.0519 -0.3745
22492W        W26892   1.039   2.723  26.376 -0.0910 -0.1382  0.2218
22493W        W26893  12.093   3.068  28.085 -0.0262 -0.1892 -0.2591
22494W        W26894  14.179   7.386   5.673  0.0938  0.0686  0.0146
22495W        W26895  19.326   0.868   5.232 -0.1244 -0.0519 -0.3084
22496W        W26896  19.541   0.423  18.212 -0.1722 -0.0536  0.3652
22497W        W26897  10.039   0.710  13.841 -0.1642 -0.1984 -0.1868
22498W        W26898   5.730   1.589   4.674 -0.1203  0.0193  0.2789
22499W        W26899  18.836   3.811  22.620  0.1303 -0.4261 -0.1754
22500W        W26900  11.967   2.482   5.781  0.0375  0.1258 -0.1073
22501W        W26901  12.742   2.487   1.787 -0.2375  0.4491  0.0790
22502W        W26902  12.556   3.513  25.038 -0.1100  0.1627  0.0226
22503W        W26903  10.611   6.864  31.329  0.2973  0.0518 -0.3316
22504W        W26904  17.309   6.704  28.671  0.2722  0.3907 -0.2651
22505W        W26905  21.525   5.763  20.762  0.0621 -0.1602 -0.0843
22506W        W26906   1.060   4.679  20.402 -0.1543 -0.1451  0.0757
22507W        W26907   3.675   0.517   2.811 -0.0355  0.1097 -0.1259
22508W        W26908  23.605   6.331   5.166  0.0869  0.0625 -0.3233
22509W        W26909   6.470   1.489   7.805  0.0457  0.0675  0.1596
22510W        W26910   7.682   1.623  25.563 -0.2046  0.3434  0.0886
22511W        W26911  21.584   6.041  22.154  0.1984 -0.1964 -0.2129
22512W        W26912   2.882   3.985  25.449  0.0765  0.0303  0.3349
22513W        W26913  20.730   4.208  15.568 -0.0609 -0.1837 -0.0729
22514W        W26914  16.738   4.308  21.126  0.1208  0.1817 -0.1364
22515W        W26915   2.929   3.349  32.359  0.0772 -0.1769 -0.0746
22516W        W26916   9.896   2.854  24.491  0.1280 -0.1829  0.0248
22517W        W26917  23.834   1.495  27.707  0.2098 -0.1199 -0.1017
22518W        W26918  11.131   2.250   0.657  0.0979 -0.0749  0.2531
22519W        W26919  16.067   4.529  24.057 -0.1073  0.0564 -0.0588
22520W        W26920  22.039   2.827  16.741  0.1280 -0.1590  0.0487
22521W        W26921  16.368   0.846  20.978 -0.0194 -0.1333  0.0064
22522W        W26922   3.050   4.051  32.338  0.1321  0.0350  0.0612
22523W        W26923   1.125   3.282  23.969 -0.2570 -0.2998 -0.1037
22524W        W26924  21.381   7.711   5.431  0.1185 -0.2349 -0.1558
22525W        W26925   7.961   4.083  27.113 -0.1006  0.2834  0.0653
22526W        W26926  22.010   5.662   1.800 -0.1860  0.0110 -0.0178
22527W        W26927  23.778   5.249  30.758  0.1636 -0.1401  0.0694
22528W        W26928   0.812   3.867   1.337 -0.2734 -0.0899  0.0064
22529W        W26929   8.601   1.427  30.279  0.0207 -0.2777  0.2219
22530W        W26930   6.157   1.008  16.936 -0.0341 -0.1752 -0.0624
22531W        W26931   7.735   4.237  32.629  0.0076 -0.1379 -0.1292
22532W        W26932  12.387   5.286  31.890  0.3793  0.0619 -0.1736
22533W        W26933   9.199   5.268  16.610 -0.1216  0.0912  0.1116
22534W        W26934  19.021   6.854   9.364 -0.1863 -0.0787  0.2320
22535W        W26935  24.398   7.495   6.342  0.1031  0.3178  0.3180
22536W        W26936  20.268   5.995  21.765 -0.0977  0.1767 -0.1725
22537W        W26937  10.045   5.878   6.774 -0.0390  0.0020  0.0502
22538W        W26938  11.302   0.548  27.860  0.0633  0.1436 -0.2981
22539W        W26939  15.347   6.625  11.184 -0.1194  0.1531 -0.2536
22540W        W26940  15.994   2.435  30.948 -0.2898 -0.0066  0.0187
22541W        W26941  23.998   6.681   2.348  0.1521 -0.2613  0.1430
22542W        W26942   4.533   2.119  12.310  0.0139  0.0324  0.1878
22543W        W26943  21.301   2.470   4.800 -0.3332  0.0919  0.3793
22544W        W26944  16.318   1.420  21.705 -0.1535 -0.0112  0.2056
22545W        W26945  11.334   7.643   2.981  0.2539  0.1262  0.0104
22546W        W26946  18.667   5.232   0.264  0.0927 -0.1820 -0.0857
22547W        W26947  10.895   2.302  28.857 -0.0365 -0.1382 -0.1916
22548W        W26948   6.009   1.752   2.981 -0.0554  0.1284  0.1593
22549W        W26949  14.844   0.545   6.622 -0.1741  0.1057 -0.0362
22550W        W26950   3.342   2.800  13.354  0.2297  0.1283  0.1380
22551W        W26951   1.642   6.391  21.557  0.0096  0.3708 -0.0809
22552W        W26952  18.704   1.832  29.216 -0.3835 -0.1796 -0.1103
22553W        W26953  22.619   6.674  22.450 -0.0444  0.0639 -0.2970
22554W        W26954  16.744   6.560  22.567 -0.2381  0.2517 -0.0809
22555W        W26955   0.036   2.988   6.637  0.4773  0.0985  0.1700
22556W        W26956  23.757   1.274   4.166 -0.0406 -0.2086 -0.1012
22557W        W26957  22.227   3.375   1.323  0.3581 -0.0984  0.3777
22558W        W26958  24.003   6.624   0.549 -0.0777  0.0608  0.2298
22559W        W26959  20.331   4.774   0.496 -0.0054 -0.2463  0.0636
22560W        W26960  15.508   7.554   9.460 -0.0814 -0.0973  0.1777
22561W        W26961  22.810   2.239   2.201 -0.1732 -0.0927  0.3146
22562W        W26962   2.516   0.412   3.225 -0.0273 -0.3701 -0.2038
22563W        W26963  11.770   0.269  31.533 -0.0615  0.1832  0.1288
22564W        W26964  18.171   5.883   2.341  0.2258  0.1101  0.0587
22565W        W26965  10.866   7.228  16.598  0.2008  0.1720 -0.0780
22566W        W26966   9.900   1.885  14.158  0.0629 -0.0984  0.0309
22567W        W26967  21.818   5.387  21.085 -0.1878  0.0123  0.2125
22568W        W26968  21.357   0.452  18.320  0.0959  0.0181  0.0724
22569W        W26969  15.503   3.290  28.820  0.2717  0.2231 -0.1006
22570W        W26970   0.604   5.580  31.015 -0.2455 -0.0891 -0.1454
22571W        W26971  12.511   5.843  29.664 -0.0402  0.0066  0.1131
22572W        W26972   5.564   7.803  14.352  0.2285 -0.0660  0.0361
22573W        W26973  17.392   3.112  28.028 -0.0918 -0.2610 -0.2161
22574W        W26974   8.095   1.484   5.739  0.0047 -0.0276  0.2730
22575W        W26975  14.472   0.063  32.443  0.0608 -0.1886  0.1172
22576W        W26976  15.679   4.891  22.510  0.2186 -0.0817 -0.1339
22577W        W26977  18.544   3.272  31.399 -0.1715 -0.1509  0.0405
22578W        W26978   4.382   7.759  27.080 -0.2476 -0.0967  0.1282
22579W        W26979   8.202   1.909  14.915  0.0524  0.1885 -0.1356
22580W        W26980   0.805   1.824   1.677 -0.0562  0.2166 -0.2611
22581W        W26981  21.430   5.951  17.365  0.2510 -0.0625 -0.2404
22582W        W26982   4.129   3.680  30.388 -0.3794 -0.0719 -0.3590
22583W        W26983   7.667   4.479  28.761  0.0258  0.0205  0.2818
22584W        W26984   1.834   5.250   0.498 -0.3270 -0.1075 -0.0358
22585W        W26985  24.308   3.793  32.246 -0.1124  0.2623  0.1167
22586W        W26986   0.427   4.640  19.682 -0.0778 -0.3756  0.0497
22587W        W26987  10.576   5.534  30.448 -0.0138 -0.1799  0.0441
22588W        W26988  11.623   5.939  14.707 -0.1871 -0.2515  0.3205
22589W        W26989  16.587   1.605  23.788 -0.4239 -0.1288  0.2202
22590W        W26990  13.800   0.722  12.594 -0.1891 -0.1863  0.4981
22591W        W26991  15.743   5.192   1.001  0.0317  0.1339 -0.0668
22592W        W26992  12.407   0.242   1.558  0.0635  0.2430  0.1753
22593W        W26993  20.769   1.340   8.760 -0.3844 -0.1787  0.1102
22594W        W26994  22.259   0.437  31.020 -0.0466 -0.1061 -0.1586
22595W        W26995  16.074   4.210   3.782 -0.0701 -0.2903  0.0597
22596W        W26996   3.142   3.474  26.534  0.1172 -0.0990  0.0499
22597W        W26997   9.810   2.525  27.468  0.2143  0.2114 -0.0022
22598W        W26998  21.918   7.402  17.031 -0.2126  0.1821  0.1094
22599W        W26999  14.811   2.435  10.785 -0.0329 -0.0290  0.2196
22600W        W27000   1.000   6.788   8.194 -0.0885  0.0728 -0.0927
22601W        W27001   8.404   0.289   3.269  0.1367  0.0312 -0.0880
22602W        W27002   5.676   3.754  24.549  0.0282 -0.1464  0.1845
22603W        W27003  18.571   2.619  28.879 -0.0361  0.2826 -0.1675
22604W        W27004  13.196   0.470  28.870 -0.1405 -0.0977  0.2025
22605W        W27005  18.897   4.172  27.207  0.2586  0.1586 -0.1437
22606W        W27006   8.133   3.535  12.446 -0.2137  0.0534 -0.5452
22607W        W27007   4.134   4.577  26.845 -0.1026  0.4014 -0.0405
22608W        W27008  24.947   1.471  16.557  0.1572  0.3296  0.0792
22609W        W27009  18.644   5.810  20.206 -0.1655 -0.2294 -0.0778
22610W        W27010  12.890   4.741   1.818 -0.1292 -0.0642  0.3400
22611W        W27011   4.116   3.957  29.565 -0.2811  0.2758 -0.4149
22612W        W27012  13.163   4.522   3.559  0.0476 -0.0991 -0.0995
22613W        W27013  22.734   2.000  18.417 -0.0549  0.0095  0.3431
22614W        W27014  16.349   7.254   7.612 -0.2035  0.0671 -0.0615
22615W        W27015  23.617   1.101   3.726 -0.0753  0.1397 -0.2569
22616W        W27016  11.917   3.244   9.098 -0.2556  0.0867  0.1426
22617W        W27017   7.912   4.949  11.274 -0.0093  0.1598 -0.3556
22618W        W27018  14.211   6.442   7.304 -0.2374  0.0675 -0.2557
22619W        W27019   5.639   5.850  13.901  0.1324  0.2617 -0.0824
22620W        W27020  21.989   0.752   5.339 -0.0041 -0.1087 -0.2774
22621W        W27021  15.303   3.983  11.294  0.0740 -0.1082  0.1114
22622W        W27022  23.021   7.764  24.619 -0.1212  0.0955  0.0918
22623W        W27023  22.851   0.678  20.249  0.1261 -0.2131 -0.1467
22624W        W27024  15.459   4.680  22.109 -0.1666  0.0622 -0.0171
22625W        W27025  13.363   3.583  24.017  0.1045 -0.1167  0.1138
22626W        W27026  15.243   3.141  23.867 -0.4053 -0.0454  0.0957
22627W        W27027  10.423   1.498  11.401 -0.0625  0.3625  0.0741
22628W        W27028  24.800   3.371   3.462 -0.2762 -0.0013 -0.1039
22629W        W27029  24.032   4.748   9.139  0.3392 -0.0238 -0.1291
22630W        W27030   4.700   6.239   8.707  0.0228 -0.2315 -0.0324
22631W        W27031  19.112   3.825   7.590 -0.1005  0.0286 -0.0439
22632W        W27032   8.447   0.024   5.086 -0.1281  0.2227  0.2429
22633W        W27033   5.315   0.426   3.316  0.2026 -0.1179 -0.1256
22634W        W27034  16.617   5.123   5.728 -0.0196 -0.0117  0.1344
22635W        W27035  24.919   2.094   8.528 -0.1808 -0.0357 -0.1300
22636W        W27036   6.566   3.296  31.459  0.3340 -0.0860 -0.2012
22637W        W27037   7.770   2.264  31.169  0.1538 -0.1488 -0.2883
22638W        W27038  23.736   2.089  19.331 -0.0995  0.0541  0.1740
22639W        W27039  10.637   3.607  25.490  0.1388  0.0856  0.0771
22640W        W27040   0.164   6.701   5.543  0.0357 -0.0221 -0.3078
22641W        W27041  19.420   1.618   0.945  0.0312 -0.0888 -0.0904
22642W        W27042   7.202   0.058  25.173  0.1283  0.2509 -0.1973
22643W        W27043   8.709   2.574  17.901  0.2060  0.0361 -0.0804
22644W        W27044  22.387   0.225  32.639  0.1420  0.3207  0.2165
22645W        W27045   8.579   4.730  25.627  0.0740  0.0511 -0.2374
22646W        W27046  19.558   2.580   3.449 -0.3260 -0.1398 -0.1821
22647W        W27047   4.463   5.923  30.608  0.1750  0.1170  0.0943
22648W        W27048  17.644   1.145  28.470  0.0078  0.4620  0.0880
22649W        W27049   5.226   2.530   8.861  0.1968 -0.2472  0.2117
22650W        W27050   9.169   4.679   5.883  0.1939 -0.1208 -0.1095
22651W        W27051  13.610   1.582   2.160 -0.0962 -0.2983 -0.0248
22652W        W27052  17.073   3.684  18.405 -0.2996 -0.4174  0.1770
22653W        W27053  17.091   2.092  26.340 -0.2463  0.0990  0.3969
22654W        W27054  20.616   1.378   4.093  0.0088 -0.1268 -0.1707
22655W        W27055   9.975   5.443  22.538 -0.1300 -0.0446 -0.1956
22656W        W27056  12.689   4.621  31.437  0.3170 -0.1109 -0.0461
22657W        W27057  12.718   5.555   6.673  0.1261  0.2722 -0.1382
22658W        W27058  21.841   1.256  29.519  0.0314 -0.1651  0.0601
22659W        W27059  14.294   5.091  30.280  0.0276  0.0598 -0.3448
22660W        W27060  12.656   0.731  13.408  0.0553  0.1260 -0.1251
22661W        W27061   3.100   4.680  25.604  0.0534  0.1508  0.3652
22662W        W27062   1.446   2.120  18.848 -0.0769 -0.0405  0.3448
22663W        W27063  11.598   6.580   4.280 -0.0107  0.1900  0.0957
22664W        W27064   4.636   0.547  30.829  0.0784  0.1326 -0.2136
22665W        W27065   1.555   3.323   5.559  0.1060 -0.0342 -0.0837
22666W        W27066   1.204   1.040  32.437  0.0304  0.0074 -0.0045
22667W        W27067   3.984   6.404  12.344  0.1953 -0.1769  0.1936
22668W        W27068   5.263   3.130  32.532  0.1299  0.0903  0.0010
22669W        W27069   5.379   5.479  32.033  0.0702  0.1515  0.0560
22670W        W27070  17.897   7.414   0.123  0.1910  0.1105 -0.0318
22671W        W27071  24.805   0.025   0.203  0.1204  0.2363  0.0867
22672W        W27072   2.740   4.867  28.256 -0.0703  0.1224  0.0228
22673W        W27073  16.673   2.499  27.665 -0.0618  0.1937 -0.0331
22674W        W27074   4.149   0.315  12.781  0.2410  0.0053  0.2370
22675W        W27075  11.401   3.775  14.253 -0.2544 -0.1612  0.0408
22676W        W27076  13.624   0.701  26.472  0.0705  0.1833  0.0350
22677W        W27077  21.351   3.351   6.743  0.1937 -0.0121 -0.1232
22678W        W27078  19.048   1.561  21.879  0.0446 -0.1974  0.3101
22679W        W27079  13.045   1.790  29.633 -0.3879 -0.0104  0.0029
22680W        W27080  18.343   3.253  24.452  0.1405  0.0121  0.1688
22681W        W27081   7.223   3.763   2.807  0.0368 -0.0768 -0.0903
22682W        W27082   0.757   6.645  28.575 -0.0038 -0.0475  0.0802
22683W        W27083  20.257   0.330   3.915 -0.1486  0.0256  0.1318
22684W        W27084  18.087   1.988  30.950 -0.1394  0.0237  0.0248
22685W        W27085  13.556   7.408  14.152 -0.0798  0.0571  0.3524
22686W        W27086  21.431   5.254   8.999  0.0334 -0.1960 -0.0684
22687W        W27087   2.452   3.796  25.943 -0.2501  0.0944 -0.2315
22688W        W27088   0.228   0.643   2.074  0.1972 -0.0631  0.0387
22689W        W27089   7.164   2.700   2.933  0.3231  0.1375 -0.0613
22690W        W27090   9.099   1.333  27.179  0.0187  0.0105  0.0186
22691W        W27091  21.853   3.967  26.996  0.2342 -0.0298 -0.1467
22692W        W27092  14.985   6.340  28.946  0.2016 -0.0752  0.1947
22693W        W27093  16.231   3.395  24.085  0.1672 -0.1396 -0.0233
22694W        W27094  12.171   1.287  23.222  0.0154 -0.1074  0.1824
22695W        W27095  10.006   6.296   2.039 -0.0003 -0.1224 -0.2091
22696W        W27096   7.850   3.760  30.131  0.1839  0.2704  0.2797
22697W        W27097  17.883   6.001  16.296 -0.0627  0.1452 -0.3294
22698W        W27098   8.793   3.199  26.240 -0.0225  0.1096  0.1802
22699W        W27099  17.903   5.521   9.346 -0.1301  0.1217  0.0096
22700W        W27100   7.146   0.749  10.674 -0.1220 -0.3160  0.0039
22701W        W27101   8.943   4.751  23.761  0.0490  0.2285 -0.2104
22702W        W27102   4.782   6.146   4.333 -0.1384 -0.1104 -0.0102
22703W        W27103  15.902   3.616   0.677 -0.1534 -0.0692  0.0621
22704W        W27104   2.992   3.648  22.493  0.0839  0.0345 -0.0207
22705W        W27105   3.225   3.926  25.058  0.1237 -0.2494  0.0140
22706W        W27106  17.132   5.787   8.890  0.0934 -0.2896 -0.2470
22707W        W27107   6.844   2.596  26.713 -0.1253  0.0231 -0.0164
22708W        W27108  13.880   2.855  22.617  0.0089 -0.0973 -0.2184
22709W        W27109  22.824   2.177  30.124  0.2023 -0.0138  0.0535
22710W        W27110  22.048   5.388  24.871  0.2079  0.0759 -0.1119
22711W        W27111  14.277   1.381  12.079 -0.0450 -0.1913  0.3129
22712W        W27112   5.991   4.479  15.043 -0.1759  0.0796  0.1438
22713W        W27113  17.653   1.299   1.873 -0.0803 -0.2683 -0.1262
22714W        W27114  11.970   3.557   4.751 -0.0645 -0.1333 -0.1070
22715W        W27115  18.815   2.154   2.122  0.1968 -0.0484  0.1114
22716W        W27116  20.507   7.562   6.576 -0.0281 -0.0105 -0.1297
22717W        W27117   5.095   1.704   7.459  0.0232  0.0904  0.3494
22718W        W27118   0.797   2.446   6.071  0.3052 -0.0243  0.0769
22719W        W27119   7.727   3.898  23.920 -0.2371 -0.0175  0.0190
22720W        W27120  17.312   4.329   7.230 -0.2293 -0.2280 -0.2294
22721W        W27121  11.063   2.739  22.750  0.1236  0.1307 -0.1768
22722W        W27122   6.037   2.660  12.497  0.0979  0.2764 -0.0229
22723W        W27123  20.703   0.659   9.545  0.0758 -0.2711  0.3234
22724W        W27124   8.314   6.377  11.861  0.0735 -0.0517 -0.0124
22725W        W27125  22.567   0.033  14.303 -0.0260  0.1314 -0.1128
22726W        W27126   5.130   2.867  27.487 -0.0115 -0.0345  0.0784
22727W        W27127   6.617   6.281   0.581 -0.1278 -0.0091 -0.0817
22728W        W27128  17.574   0.189   0.759  0.2708 -0.1301  0.1008
22729W        W27129   5.097   0.347  22.645 -0.0452 -0.1586  0.2635
22730W        W27130  22.781   3.200  20.401 -0.1092 -0.1478 -0.0337
22731W        W27131  19.532   6.512   0.148  0.2059 -0.3831 -0.2743
22732W        W27132   2.866   5.753  21.050  0.1735 -0.2260 -0.1878
22733W        W27133   3.320   3.059  27.305  0.2185 -0.0439  0.0743
22734W        W27134  23.470   0.882  30.468 -0.0220  0.3362  0.2724
22735W        W27135  18.352   6.961  28.505  0.3157 -0.0927  0.2601
22736W        W27136  13.777   3.264  21.337 -0.3413 -0.1810 -0.1199
22737W        W27137   2.874   2.626   5.760 -0.1267  0.2155  0.1522
22738W        W27138  17.579   1.143  31.072 -0.4586 -0.1137 -0.2345
22739W        W27139  11.897   0.110  24.964 -0.1099  0.1132  0.3104
22740W        W27140  21.920   5.463   0.485  0.2664  0.0762 -0.0510
22741W        W27141  14.575   3.313   1.617  0.1956 -0.0203  0.5848
22742W        W27142  18.339   4.488  16.450 -0.2145  0.0045 -0.2649
22743W        W27143  17.236   1.919   7.827 -0.0198  0.0736 -0.0044
22744W        W27144   9.794   6.533  26.280 -0.0636 -0.0295 -0.0644
22745W        W27145   7.511   3.611  23.071 -0.0390  0.2098 -0.1143
22746W        W27146  16.767   7.371   4.181  0.1315  0.1515 -0.1916
22747W        W27147   5.742   4.737  14.618 -0.0813 -0.0493 -0.1946
22748W        W27148   9.322   7.179   2.448 -0.2804  0.1722  0.3395
22749W        W27149   9.903   5.707   5.469  0.2435  0.0314  0.2559
22750W        W27150   0.740   0.140  16.538 -0.1560 -0.4284  0.1448
22751W        W27151   8.741   6.585  10.385 -0.1344  0.0670  0.1135
22752W        W27152   9.450   2.230  31.258  0.2393  0.2376  0.1407
22753W        W27153  10.873   6.145  16.587  0.0879  0.1310  0.2083
22754W        W27154   8.532   0.645  13.672 -0.3750 -0.1911  0.2407
22755W        W27155  24.841   4.840  10.215 -0.0737  0.1167 -0.0316
22756W        W27156  11.628   1.931  22.041 -0.2680  0.0723 -0.1474
22757W        W27157  20.022   3.043  23.478  0.0236 -0.0544 -0.3330
22758W        W27158   6.064   0.997  28.289 -0.0284 -0.0086 -0.4154
22759W        W27159  10.768   4.447   0.718  0.1763 -0.1224 -0.3130
22760W        W27160  19.394   4.637   4.035 -0.1273  0.3433  0.0450
22761W        W27161  20.348   4.168  17.637  0.1132  0.0317  0.1435
22762W        W27162  22.090   1.591   5.921  0.0122  0.4203  0.1109
22763W        W27163  16.866   0.524  11.594  0.0685 -0.0704  0.1177
22764W        W27164   0.212   3.526   5.657  0.1836  0.1609  0.1284
22765W        W27165   5.640   5.388  22.819  0.1052 -0.0014 -0.2734
22766W        W27166  20.631   1.952  28.682 -0.0799  0.1143  0.1094
22767W        W27167  14.578   3.161  21.416  0.0009  0.0465  0.0460
22768W        W27168  24.967   1.962  22.234 -0.2444 -0.1745 -0.0988
22769W        W27169  17.866   3.484   7.529  0.3130  0.0534 -0.1610
22770W        W27170  20.135   0.234   0.117 -0.0901 -0.2669  0.1863
22771W        W27171  17.284   3.073   8.342 -0.1413 -0.0175  0.1162
22772W        W27172  22.420   4.716  16.621 -0.0054 -0.3140  0.0717
22773W        W27173  10.533   2.694   3.298  0.1219 -0.0122  0.3936
22774W        W27174  11.820   6.487   1.187  0.4054 -0.0944 -0.2043
22775W        W27175  23.609   2.895   8.723  0.1503  0.0705 -0.0663
22776W        W27176   7.240   2.500  28.158 -0.1004 -0.1061  0.3909
22777W        W27177   2.968   6.234   2.505 -0.1400 -0.1145  0.0022
22778W        W27178   6.933   7.560  11.400  0.3575 -0.0467 -0.0060
22779W        W27179  21.697   2.200  20.254 -0.1980 -0.0259 -0.0177
22780W        W27180  24.624   2.045  11.264  0.0029  0.2193  0.1712
22781W        W27181  20.612   5.011   3.370 -0.1112  0.0757  0.0371
22782W        W27182   9.619   5.285   2.868  0.2174  0.2843  0.2888
22783W        W27183  11.173   2.500   0.017 -0.0097  0.1907 -0.1186
22784W        W27184   8.809   1.949   5.575  0.2215  0.1084 -0.1744
22785W        W27185  11.486   4.460  12.840  0.5018  0.1190  0.1673
22786W        W27186  11.941   3.872  23.249  0.0259 -0.0507 -0.2401
22787W        W27187  13.718   2.424   8.153  0.0892 -0.1333 -0.0532
22788W        W27188   0.513   2.973  32.019  0.1413 -0.0386 -0.0299
22789W        W27189  16.611   1.315  22.525 -0.1587 -0.1236 -0.2697
22790W        W27190   3.009   2.357  29.981  0.1096 -0.0408 -0.1097
22791W        W27191  20.771   3.666   3.246  0.1150  0.0365 -0.1791
22792W        W27192   2.046   7.028  26.880  0.0788 -0.1790  0.3787
22793W        W27193   8.027   2.677   5.716  0.0241  0.0295 -0.0406
22794W        W27194   3.989   3.837  24.128 -0.2652 -0.2654  0.1336
22795W        W27195  13.418   1.094  12.751  0.2323 -0.1509 -0.5558
22796W        W27196   5.445   1.479   1.275 -0.0904  0.0057 -0.1775
22797W        W27197   3.258   3.240  25.500  0.0337  0.0273  0.5529
22798W        W27198  22.835   3.719  14.356 -0.2511  0.2750 -0.1008
22799W        W27199   5.158   1.553  11.476 -0.0551 -0.1991 -0.1215
22800W        W27200  16.728   5.385  31.042  0.1096 -0.0262 -0.1033
22801W        W27201   2.537   0.091  10.321  0.0394 -0.1505  0.2133
22802W        W27202   9.631   6.585  12.134 -0.1199  0.2053  0.0092
22803W        W27203   0.062   1.643  32.171  0.0771  0.3417 -0.2960
22804W        W27204  23.280   5.051   2.392  0.2475  0.2237  0.0798
22805W        W27205  20.192   3.067  30.803  0.3397  0.0015  0.0531
22806W        W27206   0.820   2.978  10.852 -0.0159  0.2333 -0.0505
22807W        W27207  11.872   0.516  23.940  0.0880  0.2001 -0.0826
22808W        W27208  17.423   6.198   1.222  0.0664  0.0059  0.1424
22809W        W27209   0.230   3.049  29.807  0.2215 -0.2215 -0.0286
22810W        W27210  15.709   2.153   9.079 -0.0103 -0.0891 -0.0456
22811W        W27211   4.509   2.833   2.863 -0.1074 -0.1523  0.0192
22812W        W27212  22.465   5.987  29.664  0.1545  0.1923 -0.0367
22813W        W27213  17.578   2.756  29.333  0.0808 -0.2023 -0.1576
22814W        W27214   8.268   5.371  27.242 -0.3615 -0.0702  0.0394
22815W        W27215   8.071   6.726  31.779 -0.2091  0.2829  0.4470
22816W        W27216  20.999   6.295  15.564 -0.2705  0.2146  0.4658
22817W        W27217  19.571   7.696  31.425 -0.1108  0.1557  0.0449
22818W        W27218  17.595   2.525   6.542 -0.2093 -0.0261 -0.0784
22819W        W27219   2.063   3.409   5.973 -0.2046  0.2227  0.1039
22820W        W27220   0.678   1.516   5.973  0.0391 -0.2515 -0.0088
22821W        W27221   2.017   2.062  30.536  0.0564  0.0616 -0.0625
22822W        W27222  16.418   3.288  29.347 -0.1468  0.2676 -0.0704
22823W        W27223  12.712   2.974  12.570 -0.1414  0.1025  0.0895
22824W        W27224  15.499   5.575   3.361  0.1488 -0.1160  0.0097
22825W        W27225   8.916   0.942  24.267  0.2461  0.1899 -0.3273
22826W        W27226  18.710   7.402  24.706  0.0117  0.1564  0.0754
22827W        W27227  23.577   0.497  17.864 -0.0887  0.1217 -0.2919
22828W        W27228   1.915   7.291  28.131 -0.3593 -0.0224 -0.2085
22829W        W27229   2.014   2.440   1.967  0.4054  0.1856  0.2426
22830W        W27230  12.058   2.620  28.310  0.0348 -0.1463  0.1260
22831W        W27231  19.200   7.740  26.991 -0.1994  0.2174 -0.0392
22832W        W27232  21.012   7.606  32.476  0.0320 -0.1012 -0.4861
22833W        W27233  16.117   5.280  21.111 -0.0385 -0.1909 -0.2385
22834W        W27234  23.050   1.875   3.424  0.0262  0.6039  0.1267
22835W        W27235   4.121   7.681  29.872 -0.1699 -0.0270 -0.1170
22836W        W27236   1.101   4.226  23.798  0.2312 -0.0567 -0.0416
22837W        W27237   1.106   5.999  22.697  0.1500 -0.0650  0.2028
22838W        W27238  24.708   2.163   1.227  0.0098  0.0280 -0.1414
22839W        W27239  10.156   3.005   9.327  0.1179 -0.0644  0.1693
22840W        W27240   3.654   7.610   9.119 -0.1517 -0.0778  0.0083
22841W        W27241   5.264   7.481   9.626 -0.1117 -0.0944  0.0482
22842W        W27242   1.198   7.258  32.681  0.4190  0.2377 -0.0044
22843W        W27243  14.077   6.471   6.310  0.4955 -0.2028 -0.1621
22844W        W27244   4.545   7.209  24.951  0.0317  0.0841  0.1824
22845W        W27245  16.895   4.050  25.396  0.0106 -0.1905 -0.1266
22846W        W27246   9.479   1.387   2.815  0.0360  0.4520  0.3049
22847W        W27247  16.624   0.092   2.456  0.2952  0.0113  0.2342
22848W        W27248   7.374   3.490   6.321  0.0573  0.1694  0.0277
22849W        W27249   1.563   1.141  26.698  0.0827 -0.0841 -0.0188
22850W        W27250  23.826   2.713   0.277  0.2471  0.0243 -0.0043
22851W        W27251  17.463   2.447  30.779 -0.1095 -0.1700  0.1358
22852W        W27252   7.655   3.161  11.733  0.0246  0.1343  0.2844
22853W        W27253   1.615   5.690   0.026 -0.0937 -0.0732 -0.1413
22854W        W27254   8.194   0.121  31.484 -0.2387 -0.3477 -0.0042
22855W        W27255  18.963   2.172  27.384  0.3606 -0.4613 -0.0150
22856W        W27256   8.577   0.901   7.356  0.2056 -0.2899  0.1931
22857W        W27257  20.725   2.578   1.981  0.1687 -0.1882  0.1029
22858W        W27258  22.262   2.557  32.608  0.0809 -0.2209  0.0425
22859W        W27259   3.138   6.153  26.238 -0.1691 -0.1473 -0.1164
22860W        W27260  17.166   6.920   2.957  0.0977  0.0523 -0.2104
22861W        W27261  16.397   5.580  24.129  0.2959 -0.4135  0.0909
22862W        W27262  11.924   3.368   1.849 -0.1435 -0.2318 -0.0675
22863W        W27263   1.975   0.684  29.236  0.3136 -0.0700 -0.1765
22864W        W27264  22.472   3.205   2.342 -0.0089 -0.1396 -0.2366
22865W        W27265   5.014   5.921  11.782 -0.0092 -0.1593  0.1896
22866W        W27266  19.598   6.108  32.385 -0.7199  0.0270 -0.1946
22867W        W27267   8.810   2.020   3.264  0.0204  0.1900 -0.0650
22868W        W27268   3.751   5.544  14.328 -0.1189  0.0575 -0.0552
22869W        W27269  22.624   1.347  29.846  0.1047  0.2327 -0.0869
22870W        W27270  22.803   5.539   6.614  0.2588  0.1725  0.0420
22871W        W27271  16.976   4.168   5.679 -0.1761  0.0891 -0.1674
22872W        W27272  22.612   3.808   5.327  0.0555 -0.1432  0.0240
22873W        W27273  24.116   3.301  15.940  0.0023 -0.1498  0.1685
22874W        W27274  22.479   7.510   3.415  0.3427 -0.2048 -0.1603
22875W        W27275   3.032   4.521   1.611  0.1384  0.0787 -0.1252
22876W        W27276   9.563   0.275   3.924 -0.4460 -0.0164  0.3800
22877W        W27277   3.014   3.317   8.319 -0.0685 -0.2678  0.0269
22878W        W27278   2.868   4.971   1.328 -0.2206  0.0317  0.0090
22879W        W27279  15.747   7.117   4.785  0.2153 -0.2357 -0.0951
22880W        W27280  20.470   3.000   0.949 -0.3091  0.2869  0.0879
22881W        W27281  10.914   1.909  23.367 -0.0106  0.1670 -0.3414
22882W        W27282   2.338   0.245  28.178 -0.3304  0.1432 -0.1178
22883W        W27283   1.290   3.873   0.093 -0.0152 -0.0456 -0.2031
22884W        W27284   9.251   2.521  26.154  0.0969  0.0194  0.1046
22885W        W27285  22.066   3.095  24.575 -0.1692  0.3030 -0.0491
22886W        W27286  23.922   2.972  20.616 -0.0018 -0.0564  0.0133
22887W        W27287  11.290   7.800  23.572 -0.0479  0.2369 -0.0028
22888W        W27288  24.023   7.415  31.793  0.1523 -0.0924  0.0500
22889W        W27289  18.389   6.054   2.900 -0.0640 -0.1993 -0.1381
22890W        W27290  21.109   6.220  26.399  0.0893  0.0893  0.0532
22891W        W27291   2.553   1.468  31.099 -0.2331  0.1043  0.1311
22892W        W27292  21.437   5.362  15.246  0.2776 -0.2237  0.1525
22893W        W27293  10.287   0.775  32.321 -0.1677  0.3806  0.0535
22894W        W27294   3.497   2.270  27.427 -0.1360  0.0959  0.1467
22895W        W27295  13.986   5.461   5.872 -0.1009  0.2150 -0.2855
22896W        W27296   9.243   2.922  26.517  0.3332  0.1543  0.0253
22897W        W27297   9.899   0.678   6.304 -0.0248  0.0804 -0.1095
22898W        W27298   5.105   2.790   0.156  0.0671 -0.1082  0.2307
22899W        W27299  21.964   5.774   9.146 -0.3112 -0.1820 -0.1369
22900W        W27300   8.566   5.253   3.922 -0.0913 -0.1325 -0.1617
22901W        W27301  17.678   7.332   6.172 -0.0400 -0.1910  0.2137
22902W        W27302  22.266   4.739   9.808 -0.0601  0.2643 -0.2564
22903W        W27303  18.751   2.441  20.825  0.1379  0.2599  0.1880
22904W        W27304   4.362   6.240  10.139  0.3980  0.0517 -0.1945
22905W        W27305  14.795   7.512  22.475  0.2391  0.1348 -0.2285
22906W        W27306  15.118   4.138   2.489 -0.0209  0.0615 -0.1756
22907W        W27307  21.842   3.468  30.182  0.0259 -0.1931  0.1359
22908W        W27308  19.722   0.114  22.664 -0.1324 -0.1898  0.0300
22909W        W27309   9.499   6.210   2.812  0.2629 -0.0097  0.2579
22910W        W27310  10.974   4.183   2.575  0.0632 -0.1798 -0.0390
22911W        W27311  23.074   4.195  21.880 -0.1147 -0.0804 -0.1694
22912W        W27312  17.255   6.015   4.339  0.2665  0.2882 -0.1772
22913W        W27313  10.329   4.193  12.062  0.2252 -0.0197  0.1802
22914W        W27314   0.449   2.848   1.985  0.3567 -0.0545  0.3312
22915W        W27315  10.033   1.103   0.612 -0.1366  0.4682  0.0855
22916W        W27316  15.253   6.833   3.684  0.0320  0.0240 -0.0603
22917W        W27317  23.451   5.136  32.428 -0.0870 -0.2075  0.1533
22918W        W27318   5.857   6.166   8.545  0.0526 -0.1748  0.3963
22919W        W27319  13.408   7.316   4.752 -0.2215 -0.3714  0.0662
22920W        W27320  22.287   7.587  25.335  0.1106 -0.1084 -0.1337
22921W        W27321   1.263   2.722   6.090 -0.4443  0.0899  0.2633
22922W        W27322  15.594   0.972  27.793 -0.1579 -0.3474 -0.3606
22923W        W27323   3.233   7.821  24.765 -0.2222  0.1828 -0.0537
22924W        W27324  12.217   3.200  24.867  0.0400 -0.3693 -0.0264
22925W        W27325  10.714   6.880   2.645  0.1623 -0.2460 -0.2978
22926W        W27326   3.606   4.955   1.993  0.0738  0.0008  0.1203
22927W        W27327  18.018   7.251  10.474 -0.0093  0.1305  0.1963
22928W        W27328   6.483   6.891  13.189 -0.0837 -0.0446  0.2875
22929W        W27329  23.675   3.741  19.389  0.0036 -0.0965  0.0802
22930W        W27330  13.974   1.404  32.575 -0.0551 -0.1057  0.0030
22931W        W27331   5.266   4.037   8.577 -0.2442 -0.0986  0.1029
22932W        W27332   0.058   5.909  30.634  0.1515 -0.1364  0.2077
22933W        W27333  16.201   3.751   3.821 -0.0430  0.0573 -0.1691
22934W        W27334  11.020   2.647   5.750 -0.0772  0.2728 -0.1893
22935W        W27335   6.906   4.335  13.696 -0.1791 -0.0826 -0.1461
22936W        W27336   9.655   7.710   5.517  0.0120  0.1125  0.0697
22937W        W27337  13.193   0.703  29.750 -0.5384  0.0291 -0.0758
22938W        W27338   5.100   6.513  13.149 -0.1802  0.0426 -0.4406
22939W        W27339   3.662   3.732  26.530 -0.2334 -0.1394  0.1392
22940W        W27340  22.300   4.653  26.944  0.0056  0.2011  0.0692
22941W        W27341   2.045   1.612  29.618  0.0971 -0.2108 -0.2809
22942W        W27342   7.811   2.624  31.798  0.3591 -0.0487  0.1344
22943W        W27343   6.568   7.761  22.658 -0.1367 -0.0763  0.0239
22944W        W27344   4.595   1.928  11.826 -0.1324 -0.2102 -0.2936
22945W        W27345  20.611   2.162  19.032 -0.1870  0.0552  0.0224
22946W        W27346   9.115   0.571   6.720 -0.0751  0.0386 -0.2152
22947W        W27347   0.585   3.155  31.162  0.0226 -0.4843 -0.0606
22948W        W27348   1.233   5.443  30.098 -0.0202  0.0825 -0.1903
22949W        W27349  14.153   7.448  23.529  0.0899  0.1761 -0.0027
22950W        W27350   6.618   2.731  26.230  0.1801 -0.1420  0.1427
22951W        W27351   3.174   2.056  23.170  0.0570  0.1167 -0.1168
22952W        W27352   3.082   0.636  27.714  0.2414 -0.0170  0.0233
22953W        W27353   7.510   0.485  32.462 -0.0179 -0.0567  0.1459
22954W        W27354   2.246   2.868   8.820  0.0875 -0.1696  0.0419
22955W        W27355  24.924   5.573  16.733 -0.0251 -0.1236 -0.1347
22956W        W27356  15.090   3.881   9.977  0.0602 -0.0368  0.1410
22957W        W27357  13.577   3.813  29.763  0.2154  0.5376  0.1930
22958W        W27358   1.938   2.020   6.010  0.1468  0.0034  0.3901
22959W        W27359   0.861   2.151  19.282 -0.5117 -0.0452  0.5590
22960W        W27360   0.539   5.964   6.410  0.3731 -0.0933 -0.3344
22961W        W27361  18.515   2.266  32.034  0.0709 -0.0781 -0.2154
22962W        W27362  20.790   2.708  30.337 -0.0767 -0.1127  0.1255
22963W        W27363  13.865   7.245  28.294  0.1619  0.0077 -0.3250
22964W        W27364  10.695   3.556  11.714  0.3965  0.0182 -0.1594
22965W        W27365   8.931   3.896  15.928  0.2435  0.0405  0.0104
22966W        W27366  11.869   6.524  30.832  0.0951 -0.0722 -0.4535
22967W        W27367  22.974   4.159   0.279 -0.1941  0.0486 -0.1335
22968W        W27368  17.913   0.214  21.904  0.0531 -0.1449  0.0142
22969W        W27369  10.459   7.548   4.907 -0.1923  0.1378  0.3310
22970W        W27370  20.391   0.566   5.362  0.2009  0.3500 -0.0250
22971W        W27371  10.145   3.108   4.966 -0.2498  0.0333  0.2898
22972W        W27372  23.356   0.073  19.971 -0.0168  0.3113  0.1158
22973W        W27373  22.175   1.696  24.495 -0.1067 -0.1767 -0.0219
22974W        W27374   1.890   5.294  10.028 -0.1165  0.0288 -0.1384
22975W        W27375  21.497   3.976   5.944 -0.3124 -0.1153 -0.1854
22976W        W27376  11.636   4.112  27.879 -0.0551  0.0950 -0.1347
22977W        W27377  18.420   2.644  17.040 -0.2843  0.2308 -0.0309
22978W        W27378   9.336   2.433  27.254 -0.2150  0.2305 -0.1111
22979W        W27379  20.994   5.564   0.831  0.2034  0.1146  0.0100
22980W        W27380  12.520   1.322  13.703 -0.1913  0.2010 -0.0183
22981W        W27381  19.204   4.862   4.964  0.0271 -0.0785  0.3044
22982W        W27382  12.034   5.784  12.992 -0.1025  0.0787  0.0503
22983W        W27383   5.999   2.538  22.267  0.0607  0.0915  0.2001
22984W        W27384   3.792   6.959  11.419  0.1599 -0.1500  0.1221
22985W        W27385   5.755   2.037   4.305  0.1327  0.1556 -0.0288
22986W        W27386   6.448   3.221  32.322  0.3523 -0.1053  0.1927
22987W        W27387   7.920   4.023   3.598 -0.2796 -0.0090  0.0643
22988W        W27388   5.902   6.365  26.891 -0.0073  0.1191 -0.1588
22989W        W27389  17.729   3.561  21.702 -0.0146  0.0835  0.4116
22990W        W27390  14.695   1.137   4.868 -0.3612  0.2125  0.1066
22991W        W27391  15.831   5.381   5.123 -0.2101 -0.1048  0.1213
22992W        W27392  12.244   7.511   1.432 -0.0070 -0.0793 -0.0328
22993W        W27393   5.519   3.982  17.767  0.0430  0.0813  0.2774
22994W        W27394   0.805   7.235   8.388 -0.1944 -0.0443 -0.1340
22995W        W27395  10.269   0.195   0.839 -0.1332  0.2670 -0.0436
22996W        W27396  24.137   7.138  21.431  0.0902 -0.0423  0.0301
22997W        W27397  14.890   4.122  24.920 -0.0140 -0.0680 -0.0591
22998W        W27398  22.503   1.736  31.387  0.1319  0.3318  0.2468
22999W        W27399   4.614   7.464   7.131 -0.0748  0.2236  0.0520
23000W        W27400   1.305   1.448  28.155 -0.0619  0.0890  0.0155
23001W        W27401  24.201   7.663  17.705 -0.1461  0.0350  0.1280
23002W        W27402   2.259   4.698  28.199 -0.3983 -0.2050  0.0616
23003W        W27403  10.299   1.888   4.397 -0.2619  0.4319 -0.2329
23004W        W27404   8.114   2.504  23.991 -0.1044 -0.0036  0.2779
23005W        W27405  23.668   0.314  32.381 -0.0893 -0.0165  0.0731
23006W        W27406   5.029   3.430   6.579 -0.0928 -0.0827  0.1551
23007W        W27407   2.242   2.646  31.732  0.2042  0.2455  0.0872
23008W        W27408   3.038   3.114  10.024 -0.0700 -0.2014  0.3114
23009W        W27409  11.049   6.580  28.739  0.1746 -0.0772  0.2059
23010W        W27410  12.250   4.134  15.222  0.1429 -0.1714 -0.0691
23011W        W27411   4.525   6.745  25.076  0.2928  0.3435  0.2550
23012W        W27412  13.101   1.334   6.193 -0.1819  0.2266  0.3173
23013W        W27413   0.040   2.200   0.552  0.0567 -0.0415  0.1473
23014W        W27414   4.143   3.248  14.725 -0.1438 -0.1411 -0.2068
23015W        W27415  19.942   2.307   6.677  0.2483  0.2174 -0.1112
23016W        W27416  18.954   1.132  18.923 -0.0141 -0.1075  0.0882
23017W        W27417  18.513   7.228   5.575  0.2092  0.1532  0.0300
23018W        W27418  11.143   7.069  25.613  0.0618  0.0097  0.1033
23019W        W27419   6.865   7.459  25.286  0.0006  0.0771  0.2003
23020W        W27420   3.339   2.140  10.144 -0.2595 -0.0176 -0.1764
23021W        W27421  21.911   6.437  31.857 -0.1416  0.2674  0.0423
23022W        W27422  21.839   0.645  20.096 -0.2007  0.0111  0.1788
23023W        W27423   3.867   5.138  26.658  0.0816  0.0708 -0.1521
23024W        W27424   8.060   7.157   9.470  0.1964 -0.0104 -0.0629
23025W        W27425   3.000   1.825  29.604  0.0613  0.1334  0.1214
23026W        W27426  18.502   7.487  24.225 -0.1205  0.0339 -0.3304
23027W        W27427  24.799   1.011  16.637 -0.1253 -0.3477 -0.0683
23028W        W27428  16.142   2.177  31.458  0.2863  0.1008 -0.3212
23029W        W27429   6.810   6.225  25.845  0.2311  0.0750 -0.2141
23030W        W27430   9.278   5.958  30.735 -0.1438  0.0381  0.1041
23031W        W27431  22.051   0.187  20.966  0.2616  0.3047  0.1547
23032W        W27432   8.765   6.339   3.411 -0.1933  0.1576  0.1517
23033W        W27433  24.389   0.389   2.460 -0.1710 -0.0741  0.2845
23034W        W27434  10.564   4.644  15.935 -0.0146  0.2162 -0.0234
23035W        W27435  14.355   4.835   2.280 -0.4454  0.0079  0.3333
23036W        W27436   8.076   4.581  25.430  0.0192 -0.0202 -0.0599
23037W        W27437   9.098   6.582   8.947  0.0464  0.0072 -0.0682
23038W        W27438   3.439   2.787   7.803 -0.2015  0.1676 -0.3309
23039W        W27439   8.273   6.966  13.971 -0.1227 -0.0908 -0.0077
23040W        W27440  18.587   1.392  31.122 -0.2157 -0.0517 -0.0797
23041W        W27441  23.777   6.635  24.808  0.1548 -0.3936  0.1004
23042W        W27442   7.032   2.903  12.473 -0.0948  0.1303 -0.2634
23043W        W27443  12.003   7.338  23.234  0.1126  0.2227 -0.1392
23044W        W27444  23.905   1.936   5.985  0.2712 -0.0990 -0.3383
23045W        W27445  21.932   4.158   5.582  0.4638 -0.0699  0.0717
23046W        W27446   0.032   3.668  29.328  0.1074  0.2581 -0.0832
23047W        W27447  17.821   6.961  32.684  0.1245  0.2266  0.0779
23048W        W27448  19.880   3.072  14.729  0.1295 -0.1870 -0.1167
23049W        W27449   8.800   1.325   9.118  0.0845 -0.3309 -0.0529
23050W        W27450   8.077   6.599  12.275 -0.1214 -0.0212 -0.0143
23051W        W27451  21.135   1.939  28.038  0.0829  0.1399 -0.0277
23052W        W27452  21.204   0.832  25.256  0.2490 -0.1730 -0.0820
23053W        W27453  19.961   4.575  15.048 -0.2104  0.0392  0.1763
23054W        W27454   6.170   7.305  13.108 -0.0864 -0.3688  0.0661
23055W        W27455   7.751   4.819  15.684  0.0594  0.0321 -0.0946
23056W        W27456  23.698   0.245   2.171  0.1317 -0.0856 -0.1538
23057W        W27457  20.894   1.110  30.754  0.0896 -0.1156  0.0267
23058W        W27458   9.789   0.237  25.839 -0.0385 -0.0760 -0.1099
23059W        W27459   7.828   7.800  13.161 -0.2964 -0.0059 -0.1662
23060W        W27460  19.070   0.784   4.022 -0.1941  0.5508  0.1766
23061W        W27461  24.455   3.876  10.173  0.0300  0.1150 -0.0345
23062W        W27462  18.572   1.097  32.215  0.1427  0.1171  0.0604
23063W        W27463  11.512   7.072   4.957 -0.0894  0.0631  0.1281
23064W        W27464  22.812   0.093  15.938 -0.0312 -0.3963 -0.2117
23065W        W27465   6.590   3.826  29.140  0.1416 -0.0660 -0.3376
23066W        W27466  16.922   2.988  29.803  0.0872 -0.1201  0.0203
23067W        W27467   0.375   7.143  17.629  0.0600  0.0346 -0.1935
23068W        W27468  23.287   1.221  15.482  0.2472  0.0599 -0.1062
23069W        W27469   9.691   4.217  16.316  0.1969 -0.1310  0.0566
23070W        W27470  17.497   7.694  26.457  0.1005 -0.0039 -0.0355
23071W        W27471  14.774   2.274  10.275 -0.2146 -0.0471 -0.0161
23072W        W27472   8.294   7.230  23.546 -0.0192  0.0004 -0.0921
23073W        W27473   5.175   4.644  22.903  0.1752  0.0416 -0.0344
23074W        W27474  10.449   3.404   9.235 -0.0284  0.0593  0.1353
23075W        W27475  19.868   0.265   5.568  0.0047  0.0300 -0.0736
23076W        W27476  14.553   7.370  27.911  0.0906 -0.0848 -0.1752
23077W        W27477  10.572   4.228   2.919 -0.0013  0.0255 -0.1717
23078W        W27478  21.654   7.603  32.295  0.0188  0.0083  0.0948
23079W        W27479  15.333   1.961   8.746 -0.0407  0.2496  0.2882
23080W        W27480   0.903   2.389  17.850 -0.1237  0.1938  0.1745
23081W        W27481  12.541   4.059   0.287  0.0316  0.0206  0.1730
23082W        W27482  18.087   1.697  27.603  0.0084  0.0837  0.1397
23083W        W27483  15.203   4.927  20.494 -0.0155 -0.1405  0.2290
23084W        W27484  10.090   4.145   2.995  0.0144 -0.0733 -0.2064
23085W        W27485  21.100   1.878   4.019  0.4443  0.1603  0.1844
23086W        W27486   5.932   4.210   3.952 -0.0241  0.1400 -0.0620
23087W        W27487  13.999   5.684   2.645  0.0557  0.0197  0.2027
23088W        W27488   7.939   7.451  13.990  0.0250  0.0896  0.2064
23089W        W27489  10.719   4.323  25.753  0.2690  0.0743  0.1288
23090W        W27490   1.947   2.844  11.438  0.3513  0.0333  0.0554
23091W        W27491  12.012   5.424  28.219 -0.1146 -0.2319  0.2513
23092W        W27492   1.383   2.218   3.347 -0.0915 -0.3336  0.1326
23093W        W27493  13.528   0.421   3.165 -0.1620  0.1997  0.3094
23094W        W27494  23.845   4.551   0.941  0.2333 -0.0531 -0.2044
23095W        W27495   6.980   6.044  31.058  0.5241 -0.0112 -0.1830
23096W        W27496   1.257   2.885   2.270 -0.1135  0.0809  0.0583
23097W        W27497   6.289   1.108  24.698  0.1870  0.0280 -0.0367
23098W        W27498  19.999   3.836   8.307 -0.0728 -0.1133 -0.0938
23099W        W27499   1.747   4.933  32.235  0.0256  0.2299 -0.2237
23100W        W27500   1.261   7.133   3.876 -0.1379 -0.0910  0.0207
23101W        W27501   6.391   4.554  12.112  0.2057 -0.1988  0.1265
23102W        W27502   4.767   3.942   1.574 -0.1432 -0.2665  0.1813
23103W        W27503  10.632   5.494   7.372 -0.2310 -0.6336  0.1087
23104W        W27504  21.935   7.179  25.985 -0.0199 -0.1180  0.2366
23105W        W27505  13.191   0.924  10.988 -0.2079  0.2340 -0.0477
23106W        W27506  12.801   1.314  27.971 -0.1020 -0.3888 -0.2435
23107W        W27507  24.909   2.860  22.358 -0.0255 -0.0666 -0.2065
23108W        W27508   8.623   2.294  31.287  0.0916  0.1907 -0.1876
23109W        W27509  10.439   3.331  14.369  0.0601 -0.0274  0.1158
23110W        W27510  18.004   3.451   9.309 -0.2225  0.1907 -0.0735
23111W        W27511   4.068   2.118   1.291  0.1859 -0.0288  0.0801
23112W        W27512   0.009   7.435  23.558 -0.0653 -0.1029 -0.1880
23113W        W27513  17.182   7.657  32.203  0.1255  0.1466  0.0667
23114W        W27514  10.207   1.148  12.727 -0.3839  0.1152  0.2884
23115W        W27515  17.606   7.767  32.434 -0.0541 -0.1230  0.0224
23116W        W27516  10.455   6.829  25.773 -0.0207  0.1217 -0.0951
23117W        W27517  24.883   0.278  24.694  0.0976  0.3833 -0.3446
23118W        W27518  12.355   4.042  24.191  0.0466  0.0670  0.1828
23119W        W27519   7.529   2.851   0.411  0.1165  0.0536 -0.2817
23120W        W27520  21.454   2.764  26.422 -0.0215 -0.2654  0.2111
23121W        W27521  14.649   6.017  11.705 -0.2929 -0.1402 -0.1228
23122W        W27522  24.159   3.287   5.629 -0.1963 -0.3058  0.0267
23123W        W27523  11.772   6.326  26.787 -0.1288 -0.1172 -0.0436
23124W        W27524   2.270   5.625  12.551 -0.0343  0.1624  0.0473
23125W        W27525  21.993   1.870  17.897 -0.0968 -0.1618  0.1178
23126W        W27526   2.951   4.404   4.433  0.0191  0.0349  0.0326
23127W        W27527  23.667   1.177  15.879  0.3400 -0.4083  0.2295
23128W        W27528   4.902   4.410  14.974  0.3160  0.0998 -0.1127
23129W        W27529  15.531   6.308  26.424 -0.5051  0.3301 -0.1461
23130W        W27530  16.627   0.289   0.647 -0.0461  0.2889 -0.1804
23131W        W27531   3.688   4.964   1.383 -0.0601  0.2448  0.2454
23132W        W27532  13.161   1.970  21.864  0.0585 -0.1308  0.0626
23133W        W27533  25.003   6.958  26.119 -0.0599  0.2876  0.3244
23134W        W27534  12.835   6.913   8.035  0.2347  0.2655  0.0526
23135W        W27535  20.006   2.613   2.474 -0.2876  0.0085 -0.0580
23136W        W27536   6.593   0.952   8.089 -0.2143 -0.1571 -0.0304
23137W        W27537  16.070   3.660   8.400  0.0487 -0.1053 -0.2194
23138W        W27538  23.701   4.581  22.452 -0.1726 -0.1862 -0.1591
23139W        W27539   5.398   0.468  27.747  0.2552 -0.1111  0.2828
23140W        W27540   8.332   6.886   5.775  0.0044 -0.0338  0.2098
23141W        W27541  21.943   0.212  32.410  0.0140 -0.0444  0.5129
23142W        W27542   4.380   5.114  15.276  0.0610 -0.3452 -0.2025
23143W        W27543  16.265   7.345  21.766  0.0510  0.3127 -0.3561
23144W        W27544   0.456   3.841   8.639 -0.1266 -0.2055  0.1941
23145W        W27545   3.720   7.797   2.760 -0.1351 -0.1490  0.0313
23146W        W27546  15.228   1.724  23.729 -0.0643 -0.0442 -0.0150
23147W        W27547  24.851   4.122   3.811  0.1413  0.2544  0.0873
23148W        W27548  12.826   7.790   7.814 -0.0217  0.2606  0.1997
23149W        W27549  24.420   3.263  18.990  0.0155 -0.0942  0.2100
23150W        W27550  23.337   4.624   0.936 -0.0469 -0.0867 -0.1534
23151W        W27551  14.634   0.318   3.761 -0.0630  0.0984  0.1168
23152W        W27552   9.888   1.736   9.720 -0.2680 -0.0380  0.1005
23153W        W27553  16.754   5.565  21.715 -0.1854 -0.2871 -0.1344
23154W        W27554  18.181   3.555  22.495  0.0412  0.1485 -0.2602
23155W        W27555   9.212   0.994  10.575  0.1172 -0.1082 -0.0364
23156W        W27556   9.053   1.407  14.106 -0.5261 -0.1028 -0.1667
23157W        W27557   1.707   1.137  10.849 -0.0301  0.0839 -0.2191
23158W        W27558   0.025   6.635   6.182  0.2074  0.0935  0.0287
23159W        W27559  22.224   3.227   0.071  0.1230  0.1152 -0.0568
23160W        W27560  12.815   3.485  24.131 -0.1409  0.2004 -0.3744
23161W        W27561  23.376   4.958  17.698  0.1979  0.3401  0.0718
23162W        W27562  21.990   0.041  17.462 -0.0367 -0.1111 -0.1143
23163W        W27563   7.766   2.810  28.860  0.1233 -0.1890  0.0102
23164W        W27564   3.942   1.466   0.099  0.0765  0.0958 -0.0355
23165W        W27565   5.034   5.399  31.009  0.0469 -0.4140 -0.1068
23166W        W27566   0.940   1.943   5.929 -0.1193  0.0067 -0.2052
23167W        W27567   5.379   3.891  27.110 -0.1840 -0.2549 -0.0847
23168W        W27568   9.681   4.901  29.440  0.0525  0.3321 -0.0324
23169W        W27569   2.651   4.710  26.781  0.0077 -0.1889 -0.1365
23170W        W27570   3.687   5.205  21.940  0.0407  0.0094 -0.1986
23171W        W27571   8.501   6.645   8.925 -0.0671 -0.2135  0.0156
23172W        W27572  15.915   3.499  19.815 -0.0714  0.0789 -0.1237
23173W        W27573  18.620   5.640   4.292 -0.0636 -0.0660  0.0494
23174W        W27574  20.995   2.763  30.999  0.1291 -0.1875 -0.0126
23175W        W27575   9.083   5.271  22.752  0.0486  0.1367  0.0550
23176W        W27576   0.334   7.678  21.287 -0.0403  0.0052  0.1545
23177W        W27577   4.574   3.034   4.959 -0.0802 -0.2677 -0.1023
23178W        W27578  24.678   5.754  10.092 -0.1572 -0.1162  0.0916
23179W        W27579  22.785   2.688   6.123 -0.1849 -0.1711  0.4155
23180W        W27580   5.277   7.137   4.910  0.1099  0.0494  0.0239
23181W        W27581  11.855   2.378  16.720 -0.1192 -0.1982  0.1144
23182W        W27582   3.659   3.926   4.317  0.1707 -0.0429  0.1247
23183W        W27583   7.682   7.060   2.019 -0.1685 -0.0466 -0.1186
23184W        W27584   8.648   6.689   0.671 -0.0395  0.1117  0.0953
23185W        W27585   9.180   6.616  12.400  0.3268 -0.0727  0.1019
23186W        W27586  24.944   1.228  20.205 -0.2743 -0.2965 -0.0396
23187W        W27587  15.349   2.421  20.072  0.0441 -0.1836 -0.1354
23188W        W27588  13.878   5.311   8.571  0.1258 -0.0458 -0.2726
23189W        W27589   9.283   5.748  25.003 -0.0314 -0.0047 -0.0236
23190W        W27590   1.527   4.353   0.565 -0.1214 -0.0576 -0.0512
23191W        W27591   9.948   4.535   9.412  0.2512 -0.0404 -0.1636
23192W        W27592   3.350   3.388  23.680  0.1538 -0.2848 -0.3377
23193W        W27593  13.354   7.429  13.128  0.0937 -0.1175 -0.2605
23194W        W27594  19.704   4.179  28.023 -0.0351  0.4183 -0.0733
23195W        W27595   6.116   6.168  29.107 -0.1674  0.3074  0.0043
23196W        W27596   1.846   7.316  31.713  0.1919  0.2578  0.0906
23197W        W27597  16.167   6.163  26.062 -0.1277  0.2944 -0.1562
23198W        W27598  11.149   3.626  14.777  0.3006  0.2231 -0.0671
23199W        W27599  13.264   1.861   8.855  0.1370 -0.2649 -0.2373
23200W        W27600  17.471   3.360   6.433 -0.1850  0.0718 -0.0768
23201W        W27601  11.766   3.286  27.251 -0.1377  0.0303 -0.1668
23202W        W27602   9.252   5.238  23.709 -0.0852  0.2371 -0.0700
23203W        W27603  24.125   6.997   9.427  0.4653 -0.1325  0.1321
23204W        W27604  14.945   5.912   0.999 -0.1145  0.3432 -0.2847
23205W        W27605   6.391   7.634  28.259 -0.2169  0.0361 -0.2028
23206W        W27606  14.867   7.429  32.257 -0.0689  0.0433  0.2709
23207W        W27607   9.268   6.073   3.320 -0.0739  0.1503  0.0831
23208W        W27608  13.918   6.875  11.259 -0.3031 -0.4351  0.1148
23209W        W27609   3.450   0.454  30.069 -0.1507 -0.1459 -0.2382
23210W        W27610  19.905   4.545  30.208 -0.1015  0.1876 -0.2669
23211W        W27611  12.935   0.896   4.209 -0.0446  0.2393  0.1547
23212W        W27612  15.801   0.984   6.742 -0.1926 -0.1129 -0.0388
23213W        W27613   6.522   3.344  23.861 -0.0405 -0.0366  0.0891
23214W        W27614  14.386   1.505  26.456  0.0612  0.0746  0.0938
23215W        W27615  20.424   5.318  16.365  0.1219  0.0886 -0.0054
23216W        W27616   1.631   1.249   2.380 -0.1165  0.0417  0.0925
23217W        W27617  16.479   1.791   1.425 -0.4510  0.1976 -0.0232
23218W        W27618  22.202   0.541  16.720  0.1309  0.0937  0.2378
23219W        W27619  22.593   4.427  17.023  0.1385  0.0870  0.2906
23220W        W27620  20.594   0.607  23.252  0.1682 -0.1816 -0.0953
23221W        W27621   9.930   2.066  11.988 -0.3266 -0.1006 -0.1036
23222W        W27622  18.115   2.631  30.524 -0.0964 -0.2533  0.0806
23223W        W27623  23.899   6.630  16.533 -0.3007 -0.1293 -0.1343
23224W        W27624  22.574   6.511  30.692  0.0316  0.0215 -0.1350
23225W        W27625  16.280   4.826   3.588 -0.1186  0.0523 -0.0993
23226W        W27626   6.125   1.612  15.308  0.4242 -0.0142 -0.1335
23227W        W27627  17.086   7.233  24.477 -0.1870  0.1747 -0.0390
23228W        W27628  21.850   7.272  25.503 -0.0270  0.0111  0.0034
23229W        W27629  17.895   2.804   5.203 -0.0293 -0.3254 -0.0984
23230W        W27630   2.303   5.657  10.767 -0.1655 -0.0975  0.0120
23231W        W27631   3.985   5.907   5.999 -0.1001 -0.1258 -0.0012
23232W        W27632   5.243   3.930  25.172 -0.0004 -0.0968  0.1732
23233W        W27633  19.892   1.443   1.417  0.0184 -0.1591  0.0007
23234W        W27634   0.078   7.598  29.941 -0.1770 -0.0097  0.1735
23235W        W27635  11.246   7.232   8.005  0.1735 -0.0825 -0.0117
23236W        W27636  22.721   2.328  15.689  0.2107  0.0608  0.0532
23237W        W27637  12.097   6.007   8.396 -0.2114 -0.1168  0.1156
23238W        W27638   8.115   5.274   4.204 -0.2396 -0.0762  0.3140
23239W        W27639  22.190   5.210  18.206  0.3463 -0.0833  0.1462
23240W        W27640   5.812   3.053  30.964 -0.0512 -0.0832  0.2668
23241W        W27641  13.109   7.137  24.876  0.2102  0.0558  0.0819
23242W        W27642   9.660   6.490  23.335  0.2808 -0.1718 -0.0363
23243W        W27643  10.386   6.426  12.439  0.1461 -0.1794  0.0882
23244W        W27644   5.026   2.675  27.925 -0.0995 -0.1339 -0.2016
23245W        W27645  15.142   2.149  21.802  0.1435  0.0540  0.0596
23246W        W27646  12.988   7.649  30.338 -0.3398  0.0013  0.0786
23247W        W27647   3.208   5.445   0.380 -0.1485 -0.3146 -0.0228
23248W        W27648   1.703   0.618  10.791  0.0299  0.1869  0.1187
23249W        W27649  17.704   1.377  21.442  0.0134 -0.0464  0.0059
23250W        W27650   8.205   3.590  17.187 -0.0178  0.0997 -0.1960
23251W        W27651  12.451   6.143   1.631 -0.2349  0.0210  0.0176
23252W        W27652   9.575   4.272  17.837  0.0096  0.0055  0.1156
23253W        W27653   9.191   3.709  26.785  0.0598 -0.1444 -0.0144
23254W        W27654  13.896   7.369   7.222  0.0328  0.0131  0.0716
23255W        W27655   0.258   3.714   2.289 -0.3372  0.0312  0.0495
23256W        W27656  22.604   0.709  32.584 -0.0292  0.0233 -0.0839
23257W        W27657   7.200   3.833  25.073  0.0493 -0.1134 -0.0690
23258W        W27658   9.939   2.142  28.509  0.5036 -0.0220 -0.0719
23259W        W27659  19.177   2.248  20.629  0.1011  0.3272 -0.0997
23260W        W27660  14.025   6.887   3.710 -0.2080 -0.0803  0.0134
23261W        W27661  11.435   2.653  15.789 -0.1166  0.4342 -0.1904
23262W        W27662  10.570   2.519  24.497 -0.3586  0.0605  0.1126
23263W        W27663  19.252   3.563  27.934 -0.0021  0.2994  0.1528
23264W        W27664   3.897   7.192  21.689  0.0813 -0.1904  0.0613
23265W        W27665   6.845   6.412  23.463  0.1275 -0.1122  0.4141
23266W        W27666  20.413   0.325  16.008 -0.0199  0.0373  0.1285
23267W        W27667  18.115   1.877  18.123 -0.3002  0.0336 -0.4351
23268W        W27668   0.292   1.275  22.278  0.0147 -0.0655  0.3702
23269W        W27669  18.361   2.786   4.395 -0.2420  0.1010 -0.0393
23270W        W27670  24.044   0.044  10.318 -0.0835 -0.2824  0.4225
23271W        W27671   6.874   6.480  11.716  0.0456  0.3475  0.0262
23272W        W27672  15.000   7.306   3.752 -0.3395 -0.1930  0.3337
23273W        W27673   7.091   2.734   7.404  0.0972 -0.1667  0.2557
23274W        W27674   7.122   4.959  12.455  0.0811 -0.0851  0.0878
23275W        W27675   1.387   4.843  28.602 -0.1438 -0.0580  0.0664
23276W        W27676   2.998   3.066  30.819 -0.2309  0.0065  0.0002
23277W        W27677   8.993   2.275  23.611 -0.0755 -0.1214 -0.0969
23278W        W27678  14.280   4.250   7.281  0.2301  0.1003 -0.3389
23279W        W27679   5.173   0.741  25.214  0.2784  0.0084  0.1899
23280W        W27680   2.908   6.902  18.348 -0.1495  0.1400  0.0531
23281W        W27681  22.002   1.704  19.375  0.0124 -0.1877  0.2047
23282W        W27682  20.450   1.615  15.176 -0.1832  0.2646  0.0856
23283W        W27683  18.038   2.251   6.741  0.1256  0.1346 -0.2186
23284W        W27684  12.901   7.016  14.740 -0.1453 -0.1891  0.0801
23285W        W27685  13.339   7.352   1.478 -0.0778 -0.1050 -0.1179
23286W        W27686  19.978   0.205   0.891  0.2333 -0.0418  0.0933
23287W        W27687   9.860   3.940  10.895  0.1302  0.0430  0.2123
23288W        W27688   1.114   0.448   6.148 -0.1997 -0.0160  0.1909
23289W        W27689  12.872   4.918  30.107  0.2562  0.1092 -0.2711
23290W        W27690  23.412   3.362  32.509  0.1379 -0.2633  0.3369
23291W        W27691  16.611   0.728  21.947  0.1717 -0.0356 -0.0689
23292W        W27692   3.925   1.235   6.676  0.2376 -0.1358 -0.3204
23293W        W27693  22.572   6.491   2.091 -0.0086 -0.1298  0.2488
23294W        W27694   2.772   6.970  31.661 -0.1016 -0.1551 -0.3634
23295W        W27695   4.818   4.263   8.203 -0.0819 -0.1410  0.3973
23296W        W27696   9.449   6.898  24.879  0.0118  0.0504 -0.0640
23297W        W27697   6.350   1.666  29.997 -0.2631  0.0773  0.0425
23298W        W27698   5.080   2.440  31.544  0.0000 -0.2788 -0.2759
23299W        W27699  16.735   7.722  26.445  0.0615 -0.0641  0.0040
23300W        W27700   9.206   2.012   8.663 -0.2624  0.0307 -0.0602
23301W        W27701  18.244   5.583   8.453 -0.0170 -0.0760  0.3742
23302W        W27702  18.004   4.868  18.719 -0.1803  0.0198  0.0102
23303W        W27703  12.926   3.838   1.137 -0.1541  0.1078  0.0440
23304W        W27704  23.531   1.002   1.345 -0.0160 -0.0743 -0.0235
23305W        W27705   6.251   5.089   7.513 -0.1473 -0.0006 -0.0543
23306W        W27706  17.245   3.332  27.046  0.2812 -0.0841  0.1770
23307W        W27707  13.410   5.342   2.104 -0.1022 -0.0669  0.0809
23308W        W27708  24.250   0.628   2.934 -0.1015  0.0547  0.1182
23309W        W27709  10.604   2.716  14.757  0.2629 -0.1982 -0.0031
23310W        W27710   3.664   2.510  13.087  0.1469 -0.0295 -0.1101
23311W        W27711  18.444   5.303  32.080  0.3452  0.1584  0.1705
23312W        W27712   1.249   7.322  24.307 -0.2800  0.0704 -0.0792
23313W        W27713   9.385   2.613   0.102 -0.1283  0.3515 -0.2795
23314W        W27714  11.750   3.438   3.243  0.3392  0.1552  0.3012
23315W        W27715  17.888   1.353  29.295 -0.0406 -0.1299  0.1099
23316W        W27716  10.806   0.981   7.190  0.2589 -0.2246  0.0656
23317W        W27717   1.043   7.562  26.626 -0.0832 -0.2007  0.3429
23318W        W27718   8.304   4.124  29.303  0.1963 -0.1016  0.0748
23319W        W27719   7.834   0.473  30.610 -0.1346  0.1162  0.3858
23320W        W27720   4.275   0.388  28.562  0.1498 -0.0574  0.3499
23321W        W27721   2.164   1.543   6.181 -0.0484  0.1059 -0.0013
23322W        W27722  11.885   1.399   6.815  0.0754  0.1706  0.2139
23323W        W27723   7.210   2.572  29.912  0.1504 -0.0480  0.1657
23324W        W27724   2.153   0.869   4.846  0.0597  0.0637  0.2779
23325W        W27725   4.491   7.419  13.552  0.2074  0.3175 -0.1485
23326W        W27726   1.323   3.130   3.963  0.2586  0.1972  0.2277
23327W        W27727   6.784   6.753   1.668 -0.1372 -0.0026  0.2419
23328W        W27728  14.269   7.099  10.463  0.0630 -0.0219  0.2223
23329W        W27729   8.598   3.506  15.887  0.2244 -0.0507 -0.0627
23330W        W27730  22.592   7.187  22.300  0.0768  0.1891  0.1595
23331W        W27731  14.226   3.494   4.265 -0.0529  0.0529 -0.3716
23332W        W27732   1.764   7.232  30.341  0.1022  0.0154 -0.0113
23333W        W27733  16.461   7.690   3.830 -0.0969 -0.2294  0.0494
23334W        W27734   3.798   0.470  12.353  0.2150  0.2105  0.0390
23335W        W27735  13.319   5.705   0.473 -0.0938  0.0542  0.0753
23336W        W27736   9.259   5.808  28.499 -0.2000 -0.1579  0.0137
23337W        W27737   8.544   5.490  25.595 -0.0618 -0.3057  0.1132
23338W        W27738  10.126   2.934  27.278 -0.3974 -0.0216  0.0881
23339W        W27739  24.148   1.130  18.640 -0.1421 -0.1504 -0.1686
23340W        W27740   9.613   6.072  31.099 -0.2424  0.0583 -0.2128
23341W        W27741  16.683   5.835  17.104 -0.3221  0.0139  0.0882
23342W        W27742  12.628   0.965   8.594  0.1813 -0.1008 -0.1710
23343W        W27743   8.352   1.405  28.920  0.0700  0.1178 -0.4219
23344W        W27744  18.739   2.913  32.623 -0.2215  0.1084 -0.2124
23345W        W27745   5.861   7.349  31.430  0.0511  0.2341 -0.3559
23346W        W27746  14.973   3.810  26.067 -0.1470 -0.0706 -0.1571
23347W        W27747   0.738   5.295  29.429 -0.1605 -0.0225 -0.0610
23348W        W27748  14.085   4.947   6.012 -0.3017  0.0541  0.2040
23349W        W27749   3.324   4.735  29.256  0.0691  0.0438  0.0256
23350W        W27750  13.019   3.272  28.133 -0.2037  0.1179 -0.1255
23351W        W27751   7.510   6.810   3.046 -0.1484  0.0660  0.1235
23352W        W27752   9.644   6.832  10.543  0.2249  0.0837 -0.4099
23353W        W27753   8.639   7.656  10.524  0.1208 -0.1306  0.2133
23354W        W27754  14.812   7.614  21.678  0.0216 -0.1138  0.2463
23355W        W27755   0.388   5.265  26.902 -0.2600 -0.0947 -0.1397
23356W        W27756  12.349   2.364  24.451  0.2601 -0.0257 -0.1489
23357W        W27757  19.957   7.339   1.704 -0.1504 -0.0412 -0.0675
23358W        W27758  14.301   1.300  11.258  0.2449 -0.3210  0.0775
23359W        W27759  14.005   6.371  24.669  0.1120  0.2891  0.0590
23360W        W27760  20.166   7.710  18.888 -0.2282 -0.0335 -0.4915
23361W        W27761  12.270   2.002  28.635 -0.1412 -0.1815 -0.1445
23362W        W27762   7.046   0.212  16.835  0.3373 -0.3581 -0.0761
23363W        W27763   2.419   5.784   1.208 -0.0010 -0.2257  0.4439
23364W        W27764  11.056   3.733   8.829  0.1312 -0.1975  0.0040
23365W        W27765   0.119   7.207  24.945  0.0829  0.0407  0.2869
23366W        W27766   8.300   7.623  15.965  0.0106  0.1417  0.2743
23367W        W27767  19.751   5.088   7.124  0.0157  0.0445 -0.1627
23368W        W27768  11.049   5.543  15.439  0.1823  0.0755 -0.4757
23369W        W27769   8.216   4.029  25.086  0.0208 -0.0737  0.0809
23370W        W27770  12.866   7.793   5.296 -0.2109 -0.1134  0.0574
23371W        W27771   1.394   0.663   5.161  0.0433  0.0531 -0.2540
23372W        W27772  24.715   3.106   7.123  0.2129  0.4095 -0.1512
23373W        W27773  21.885   4.294  18.512  0.0852 -0.0502 -0.1255
23374W        W27774  24.491   5.090  24.822 -0.2400  0.0369  0.0598
23375W        W27775   1.280   5.066   1.601  0.1649 -0.1137 -0.0836
23376W        W27776   8.886   7.506  22.967 -0.1252  0.1942 -0.1781
23377W        W27777   7.528   5.045  10.772  0.3634  0.0467 -0.1074
23378W        W27778  10.693   4.947  17.879  0.0349 -0.0649  0.2300
23379W        W27779  19.348   5.707   4.823 -0.0060  0.1211 -0.0478
23380W        W27780  18.574   4.325  24.471 -0.0019 -0.2184 -0.1509
23381W        W27781  20.913   6.684   0.062 -0.0196 -0.0487  0.1751
23382W        W27782   1.704   1.322  21.830  0.0064 -0.3908  0.4374
23383W        W27783   9.204   6.064  10.982 -0.0526 -0.1416 -0.0839
23384W        W27784  18.683   5.078  24.055 -0.0377 -0.0587  0.1780
23385W        W27785  17.381   6.351  16.806  0.2442 -0.0736 -0.0065
23386W        W27786   1.510   2.973   9.467  0.2260  0.2787  0.3318
23387W        W27787   3.442   7.782  22.201 -0.0688  0.1108  0.2443
23388W        W27788  19.587   3.034  16.170  0.3234 -0.0226  0.1655
23389W        W27789  17.048   5.753  20.847  0.2148  0.0899  0.1727
23390W        W27790  22.624   6.300   5.032 -0.1204  0.4072 -0.1239
23391W        W27791  11.472   2.493  30.977  0.1871 -0.0051  0.2291
23392W        W27792   1.457   6.137   6.046  0.2465 -0.0737  0.2213
23393W        W27793  18.855   4.952  17.232  0.1245 -0.4325 -0.0064
23394W        W27794  20.895   5.734  26.699 -0.2010  0.0693  0.1163
23395W        W27795   6.043   5.547  23.583  0.0276  0.0403  0.0180
23396W        W27796  13.263   3.344  24.875  0.3108 -0.0186  0.0557
23397W        W27797   7.631   0.568  27.626  0.0008 -0.4145  0.1352
23398W        W27798  10.817   7.582  14.477 -0.0616  0.2751 -0.4122
23399W        W27799  23.496   3.279   5.015 -0.0703  0.3094 -0.1241
23400W        W27800  23.407   0.631  25.060 -0.1925 -0.1284  0.2502
23401W        W27801  14.811   1.898   1.625 -0.0336 -0.0295 -0.1439
23402W        W27802  24.495   2.605  17.701 -0.2295  0.2942  0.3160
23403W        W27803   6.279   1.884  17.085  0.2193  0.0886 -0.0387
23404W        W27804   0.699   0.887  26.504 -0.0566  0.2198 -0.1696
23405W        W27805  20.432   4.290   5.696 -0.0257 -0.0411  0.2791
23406W        W27806  23.706   5.764   1.594 -0.2250  0.1274 -0.0379
23407W        W27807   3.127   3.258  28.898 -0.0009  0.1893 -0.2731
23408W        W27808   1.246   6.105  19.892  0.1053 -0.0229 -0.2807
23409W        W27809  19.565   5.059  22.363  0.0513 -0.4861  0.3187
23410W        W27810  16.468   4.647  28.676  0.0238  0.0640  0.1483
23411W        W27811  15.349   7.198  27.801 -0.0542  0.3064 -0.3668
23412W        W27812  10.584   6.246  32.163  0.2258  0.3432 -0.2254
23413W        W27813   0.848   2.975  23.074  0.1254  0.0858  0.0605
23414W        W27814   1.096   0.515  32.452  0.1856  0.0411 -0.1510
23415W        W27815  20.426   0.621  17.381  0.0246 -0.0901  0.2576
23416W        W27816  21.938   0.857   7.096  0.1030  0.1401  0.2831
23417W        W27817   1.971   5.506   1.968 -0.0966  0.0690  0.1928
23418W        W27818   7.802   5.484  10.655  0.2654 -0.1566 -0.1766
23419W        W27819  12.277   2.532  32.413 -0.2027 -0.2436  0.1288
23420W        W27820  22.698   0.444   0.320 -0.0563 -0.1511  0.1269
23421W        W27821   0.259   4.974   8.776  0.2059  0.0752  0.2068
23422W        W27822  20.921   2.189   7.147  0.0934  0.0037 -0.2229
23423W        W27823  18.709   2.944   3.185  0.1204  0.2836  0.1184
23424W        W27824  15.845   2.785   7.190  0.3305 -0.1403 -0.0694
23425W        W27825  20.302   3.672  32.043  0.1366  0.3343 -0.1240
23426W        W27826  24.829   2.108   0.130 -0.2774  0.0654 -0.2943
23427W        W27827  15.052   0.144   0.350 -0.1661  0.2712  0.0477
23428W        W27828   3.388   4.921   5.368 -0.1771  0.0055  0.1579
23429W        W27829   3.945   7.251  30.551 -0.0615 -0.1859 -0.1846
23430W        W27830  10.548   6.266   5.704 -0.0752 -0.0903  0.0290
23431W        W27831  16.650   7.769  25.279 -0.0297 -0.1156  0.2745
23432W        W27832   3.477   6.968   7.547 -0.0080 -0.4199  0.0012
23433W        W27833   5.546   3.827   3.224 -0.0008 -0.2027 -0.0284
23434W        W27834  18.175   1.930   5.744 -0.1247  0.0601 -0.0975
23435W        W27835   6.784   0.318   9.417  0.2980 -0.0740 -0.1982
23436W        W27836   0.171   1.488  19.553  0.0028 -0.0950 -0.0261
23437W        W27837  23.028   5.654   2.804  0.0546  0.4444 -0.2626
23438W        W27838   6.935   3.793   7.647  0.1063 -0.1182 -0.1937
23439W        W27839  14.071   7.509   2.847 -0.1134 -0.1608 -0.1474
23440W        W27840   4.526   5.696  12.547 -0.1282  0.0888 -0.2606
23441W        W27841  24.298   0.125   7.243 -0.2115  0.0487  0.1499
23442W        W27842  15.438   7.191  22.333 -0.1392  0.1162 -0.2170
23443W        W27843  10.722   3.926   7.942  0.2271 -0.1247 -0.0102
23444W        W27844  22.304   4.267  23.436  0.1436  0.0386  0.0676
23445W        W27845  15.724   4.023  28.978  0.0587 -0.2305  0.1459
23446W        W27846   6.669   1.757  26.386  0.1904  0.2091 -0.0479
23447W        W27847   3.608   1.890   4.781  0.0068 -0.3266  0.0947
23448W        W27848   9.564   5.617  17.642 -0.2606  0.0812  0.1071
23449W        W27849  13.168   1.127   4.826 -0.2724  0.2348 -0.3480
23450W        W27850  24.125   2.769  22.298  0.0852  0.4746 -0.2758
23451W        W27851   0.366   1.769   1.509  0.0752 -0.0652  0.1382
23452W        W27852   0.739   4.452  19.121  0.0542  0.1286  0.0877
23453W        W27853  12.740   1.845   3.785  0.0587  0.0606  0.0730
23454W        W27854   9.238   6.856  11.857  0.2455  0.1296  0.1210
23455W        W27855   6.331   2.467   8.182  0.0723  0.1763 -0.1501
23456W        W27856   9.559   1.849   2.887  0.0168 -0.0835  0.0320
23457W        W27857  17.847   1.350  11.043 -0.0419 -0.0305  0.1140
23458W        W27858   2.788   2.695  29.433 -0.0899 -0.0028  0.5066
23459W        W27859   8.674   7.159  14.280  0.1267  0.1882  0.0649
23460W        W27860  17.178   2.486  10.221 -0.1135 -0.3259  0.0544
23461W        W27861  23.468   1.911   5.220 -0.0766  0.1759 -0.0770
23462W        W27862  22.680   4.069  31.102 -0.2628  0.0373  0.1102
23463W        W27863  12.565   7.395   2.813 -0.1319  0.1764 -0.0835
23464W        W27864   4.936   2.222  22.977  0.0290  0.1621  0.1064
23465W        W27865  20.686   1.376  24.352  0.0492 -0.0110  0.0970
23466W        W27866   5.297   6.210   5.385  0.1602 -0.2213 -0.0605
23467W        W27867  24.817   4.083   0.200 -0.2289  0.0944  0.1119
23468W        W27868  21.246   3.609  22.670 -0.0153  0.1910 -0.2832
23469W        W27869  11.193   2.563   9.021  0.0093 -0.0296 -0.2017
23470W        W27870   6.869   6.308   5.861 -0.1687  0.2286 -0.0361
23471W        W27871   2.512   3.466  29.871  0.0290  0.1219  0.1470
23472W        W27872  10.601   7.212  10.281 -0.0591  0.1185 -0.3823
23473W        W27873  13.587   2.119  10.726  0.3109 -0.1058  0.3211
23474W        W27874  13.038   4.852   3.960 -0.1352  0.0797  0.2868
23475W        W27875   0.964   2.820   7.542  0.2020 -0.0655 -0.0459
23476W        W27876  14.605   7.649  23.523 -0.2706  0.2213  0.3108
23477W        W27877  12.933   7.003  23.331 -0.1377  0.0843 -0.0207
23478W        W27878   3.383   1.656  10.241  0.1655  0.4346  0.0858
23479W        W27879  21.507   0.340  26.530 -0.0372  0.2188  0.3078
23480W        W27880  23.514   2.477   0.609 -0.1415 -0.1314 -0.1223
23481W        W27881  11.634   0.032   2.032 -0.0320 -0.2417  0.2234
23482W        W27882  21.366   1.087  22.124 -0.0431 -0.1530 -0.4145
23483W        W27883   4.174   6.189  26.436  0.1628 -0.0540  0.1640
23484W        W27884  13.835   2.791  28.935  0.2157 -0.2619 -0.1507
23485W        W27885   2.405   4.672  21.814  0.1339  0.1845 -0.2113
23486W        W27886   4.143   4.078   8.772  0.2540  0.2894 -0.0747
23487W        W27887  14.007   4.772   1.344 -0.4047  0.0400 -0.3175
23488W        W27888   0.410   3.275   6.451  0.0139  0.3003  0.0220
23489W        W27889   5.315   2.480  16.169  0.1498  0.0122  0.0750
23490W        W27890  10.985   6.500   3.484 -0.2078  0.2632 -0.0527
23491W        W27891  18.832   7.011  20.403  0.0352  0.0592 -0.1045
23492W        W27892  24.934   7.203  27.724 -0.1542  0.0835 -0.2217
23493W        W27893  17.454   1.728  32.611  0.0837 -0.1623 -0.0712
23494W        W27894  10.375   2.890  18.281 -0.3818  0.1352  0.3933
23495W        W27895  14.527   7.113   8.988  0.0813 -0.0221  0.6231
23496W        W27896  23.405   1.603  29.182  0.0144  0.2741 -0.1912
23497W        W27897  16.310   1.080  27.342 -0.1072  0.0913 -0.0264
23498W        W27898  11.006   6.506   2.941  0.2343  0.4087 -0.1482
23499W        W27899  20.287   0.711   0.032  0.1575  0.1166 -0.1074
23500W        W27900  13.376   5.291  30.151 -0.1860 -0.0515 -0.1362
23501W        W27901   7.566   4.749   7.005 -0.0591 -0.0646 -0.1031
23502W        W27902  17.227   7.744  22.264 -0.0370 -0.1479 -0.1614
23503W        W27903  19.603   6.831  21.026  0.2354  0.2705  0.1057
23504W        W27904  22.884   3.584   7.005 -0.0974  0.1203  0.0360
23505W        W27905  19.542   2.730   5.716  0.0177  0.0811  0.1340
23506W        W27906  24.096   2.488  25.685  0.0641 -0.4010  0.1109
23507W        W27907  21.529   1.334  24.120 -0.2035 -0.2029  0.2509
23508W        W27908  17.382   2.170  28.097 -0.1213  0.3259 -0.0927
23509W        W27909  21.628   4.913  25.557  0.2182  0.2855 -0.1333
23510W        W27910  12.321   2.873   9.860  0.2386 -0.2173  0.0166
23511W        W27911  21.122   5.478  22.321  0.0834  0.3364  0.0225
23512W        W27912  23.837   7.350  16.470  0.1025 -0.1414 -0.1600
23513W        W27913  21.021   2.952   2.108  0.3988 -0.1665 -0.3059
23514W        W27914   0.241   3.073  17.777 -0.1710  0.0039 -0.1317
23515W        W27915  23.417   0.763  31.366  0.0652  0.0153 -0.1175
23516W        W27916  11.766   6.028  28.997  0.1464 -0.0288  0.1591
23517W        W27917  25.010   6.786  20.066  0.0616 -0.0850 -0.0010
23518W        W27918  22.600   1.301  16.621 -0.1731 -0.0161 -0.0994
23519W        W27919  16.793   1.652   7.959 -0.3038 -0.2099  0.0934
23520W        W27920  17.269   1.215  20.190 -0.1269 -0.0909  0.3152
23521W        W27921   6.350   2.425  30.470 -0.0634  0.2022  0.2010
23522W        W27922  19.306   6.687   3.060  0.1891 -0.1589  0.0232
23523W        W27923  18.075   1.560  31.257 -0.0329 -0.0695 -0.1074
23524W        W27924  21.169   4.845   5.906  0.2032 -0.1034 -0.2503
23525W        W27925  16.789   1.069  32.482  0.0497 -0.1631  0.1308
23526W        W27926  15.067   0.235  26.360 -0.2391  0.2832 -0.0880
23527W        W27927  15.628   7.299  21.245  0.3271  0.0631  0.1090
23528W        W27928  18.851   0.700  32.411  0.3480 -0.0550 -0.1291
23529W        W27929  23.929   4.557  28.207  0.0836  0.1028  0.1390
23530W        W27930  15.442   2.847   8.909  0.2424 -0.1166  0.0794
23531W        W27931   2.341   0.886   2.569  0.2049 -0.1491 -0.1396
23532W        W27932  24.103   5.268  21.901 -0.0519 -0.3749 -0.0617
23533W        W27933   7.878   6.776  29.578 -0.1957  0.1773 -0.0236
23534W        W27934   7.521   5.379   6.416 -0.2941 -0.0615 -0.0088
23535W        W27935   3.164   1.881   1.601 -0.2726  0.0678 -0.0745
23536W        W27936  21.877   1.297  15.133 -0.0105 -0.0508  0.0478
23537W        W27937  20.760   3.103  30.707 -0.0713 -0.1921  0.0059
23538W        W27938  11.697   3.638  15.727  0.0158 -0.1108  0.1023
23539W        W27939   5.940   1.183   8.526  0.0194  0.1289 -0.2695
23540W        W27940  11.011   0.701  32.596 -0.1931 -0.2991  0.3582
23541W        W27941  21.553   1.305  20.513  0.1381 -0.0574  0.2089
23542W        W27942  23.910   6.551  29.017  0.0184  0.0186 -0.0053
23543W        W27943  12.215   6.543  27.247  0.3262  0.2936 -0.3136
23544W        W27944  25.004   1.085   8.550 -0.1046  0.0716  0.1440
23545W        W27945  13.325   0.412  27.959 -0.0910 -0.1363  0.0089
23546W        W27946   8.182   2.430  27.880 -0.0494 -0.1442 -0.0529
23547W        W27947   4.332   0.865  28.147  0.0464 -0.3432  0.1065
23548W        W27948   7.276   3.291   8.852 -0.2698  0.0315 -0.1589
23549W        W27949  23.379   7.095  19.643  0.0499 -0.0836  0.0091
23550W        W27950   6.615   5.188  32.239 -0.0919 -0.0475  0.1835
23551W        W27951  21.758   2.486  26.100 -0.0495 -0.0794 -0.1756
23552W        W27952   7.442   5.130   3.316  0.2521 -0.1670  0.0216
23553W        W27953  13.338   4.013  13.235 -0.0691 -0.0095 -0.0367
23554W        W27954   1.179   2.591  25.282  0.2090 -0.0946  0.0179
23555W        W27955   2.717   0.992  31.236  0.1618  0.2294 -0.1503
23556W        W27956  11.377   2.352  22.790 -0.1120  0.1520 -0.1580
23557W        W27957  11.325   7.460  14.256  0.0910 -0.4514  0.1092
23558W        W27958   3.779   5.344   5.412  0.2152  0.0709  0.1800
23559W        W27959  16.561   2.292  18.413  0.0055 -0.0337 -0.0634
23560W        W27960  21.512   5.960  18.513  0.2949  0.2771  0.0201
23561W        W27961  22.890   3.956  27.119  0.5769  0.1206 -0.0217
23562W        W27962   3.186   0.412   8.719  0.0991  0.0054 -0.2121
23563W        W27963   5.899   2.167  22.925  0.0469  0.0615 -0.0904
23564W        W27964   9.096   2.085  28.751  0.1273 -0.1166 -0.1177
23565W        W27965   3.398   1.874   6.067 -0.4062  0.0601  0.1595
23566W        W27966  16.938   3.754  27.020  0.0460  0.0515 -0.0161
23567W        W27967   4.488   2.937   8.916  0.3170 -0.0252 -0.2986
23568W        W27968  14.530   4.004   7.649 -0.1579  0.0202  0.0902
23569W        W27969   6.382   2.169   7.121 -0.0157  0.0205 -0.1855
23570W        W27970   2.686   0.385   7.774 -0.0520 -0.0979 -0.0429
23571W        W27971  19.427   1.369   6.064  0.0683  0.0011 -0.0570
23572W        W27972  12.374   3.862  12.958 -0.0917 -0.1695 -0.0558
23573W        W27973   0.639   1.351  32.462 -0.2734 -0.0285 -0.0493
23574W        W27974   4.501   5.482  13.408 -0.1878  0.2747  0.1701
23575W        W27975  14.895   0.878  32.375  0.2114 -0.1982 -0.1859
23576W        W27976  16.219   0.447   0.385 -0.3433 -0.1090 -0.1657
23577W        W27977  20.817   2.786   5.589 -0.0610 -0.1066  0.1044
23578W        W27978   1.162   2.443   2.605 -0.2610  0.1175 -0.2562
23579W        W27979   6.634   0.490   4.560 -0.1073 -0.2587 -0.1211
23580W        W27980   6.216   5.385  17.600  0.1768  0.1326 -0.1823
23581W        W27981  19.619   3.814  23.046  0.1285 -0.1772 -0.3802
23582W        W27982  17.850   2.180  25.733  0.3594  0.0475 -0.1651
23583W        W27983  15.910   1.501   6.571 -0.2829  0.2615 -0.1853
23584W        W27984  19.171   0.249  25.670  0.1346 -0.0991  0.0867
23585W        W27985  14.592   0.684   0.886 -0.1480 -0.0268 -0.1254
23586W        W27986   0.316   3.925   7.019  0.3694  0.0437  0.0712
23587W        W27987   5.244   1.747   4.982  0.1971  0.0668  0.0583
23588W        W27988   0.140   7.310  32.018  0.1589  0.1590 -0.0470
23589W        W27989  16.451   2.456  10.875 -0.4017  0.0171  0.1264
23590W        W27990  23.796   3.744  23.686  0.0470 -0.0386 -0.2283
23591W        W27991  23.192   0.751   7.083 -0.0187 -0.1553 -0.1592
23592W        W27992  16.221   5.472  29.601 -0.2777 -0.2416  0.0924
23593W        W27993   5.330   2.526   2.793  0.0715 -0.1121  0.1339
23594W        W27994  22.236   1.039   1.382 -0.1248  0.1066  0.0654
23595W        W27995  18.773   6.455  25.835 -0.1122  0.1774 -0.3851
23596W        W27996  23.570   5.302  20.147 -0.0775 -0.0080  0.1011
23597W        W27997  12.376   3.313   1.508  0.2674  0.0779  0.1143
23598W        W27998  22.519   3.104   5.978  0.2025  0.0428  0.0304
23599W        W27999   3.982   1.236  28.274 -0.3822  0.1730 -0.3276
23600W        W28000  15.787   1.848  28.873  0.2236 -0.0479 -0.0701
23601W        W28001   6.042   4.094  24.398  0.1671 -0.1097 -0.2071
23602W        W28002   2.114   2.481  21.069  0.3137  0.1335  0.0040
23603W        W28003  24.166   6.686   5.891  0.1769  0.2225 -0.0201
23604W        W28004  14.341   7.220   9.919  0.0117 -0.1619 -0.4381
23605W        W28005  10.640   0.794   6.794  0.2223 -0.2456 -0.0568
23606W        W28006  11.889   5.463  27.121  0.2121  0.3273 -0.0197
23607W        W28007  16.585   4.335  29.071  0.2316  0.3160 -0.3017
23608W        W28008   7.701   2.798  26.931  0.0574 -0.1005  0.0654
23609W        W28009   5.582   5.717   7.811  0.1302  0.3362 -0.1316
23610W        W28010  16.296   0.280   1.456 -0.2005 -0.0969 -0.1978
23611W        W28011  10.028   2.139  16.978  0.2087 -0.0995  0.4412
23612W        W28012  19.245   4.074   2.707  0.1825  0.1053  0.2751
23613W        W28013   6.600   5.333  11.150  0.0064  0.0057  0.2215
23614W        W28014   6.306   1.764  10.218 -0.2191 -0.0334 -0.1854
23615W        W28015  23.912   1.794   8.103  0.0463  0.1788 -0.1126
23616W        W28016   7.053   1.443  25.078  0.2258 -0.2789  0.7435
23617W        W28017   7.477   5.911   4.686  0.2383  0.1191  0.3139
23618W        W28018   2.110   1.181  12.129 -0.0958  0.0120 -0.3684
23619W        W28019  13.079   5.030  31.438  0.2624 -0.1352  0.1051
23620W        W28020  24.292   2.758   6.933  0.1184 -0.0193 -0.0283
23621W        W28021   0.942   3.398  24.968  0.0258  0.3192  0.1856
23622W        W28022  15.903   7.192  25.489  0.2376 -0.0992  0.0152
23623W        W28023  18.275   1.993  16.907  0.0774 -0.2372 -0.1613
23624W        W28024   1.281   7.358   9.040  0.1402  0.4966 -0.1695
23625W        W28025  15.473   6.066   6.841 -0.0686 -0.2105  0.0589
23626W        W28026  24.573   3.202  15.650 -0.1304 -0.1242  0.2317
23627W        W28027  20.020   3.207  31.839 -0.2251 -0.0818  0.3568
23628W        W28028   3.312   2.613   9.711 -0.0912  0.1833 -0.1285
23629W        W28029   3.023   6.210   8.047  0.1174 -0.1142 -0.0688
23630W        W28030  21.202   6.276   9.642 -0.0945  0.1777  0.0184
23631W        W28031   8.912   7.070   5.137  0.1084  0.0798 -0.0666
23632W        W28032  13.074   5.369  15.996 -0.1051  0.0840  0.0938
23633W        W28033   5.733   3.107  16.631 -0.1785  0.0013  0.1457
23634W        W28034   8.564   0.623  29.811 -0.2861 -0.1807 -0.2636
23635ION     NA28035  22.448   1.139   0.940  0.0556 -0.3658  0.3178
23636ION     NA28036   4.670   3.406  28.310 -0.2480 -0.3105  0.0683
23637ION     NA28037   9.245   1.650   3.127 -0.3024 -0.1699  0.0511
23638ION     NA28038  14.347   0.054   7.412 -0.1724 -0.1188 -0.0314
23639ION     NA28039  11.661   3.125  22.279 -0.5389 -0.1289 -0.1529
23640ION     NA28040  18.520   2.921  18.766  0.2149 -0.2473  0.2645
23641ION     NA28041   0.540   7.348   6.242 -0.0353  0.2189 -0.1388
23642ION     NA28042   9.434   3.788  25.384  0.0749 -0.0974 -0.2404
23643ION     NA28043  19.639   5.070   2.041 -0.1911 -0.2132  0.0402
23644ION     NA28044  14.745   1.904  28.138 -0.0087  0.1128 -0.0486
23645ION     NA28045   1.412   6.646  28.799  0.3704  0.1517  0.2218
23646ION     NA28046  24.500   7.687  22.338 -0.4995  0.3120  0.2799
23647ION     NA28047   8.514   1.329  29.317 -0.3605  0.4896  0.0071
23648ION     NA28048   9.617   6.758  13.749  0.2266 -0.1123  0.0824
23649ION     NA28049  10.538   4.092  10.853 -0.3977 -0.1409 -0.4829
23650ION     NA28050   9.376   1.764  26.463 -0.2995  0.0525 -0.1726
23651ION     NA28051  16.970   0.306   3.049 -0.1653  0.1648  0.1846
23652ION     NA28052   7.016   5.389  13.564 -0.4311  0.2367  0.0126
23653ION     NA28053  21.468   5.836   9.088  0.1121  0.1356 -0.1606
23654ION     NA28054  19.255   3.825  17.214 -0.0765 -0.1044 -0.3146
23655ION     NA28055  11.247   3.841   2.734 -0.2825  0.5182  0.2500
23656ION     NA28056  24.055   2.102  22.564  0.1932 -0.1309  0.2534
23657ION     NA28057  20.206   1.288  19.417 -0.1264  0.3524 -0.2142
23658ION     NA28058  23.942   0.742  17.788  0.1556 -0.4187  0.4294
23659ION     NA28059   9.295   6.305  32.360 -0.3074 -0.0209  0.2244
23660ION     NA28060  23.958   6.269  32.052 -0.2063  0.0053  0.1507
23661ION     NA28061  20.107   7.766  22.693  0.0061  0.1198  0.0719
23662ION     NA28062   5.251   1.292  11.144 -0.2622 -0.1953 -0.0736
23663ION     NA28063  23.070   7.132   7.372  0.3608  0.0077  0.2603
23664ION     NA28064  16.261   4.760   2.135 -0.0419  0.3315 -0.1469
23665ION     NA28065  19.285   2.059  27.656  0.3217  0.2670  0.3133
23666ION     NA28066  11.974   7.476  32.285 -0.4273 -0.2295 -0.0660
23667ION     NA28067  12.256   3.465   9.182 -0.0192 -0.3551 -0.1243
23668ION     NA28068   6.617   5.973  13.410 -0.2658 -0.2929  0.2511
23669ION     NA28069   1.357   5.687  11.674  0.0265  0.3977  0.2512
23670ION     NA28070   5.331   0.678  32.568 -0.1581 -0.0502  0.9632
23671ION     NA28071  22.060   5.598  23.457  0.0944  0.0709 -0.2569
23672ION     NA28072   7.635   0.207  13.501  0.2214  0.2004 -0.1024
23673ION     NA28073   6.697   1.572   2.228 -0.3324 -0.1322  0.0579
23674ION     NA28074  12.626   2.919  23.668 -0.4318 -0.2179 -0.0160
23675ION     NA28075  12.665   3.234   0.930  0.1792 -0.1168  0.0892
23676ION     NA28076  18.200   6.006   8.431 -0.3940  0.2384 -0.2425
23677ION     NA28077  16.346   2.406   5.596 -0.1860 -0.2566 -0.0422
23678ION     NA28078  11.065   2.511  29.904  0.1413  0.2094  0.2551
23679ION     NA28079  23.636   4.686   9.203  0.1151  0.1952 -0.5076
23680ION     NA28080  24.819   0.986  19.836 -0.1042  0.0247 -0.2474
23681ION     NA28081   1.907   4.374   7.999  0.4886  0.3942 -0.0971
23682ION     NA28082   9.318   5.041   0.332  0.0063  0.1992  0.0177
23683ION     NA28083   3.881   2.551  28.768  0.1716 -0.2859  0.3963
23684ION     NA28084   1.641   5.991   6.794  0.4703 -0.0507 -0.0234
23685ION     NA28085  21.643   1.055   5.495  0.2354  0.2016  0.0760
23686ION     NA28086  12.834   0.531   3.496 -0.4714 -0.4826  0.3296
23687ION     NA28087  22.515   7.453   9.146  0.4588  0.6161 -0.0560
23688ION     NA28088  23.258   0.251   3.105  0.0377  0.2238 -0.0452
23689ION     NA28089  21.413   1.251  29.522 -0.0638  0.2641 -0.3316
23690ION     NA28090   5.795   6.584   4.886  0.1677 -0.0017  0.1360
23691ION     NA28091  14.820   6.062   9.761  0.1351 -0.6421 -0.0802
23692ION     NA28092  13.846   6.520   1.353  0.0465  0.3333  0.1621
23693ION     NA28093   3.721   0.732  23.916  0.0169  0.2397 -0.0245
23694ION     NA28094  16.850   3.795   1.220 -0.1091  0.1713  0.0350
23695ION     NA28095  24.619   5.877  25.356 -0.3248 -0.0778 -0.2423
23696ION     NA28096   6.592   4.090  25.516  0.2462 -0.0258 -0.1431
23697ION     NA28097  17.642   2.107   3.665 -0.1252  0.1246  0.1796
23698ION     NA28098  17.339   7.552  19.974 -0.5000 -0.0167 -0.3640
23699ION     NA28099  24.855   4.198  27.476  0.0870 -0.1956  0.2018
23700ION     NA28100   6.621   5.615  32.293  0.0800  0.0488 -0.1647
23701ION     NA28101   4.936   0.821  25.809  0.1709  0.2510 -0.2219
23702ION     NA28102   5.207   3.026  26.218  0.0688  0.2678 -0.2914
23703ION     NA28103  16.011   0.800   0.201 -0.2939 -0.2648  0.0808
23704ION     NA28104  17.581   4.027  20.830 -0.1759 -0.0609  0.0469
23705ION     NA28105  19.865   5.613   7.427 -0.2609 -0.0635 -0.1466
23706ION     NA28106   0.533   3.673   4.983 -0.0395  0.2605 -0.3917
23707ION     NA28107  20.814   2.419   7.534 -0.0973 -0.0044  0.0140
23708ION     NA28108   6.873   2.307  25.032 -0.6946 -0.2041 -0.1349
23709ION     NA28109   1.079   6.633  26.942 -0.2041  0.1463  0.5352
23710ION     NA28110   9.142   3.820   6.295  0.0032  0.2301 -0.2186
23711ION     NA28111   7.427   5.671   0.080  0.2989  0.1539  0.4103
23712ION     NA28112  14.982   1.669  11.550 -0.0969  0.1553 -0.2123
23713ION     NA28113  11.895   7.544  12.319  0.1127  0.1926  0.5297
23714ION     NA28114  16.049   5.786  32.213  0.0518 -0.6045 -0.2678
23715ION     NA28115  21.495   1.631   3.835 -0.0338  0.0857  0.0722
23716ION     NA28116  15.902   0.812   2.171 -0.0768  0.0407 -0.0785
23717ION     NA28117  19.246   3.072  29.142  0.2874 -0.1531  0.1450
23718ION     NA28118   5.987   4.242   5.435  0.0971 -0.2611  0.1898
23719ION     NA28119  18.230   1.857   1.729  0.1165 -0.0871  0.0369
23720ION     NA28120  15.209   4.259  21.016 -0.1407 -0.0303 -0.3640
23721ION     NA28121   9.579   7.791  15.971  0.3119 -0.2574 -0.1672
23722ION     NA28122  17.047   3.574  17.990  0.1585 -0.0097 -0.4661
23723ION     NA28123  20.738   7.125   8.312 -0.0298 -0.2649  0.1404
23724ION     NA28124   3.963   3.477   5.658  0.3736  0.2355 -0.1145
23725ION     NA28125  11.830   4.321   9.960 -0.0367 -0.1023 -0.2104
23726ION     NA28126   2.090   4.965  28.444 -0.3208 -0.3299 -0.0804
23727ION     NA28127  11.086   3.326   8.142  0.0564 -0.5277  0.1737
23728ION     NA28128   4.444   0.089  26.637 -0.2086 -0.1915 -0.5550
23729ION     NA28129  20.924   4.628  19.528 -0.1059  0.2533 -0.0600
23730ION     NA28130   6.680   4.341  23.774  0.1285  0.0879  0.1666
23731ION     NA28131  10.733   3.075   9.935  0.4005  0.1680 -0.2726
23732ION     NA28132  16.840   5.229  32.396 -0.0638 -0.0211  0.1251
23733ION     NA28133  15.119   5.340  20.418  0.3379  0.1568  0.0255
23734ION     NA28134  23.489   7.367  30.277 -0.1364  0.3602 -0.6613
23735ION     NA28135  19.712   7.246  27.276  0.2879  0.1850 -0.1298
23736ION     NA28136   3.135   3.124   9.072 -0.0134  0.4669  0.0955
23737ION     NA28137  23.080   1.292  30.753  0.0601  0.1652 -0.4845
23738ION     NA28138   2.666   0.092  28.472  0.4423 -0.2480  0.2285
23739ION     NA28139   4.584   1.853  30.651 -0.1313 -0.1734  0.3263
23740ION     NA28140  12.643   4.887   1.529  0.3544  0.1046 -0.0840
23741ION     NA28141  14.512   3.183   5.892 -0.0787  0.7621 -0.1217
23742ION     NA28142  21.557   4.548  25.866 -0.1139  0.2392  0.2872
23743ION     NA28143  21.313   7.342   6.215  0.0308  0.0629 -0.4226
23744ION     NA28144  14.736   3.200   4.912 -0.2047  0.1430  0.3853
23745ION     NA28145  11.824   4.506  27.925 -0.0686  0.2638 -0.0403
23746ION     NA28146  24.627   1.689  30.475 -0.2335 -0.0728  0.2825
23747ION     NA28147   4.462   6.153  12.779 -0.3230 -0.4899 -0.1556
23748ION     NA28148   7.048   3.092   1.513 -0.1771 -0.3015  0.1128
23749ION     NA28149  19.451   6.491   9.390  0.0711  0.3483  0.0241
23750ION     NA28150  19.403   6.536  24.222 -0.0326 -0.0910 -0.1971
23751ION     NA28151  22.508   0.552  28.395  0.0107 -0.1214 -0.3069
23752ION     NA28152  11.299   4.334  23.021 -0.2659  0.3623  0.6963
23753ION     NA28153   2.992   3.076  20.647 -0.1334 -0.2882 -0.5502
23754ION     NA28154   3.218   4.333  13.481 -0.2945  0.5156 -0.0223
23755ION     NA28155   0.496   3.975  22.563 -0.4607 -0.0473  0.3545
23756ION     NA28156   5.292   2.612  28.886  0.0434 -0.4356 -0.0975
23757ION     NA28157  19.673   1.289  28.065  0.2837  0.3971 -0.0976
23758ION     NA28158   8.608   3.731   1.519 -0.1237 -0.0626 -0.3861
23759ION     NA28159  13.247   1.808   2.214 -0.1193  0.0077  0.0104
23760ION     NA28160  16.967   3.802   5.405  0.0909 -0.0227  0.1523
23761ION     NA28161   5.231   1.402   3.312  0.4257  0.4699 -0.1666
23762ION     NA28162  25.015   5.549   1.979  0.1145  0.0548 -0.2826
23763ION     NA28163   6.162   7.330  18.003 -0.3756 -0.3581 -0.2738
23764ION     NA28164  12.104   5.486  11.349  0.5237  0.0291 -0.2564
23765ION     NA28165  18.364   0.132  26.532  0.0571  0.0928 -0.3557
23766ION     NA28166   2.025   3.950  28.774  0.0373 -0.0024 -0.0986
23767ION     NA28167  23.805   7.131   2.753 -0.0586  0.4539 -0.2144
23768ION     NA28168   6.978   4.389   4.181  0.0612 -0.1674 -0.1989
23769ION     NA28169  11.012   1.141  22.645  0.2249 -0.0822  0.0556
23770ION     NA28170   6.249   3.325   1.369  0.0963 -0.2576  0.2053
23771ION     NA28171   4.249   3.615  27.485 -0.0815  0.2398 -0.4845
23772ION     NA28172  13.328   4.914   6.756  0.1135  0.4583  0.1113
23773ION     NA28173  14.362   2.041  25.762  0.1537  0.1279  0.0856
23774ION     NA28174  14.054   5.266  13.513  0.6307 -0.4746  0.0320
23775ION     NA28175  19.995   0.203   2.238 -0.3557  0.2188 -0.0219
23776ION     NA28176   0.476   1.608   9.640 -0.1373 -0.6038  0.3013
23777ION     NA28177   6.311   5.614  23.069  0.3205 -0.0602  0.1258
23778ION     NA28178   6.687   0.616   8.456  0.0818 -0.1090 -0.2132
23779ION     NA28179   7.175   3.014  17.788 -0.1447  0.4017 -0.1870
23780ION     NA28180  14.180   2.788  31.911  0.1042  0.0628  0.0010
23781ION     NA28181  19.406   0.313   2.398  0.0690  0.1413 -0.3090
23782ION     NA28182  15.932   6.962   8.510 -0.0182  0.3194  0.0228
23783ION     NA28183  17.771   5.257   8.383 -0.2148 -0.2822 -0.4014
23784ION     NA28184  19.057   7.763  21.881 -0.1199 -0.1434 -0.1667
23785ION     NA28185  24.647   1.355   6.699  0.3005 -0.0016 -0.0297
23786ION     NA28186  14.381   6.810   5.771  0.3069  0.0021 -0.1565
23787ION     NA28187  17.779   1.737  19.822 -0.0198  0.1617 -0.0940
23788ION     NA28188  20.123   5.793  21.242 -0.2476  0.1524 -0.1597
23789ION     NA28189  14.022   5.596  24.679  0.1172  0.4439 -0.2993
23790ION     NA28190  18.330   2.847  27.438 -0.1015 -0.1654  0.1040
23791ION     NA28191  20.565   1.890   4.923 -0.1110  0.3533 -0.2475
23792ION     NA28192   0.998   5.520  28.101 -0.3220 -0.2996  0.3912
23793ION     NA28193  20.011   6.771  17.713  0.3660  0.0458  0.2047
23794ION     NA28194  15.601   4.643  32.410  0.4142 -0.2797  0.0514
23795ION     NA28195  12.343   0.732   2.090 -0.0192  0.0970 -0.0058
23796ION     NA28196  12.016   3.175   6.681  0.3146 -0.0690  0.4418
23797ION     NA28197  18.924   1.146  31.034 -0.0878 -0.0680  0.1241
23798ION     NA28198   4.025   7.144   3.923  0.1072  0.0637  0.1882
23799ION     NA28199   9.456   5.982  18.599 -0.3568  0.2515  0.3375
23800ION     NA28200  10.922   7.165  15.156 -0.0343  0.0053 -0.3649
23801ION     NA28201   8.298   6.453   3.712  0.2351 -0.1779  0.4179
23802ION     NA28202   2.041   5.131   8.984  0.0287 -0.0968 -0.3344
23803ION     NA28203   3.254   7.569  12.294 -0.4881 -0.2212  0.3120
23804ION     NA28204  20.276   1.727  25.815  0.1513  0.0348  0.0560
23805ION     NA28205  19.010   2.732  31.932 -0.1513  0.2374  0.3755
23806ION     NA28206   1.547   4.719  18.172  0.1308  0.2553  0.0321
23807ION     NA28207  19.682   6.714   0.530 -0.0768  0.6296  0.2272
23808ION     NA28208  23.457   1.455   1.357 -0.4989  0.3434  0.4679
23809ION     NA28209   2.179   4.474   4.586  0.2089  0.4928 -0.1510
23810ION     NA28210  10.911   2.281  23.662 -0.2030 -0.5820 -0.2207
23811ION     NA28211  10.645   1.820  14.357 -0.1329 -0.0149 -0.1065
23812ION     NA28212  15.590   2.765  26.477  0.2872  0.0742  0.6133
23813ION     NA28213  17.632   4.988   2.081  0.0480  0.1260  0.1872
23814ION     NA28214  13.021   4.649   9.668  0.1018  0.4836  0.1194
23815ION     NA28215  21.449   5.970  26.142 -0.1928 -0.2506 -0.2401
23816ION     NA28216  17.504   2.066  25.400 -0.1518  0.0601  0.1117
23817ION     NA28217   7.282   4.187  30.320 -0.1147  0.0223  0.3316
23818ION     NA28218   7.613   6.648  12.595 -0.1172  0.2273  0.3708
23819ION     NA28219  20.975   2.648  18.482 -0.4789 -0.0012 -0.1608
23820ION     NA28220  14.241   3.931   1.468 -0.1197  0.2098  0.0898
23821ION     NA28221   2.137   0.631   5.756 -0.0449  0.0356 -0.3983
23822ION     NA28222  19.510   5.340  24.362 -0.3562  0.3189 -0.4256
23823ION     NA28223   2.949   3.569  29.604  0.3909  0.1490  0.2577
23824ION     NA28224  23.424   1.125  32.222 -0.1476 -0.0328 -0.2831
23825ION     NA28225  21.428   2.718  31.817 -0.2782  0.0921 -0.1986
23826ION     NA28226  19.477   0.110  26.759 -0.0518 -0.1511 -0.0587
23827ION     NA28227   8.641   0.250  28.879  0.2594 -0.0985 -0.1970
23828ION     NA28228  18.207   1.428   6.487  0.1153  0.0560  0.0890
23829ION     NA28229   0.307   1.784  28.722 -0.2030  0.4818  0.5207
23830ION     CL28230  12.876   6.302  10.572 -0.4376 -0.2542  0.0404
23831ION     CL28231   4.340   6.953   4.039 -0.3068  0.3527 -0.1670
23832ION     CL28232  17.448   6.809   3.767  0.2204  0.0650  0.2145
23833ION     CL28233  24.133   5.651  25.702 -0.4111  0.4376  0.4347
23834ION     CL28234  18.787   6.631  23.991 -0.0448  0.2687 -0.3525
23835ION     CL28235  10.524   3.475   1.581 -0.4382 -0.0490 -0.2029
23836ION     CL28236   1.547   4.866   7.991  0.0719 -0.3743 -0.1644
23837ION     CL28237   7.595   5.470  29.016  0.0946 -0.0481  0.1653
23838ION     CL28238  10.988   5.714  11.272 -0.0752  0.2423  0.0546
23839ION     CL28239  22.308   2.777  26.731 -0.5380  0.2051 -0.1358
23840ION     CL28240  19.876   4.509  21.084  0.1518  0.1345 -0.0622
23841ION     CL28241   1.876   1.828   3.769  0.0089 -0.0724  0.0272
23842ION     CL28242   7.381   0.277   5.051  0.4855 -0.0603  0.2113
23843ION     CL28243   6.283   2.265  23.794 -0.0204  0.0155  0.6765
23844ION     CL28244  12.618   7.756  14.763  0.1219 -0.0070 -0.2223
23845ION     CL28245   0.240   5.451  25.963  0.1571 -0.2680  0.5123
23846ION     CL28246   4.653   1.380  31.138 -0.1382  0.2640  0.0734
23847ION     CL28247   5.111   1.375  10.821  0.2740 -0.2534  0.4999
23848ION     CL28248  22.550   3.790   4.646 -0.1779  0.1756 -0.1654
23849ION     CL28249  20.719   5.785  21.151 -0.1079  0.0375  0.1866
23850ION     CL28250   7.780   5.293   5.913 -0.0173 -0.2186  0.1107
23851ION     CL28251   3.678   3.669  24.367  0.3949 -0.1717  0.3356
23852ION     CL28252   6.554   6.586   2.877 -0.3870 -0.0865  0.2927
23853ION     CL28253   2.149   4.721  21.477  0.3610 -0.3869 -0.2891
23854ION     CL28254   8.173   5.294   7.362 -0.1869 -0.1213 -0.2659
23855ION     CL28255  20.347   1.750  28.917  0.1465 -0.5069 -0.3639
23856ION     CL28256  18.761   6.132   5.899 -0.0654  0.2770 -0.4406
23857ION     CL28257  15.987   0.156   2.178 -0.2244 -0.0534  0.0119
23858ION     CL28258   3.903   2.945   4.308 -0.2423  0.0350  0.2384
23859ION     CL28259   5.673   1.707  26.882  0.1667 -0.4494 -0.0643
23860ION     CL28260  16.709   1.999  32.319 -0.3203  0.2728 -0.2939
23861ION     CL28261   9.765   5.831  30.790  0.1907 -0.0527  0.0428
23862ION     CL28262  18.658   6.193  30.955 -0.0137 -0.2689 -0.1446
23863ION     CL28263   1.467   0.564   5.927 -0.1796 -0.0280  0.3321
23864ION     CL28264  22.609   4.660  25.671  0.0849 -0.1691  0.4909
23865ION     CL28265   8.893   7.211  26.748  0.1832 -0.1739 -0.2846
23866ION     CL28266   3.879   4.805  27.745 -0.2476  0.1958  0.1067
23867ION     CL28267  17.968   6.548   8.156 -0.0759  0.1713  0.1441
23868ION     CL28268   0.101   3.201  27.653 -0.3972  0.1758  0.2036
23869ION     CL28269   2.135   4.661  28.639 -0.1755 -0.1627 -0.3649
23870ION     CL28270  18.996   0.840   8.689  0.1888  0.1121  0.0957
23871ION     CL28271  12.057   6.116  10.618 -0.0232 -0.0337  0.0469
23872ION     CL28272  21.400   7.439  22.740  0.3483  0.5155 -0.0140
23873ION     CL28273  20.477   1.626   4.717  0.2241  0.1507  0.0619
23874ION     CL28274  23.487   2.218   4.952 -0.1036 -0.1312  0.2128
23875ION     CL28275  22.186   2.665   7.229 -0.0485  0.0023 -0.4273
23876ION     CL28276   1.274   3.837  30.486 -0.2973  0.2770 -0.1242
23877ION     CL28277   5.971   3.925  23.630  0.1284  0.0016 -0.1111
23878ION     CL28278   5.547   0.787  31.131 -0.2012 -0.1295 -0.2077
23879ION     CL28279  18.399   7.209  16.687  0.3947  0.1011  0.0970
23880ION     CL28280   2.137   1.932   7.956  0.0436 -0.0979  0.1684
23881ION     CL28281  17.340   1.201  23.902  0.0768  0.1814 -0.1630
23882ION     CL28282   8.366   2.387   6.734 -0.3201  0.3019  0.5391
23883ION     CL28283  13.194   1.045   0.988 -0.2477  0.0282 -0.0287
23884ION     CL28284   2.795   2.681  30.765 -0.2866 -0.4310  0.3611
23885ION     CL28285  24.685   4.271   6.438 -0.1010 -0.1585 -0.1532
23886ION     CL28286   0.662   6.008  28.038  0.2742  0.2998  0.1325
23887ION     CL28287  19.297   5.679  22.889 -0.5745  0.2290  0.1872
23888ION     CL28288  13.030   3.163  29.034  0.8345  0.3550 -0.0885
23889ION     CL28289  11.938   2.341  29.847 -0.1263 -0.2642 -0.1078
23890ION     CL28290   5.421   2.678  31.504 -0.2629 -0.0970  0.2186
23891ION     CL28291   2.932   3.888  31.211  0.0803  0.3932 -0.5012
23892ION     CL28292   8.917   3.973  16.393  0.1102 -0.0009  0.0708
23893ION     CL28293  20.385   3.848   3.058  0.3573 -0.1502 -0.3062
23894ION     CL28294   0.837   3.252  26.700 -0.1569  0.1416 -0.3696
23895ION     CL28295  14.506   3.457   5.043  0.5970  0.1206  0.0137
23896ION     CL28296  14.266   2.315   2.287  0.1327  0.2542 -0.2233
23897ION     CL28297   1.415   5.988   6.512 -0.0140 -0.1394  0.0389
23898ION     CL28298   7.816   4.462  27.140 -0.7746 -0.0648 -0.4276
23899ION     CL28299  13.012   3.502   3.855 -0.5208  0.1358  0.5082
23900ION     CL28300   7.680   1.970  17.463 -0.1287 -0.3370  0.1414
23901ION     CL28301  15.074   2.292   7.978 -0.2994 -0.3721 -0.5164
23902ION     CL28302   4.385   4.849  24.249 -0.1213 -0.0506 -0.1339
23903ION     CL28303  11.442   6.863  27.455  0.3724  0.2269 -0.0998
23904ION     CL28304  10.173   3.376  13.194  0.2081 -0.2668  0.4537
23905ION     CL28305  24.203   2.395  22.410  0.0987 -0.3416  0.6239
23906ION     CL28306   2.751   0.394   4.969  0.2736 -0.3334  0.1183
23907ION     CL28307   7.700   0.211  15.385  0.6645  0.2670  0.0252
23908ION     CL28308  18.174   3.245   2.528 -0.2061 -0.1387  0.1685
23909ION     CL28309   2.948   4.004   9.796 -0.0846  0.0418  0.1308
23910ION     CL28310  18.462   2.842  27.100 -0.1156  0.4774 -0.1009
23911ION     CL28311  12.543   5.427  29.740  0.2864 -0.1171  0.2612
23912ION     CL28312  14.578   2.276  11.612  0.0089  0.4674  0.2124
23913ION     CL28313   4.719   3.924  13.359 -0.0316  0.3927 -0.0573
23914ION     CL28314  21.147   6.798  25.254 -0.1842 -0.3703  0.1043
23915ION     CL28315   5.652   2.259  32.184  0.1028 -0.0116  0.0323
23916ION     CL28316  24.799   4.523  23.175 -0.1644 -0.0739 -0.4150
23917ION     CL28317  19.927   5.818   5.833 -0.1318  0.0555  0.0060
23918ION     CL28318  16.315   5.622  19.928 -0.0341  0.5434 -0.3603
23919ION     CL28319   2.471   7.622   0.886  0.4763 -0.1094 -0.6886
23920ION     CL28320  15.601   3.997  21.570  0.6700  0.0086  0.0558
23921ION     CL28321   1.655   6.358  28.084  0.1415 -0.2432  0.1931
23922ION     CL28322  24.493   2.781  20.138  0.1126  0.1440  0.1249
23923ION     CL28323  11.079   6.494  13.486  0.1331  0.0078  0.1820
23924ION     CL28324   1.191   3.722   4.405 -0.2549  0.2713 -0.3953
23925ION     CL28325  19.366   6.147  23.495  0.3077  0.2889 -0.1360
23926ION     CL28326  14.138   5.117  30.688 -0.1313  0.1509 -0.0506
23927ION     CL28327  13.611   3.932   9.116  0.0071 -0.1180  0.2189
23928ION     CL28328   1.632   4.105   9.230 -0.0582 -0.0502 -0.0676
23929ION     CL28329  23.492   7.701  28.874 -0.2740 -0.3953  0.1498
23930ION     CL28330   6.988   7.583  13.315 -0.2692  0.1082 -0.0815
23931ION     CL28331  11.123   7.353   9.019  0.3975  0.2266 -0.5819
23932ION     CL28332   5.029   0.859  32.601 -0.2295 -0.4322 -0.0566
23933ION     CL28333  10.356   2.821   2.676 -0.0871  0.4825  0.2849
23934ION     CL28334  18.947   5.492  30.010  0.1600 -0.0033 -0.4251
23935ION     CL28335  15.177   3.443   7.515  0.3037 -0.3450 -0.2771
23936ION     CL28336  22.338   2.252   8.206 -0.0161  0.1413  0.4923
23937ION     CL28337   4.386   2.461  24.096  0.0677 -0.0041 -0.3350
23938ION     CL28338   9.495   5.802  12.841  0.5008  0.2542  0.4234
23939ION     CL28339  10.796   6.211  12.378 -0.2239  0.0787  0.1214
23940ION     CL28340   2.289   3.032   9.234  0.1316 -0.1147  0.0915
23941ION     CL28341   6.441   1.919   2.583  0.2006 -0.0180 -0.1176
23942ION     CL28342   9.356   2.099  13.703 -0.6601  0.0789  0.1673
23943ION     CL28343  15.139   2.723   9.560  0.3359  0.0299  0.3951
23944ION     CL28344  16.175   2.720   5.692 -0.0497 -0.2299  0.3085
23945ION     CL28345  22.792   3.549  31.388 -0.1590 -0.0999 -0.3107
23946ION     CL28346   3.984   0.235  25.610  0.0816 -0.2771 -0.2501
23947ION     CL28347   9.784   6.174  16.540 -0.2497 -0.1409  0.1243
23948ION     CL28348  13.049   2.333   3.345 -0.2243  0.2796 -0.0410
23949ION     CL28349  16.173   7.671  31.064 -0.1300  0.3645  0.2283
23950ION     CL28350  20.261   3.481  26.484 -0.2153 -0.0206  0.4099
23951ION     CL28351  17.261   7.272  20.600 -0.0965  0.1971  0.3370
23952ION     CL28352  16.410   1.858   5.121 -0.0220  0.2374 -0.2709
23953ION     CL28353   7.123   3.938  14.539 -0.1889  0.1135 -0.0684
23954ION     CL28354   9.390   3.516   5.031 -0.5411  0.4237  0.2275
23955ION     CL28355  19.802   6.573   5.734  0.2187  0.2375 -0.0556
23956ION     CL28356  16.506   1.086   8.369 -0.0596  0.5072  0.3781
23957ION     CL28357  11.909   6.730   7.700  0.2225 -0.0472  0.1025
23958ION     CL28358   4.135   3.782   5.299  0.3804  0.2420  0.4768
23959ION     CL28359  14.417   2.234  28.433  0.5191 -0.3294  0.2599
23960ION     CL28360   3.385   0.868  31.920 -0.6745 -0.4529  0.2584
23961ION     CL28361   1.711   4.091   2.215 -0.1084 -0.3325  0.0868
23962ION     CL28362  17.352   0.065   8.133  0.0846 -0.1853 -0.1331
23963ION     CL28363  16.764   4.623   0.341  0.2402 -0.2142 -0.1301
23964ION     CL28364  15.887   3.053  26.604  0.3242  0.0958 -0.4389
23965ION     CL28365  19.143   6.728  29.681  0.1818  0.2640  0.0772
23966ION     CL28366   9.138   5.174  26.907  0.3171 -0.0427  0.2066
23967ION     CL28367   0.205   4.464  29.214  0.6494  0.0117 -0.2373
23968ION     CL28368  15.458   5.798  32.319 -0.5203  0.3708  0.1432
23969ION     CL28369  24.456   3.321  21.681  0.1268  0.4734  0.0265
23970ION     CL28370   6.852   7.211   5.718 -0.2094  0.1170  0.2137
23971ION     CL28371  12.228   6.051  23.710 -0.0698 -0.1126  0.2080
23972ION     CL28372   6.295   0.221   1.420 -0.1024 -0.2221 -0.1035
23973ION     CL28373  16.915   1.065  10.285  0.4525 -0.1105  0.0478
23974ION     CL28374   6.782   2.992  24.051 -0.3052  0.0425  0.0962
23975DOPC   NC328375   0.148   1.833  15.830  0.1060  0.0264 -0.0526
23975DOPC   PO428376   0.230   1.641  16.186 -0.0335  0.1770  0.0972
23975DOPC   GL128377   0.595   1.798  15.931 -0.0751  0.1820 -0.1675
23975DOPC   GL228378   0.754   1.601  16.071 -0.0059  0.4254 -0.1775
23975DOPC   C1A28379   0.632   1.973  15.538  0.0528  0.1712 -0.0103
23975DOPC   D2A28380   0.730   2.201  15.142 -0.1760  0.1778  0.0394
23975DOPC   C3A28381   0.816   2.675  14.972 -0.1516  0.1090 -0.0304
23975DOPC   C4A28382   1.098   3.025  14.787 -0.1126  0.0507  0.0229
23975DOPC   C1B28383   1.099   1.348  16.023  0.1477  0.2131  0.4026
23975DOPC   D2B28384   1.414   1.015  15.903  0.3711  0.0293  0.2143
23975DOPC   C3B28385   1.854   0.996  15.682  0.0641  0.1060 -0.1073
23975DOPC   C4B28386   2.206   1.017  15.297  0.1251 -0.1336 -0.4207
23976DOPC   NC328387  17.183   3.161  16.272 -0.2238  0.0856 -0.3943
23976DOPC   PO428388  16.974   2.951  16.588  0.0310 -0.2533  0.2013
23976DOPC   GL128389  16.553   2.863  16.372 -0.0906 -0.0208 -0.4067
23976DOPC   GL228390  16.722   3.118  16.209 -0.0912 -0.0071 -0.2075
23976DOPC   C1A28391  16.182   2.674  16.196  0.1500  0.5250  0.1643
23976DOPC   D2A28392  16.143   2.470  15.712  0.1469  0.1944  0.0368
23976DOPC   C3A28393  15.801   2.572  15.383 -0.0979  0.1901 -0.1524
23976DOPC   C4A28394  15.400   2.364  15.082 -0.2341  0.1361 -0.3963
23976DOPC   C1B28395  16.627   3.443  15.948  0.0641 -0.1581  0.1101
23976DOPC   D2B28396  16.412   3.638  15.484  0.0024 -0.2110  0.2112
23976DOPC   C3B28397  16.192   4.086  15.278 -0.0330  0.0906  0.0050
23976DOPC   C4B28398  16.108   4.506  15.113 -0.3130 -0.1098 -0.0458
23977DOPC   NC328399   6.944   5.804  22.553  0.1352  0.5182 -0.1441
23977DOPC   PO428400   7.232   6.024  22.590 -0.0920 -0.2169 -0.1225
23977DOPC   GL128401   7.251   6.116  22.191 -0.3461  0.0497  0.1761
23977DOPC   GL228402   7.218   5.781  22.142  0.0575 -0.0789  0.0144
23977DOPC   C1A28403   7.485   6.124  21.846  0.0120 -0.0742  0.0200
23977DOPC   D2A28404   7.661   6.283  21.457  0.0801  0.0466 -0.0438
23977DOPC   C3A28405   7.963   6.393  21.123 -0.0944  0.2240 -0.0342
23977DOPC   C4A28406   8.046   6.428  20.668 -0.0189 -0.1317  0.2005
23977DOPC   C1B28407   7.059   5.614  21.757  0.1158 -0.0864  0.1086
23977DOPC   D2B28408   6.884   5.407  21.370  0.1361  0.0766  0.0205
23977DOPC   C3B28409   6.562   5.574  21.103 -0.0710  0.0881  0.4189
23977DOPC   C4B28410   6.453   5.799  20.640 -0.1440 -0.0155  0.0538
23978DOPC   NC328411   7.410   3.269  21.923  0.4353  0.0364  0.1542
23978DOPC   PO428412   7.605   3.434  22.263  0.0906 -0.1188  0.3260
23978DOPC   GL128413   7.922   3.315  21.995  0.4066 -0.3810  0.0645
23978DOPC   GL228414   8.097   3.511  22.091  0.1460  0.1523 -0.0595
23978DOPC   C1A28415   7.823   3.205  21.622  0.0054 -0.1307 -0.0303
23978DOPC   D2A28416   7.791   3.007  21.176  0.0029  0.1938  0.0169
23978DOPC   C3A28417   7.470   3.040  20.834  0.2911  0.1219  0.2872
23978DOPC   C4A28418   7.044   3.146  20.606 -0.1081  0.1190  0.1035
23978DOPC   C1B28419   8.379   3.636  21.732 -0.2586  0.0470  0.2037
23978DOPC   D2B28420   8.128   3.791  21.313  0.1969  0.2225  0.1692
23978DOPC   C3B28421   8.081   3.608  20.889 -0.1346  0.2166 -0.1045
23978DOPC   C4B28422   7.922   3.491  20.448 -0.0468 -0.1483  0.0600
23979DOPC   NC328423  16.252   5.792  17.806  0.0259  0.1594  0.0022
23979DOPC   PO428424  16.171   6.190  17.885 -0.0244 -0.0813  0.1650
23979DOPC   GL128425  15.867   6.183  17.686 -0.1369 -0.0348 -0.1960
23979DOPC   GL228426  15.731   6.455  17.772 -0.0323 -0.2496 -0.2376
23979DOPC   C1A28427  15.641   6.314  17.348  0.0033 -0.3861 -0.3093
23979DOPC   D2A28428  15.490   6.656  17.029  0.0376  0.2234  0.3465
23979DOPC   C3A28429  15.084   6.867  16.988  0.0228 -0.2585 -0.1164
23979DOPC   C4A28430  14.601   6.908  16.908 -0.3103 -0.3124  0.0140
23979DOPC   C1B28431  15.292   6.542  17.583 -0.1322 -0.2801  0.0909
23979DOPC   D2B28432  14.956   6.523  17.283 -0.0244 -0.0398 -0.2493
23979DOPC   C3B28433  14.556   6.552  17.491 -0.0475  0.0081 -0.1422
23979DOPC   C4B28434  14.127   6.665  17.687  0.2306 -0.2238  0.3215
23980DOPC   NC328435  21.298   3.653  14.735  0.3117  0.1322  0.1323
23980DOPC   PO428436  21.546   3.918  14.645  0.0286 -0.0962  0.0773
23980DOPC   GL128437  21.598   3.601  14.354 -0.1656  0.1989  0.1402
23980DOPC   GL228438  21.386   3.582  14.254 -0.0265 -0.2200 -0.0405
23980DOPC   C1A28439  21.861   3.520  13.957 -0.1568  0.3644 -0.2550
23980DOPC   D2A28440  22.225   3.513  13.661  0.0947 -0.2110 -0.0677
23980DOPC   C3A28441  22.249   3.521  13.235  0.1994 -0.0956 -0.2835
23980DOPC   C4A28442  22.036   3.462  12.790 -0.0584  0.1271  0.0855
23980DOPC   C1B28443  21.365   3.658  13.772 -0.1201  0.2669 -0.0077
23980DOPC   D2B28444  21.361   3.815  13.350 -0.1523 -0.1717  0.1653
23980DOPC   C3B28445  21.159   3.879  12.940 -0.3001  0.0644  0.0186
23980DOPC   C4B28446  21.066   4.011  12.465  0.1722 -0.0704 -0.1733
23981DOPC   NC328447  20.931   5.982  14.288  0.1687 -0.0371  0.1173
23981DOPC   PO428448  21.151   5.876  13.968  0.0134 -0.0622 -0.0215
23981DOPC   GL128449  21.031   5.699  13.611  0.0340 -0.1743  0.1324
23981DOPC   GL228450  21.226   5.842  13.476 -0.0078  0.2050 -0.0083
23981DOPC   C1A28451  20.755   5.668  13.305 -0.1372 -0.0295  0.0481
23981DOPC   D2A28452  20.565   5.957  12.951 -0.1571 -0.1944  0.0352
23981DOPC   C3A28453  20.765   5.708  12.595 -0.0496  0.2246  0.0163
23981DOPC   C4A28454  20.619   5.313  12.343  0.1630  0.0284  0.1158
23981DOPC   C1B28455  21.184   5.940  13.019 -0.0016  0.0147  0.3584
23981DOPC   D2B28456  21.122   6.116  12.541  0.0873 -0.0870 -0.0338
23981DOPC   C3B28457  20.692   6.155  12.322 -0.0582 -0.2992 -0.0546
23981DOPC   C4B28458  20.305   5.947  12.439 -0.0484 -0.0305 -0.0840
23982DOPC   NC328459  22.401   0.955  14.461  0.0598  0.2454  0.2214
23982DOPC   PO428460  22.777   1.073  14.600  0.2019 -0.2526 -0.0103
23982DOPC   GL128461  23.037   1.346  14.380 -0.2209  0.4506 -0.0132
23982DOPC   GL228462  22.877   1.162  14.165 -0.0116 -0.0180  0.0295
23982DOPC   C1A28463  23.513   1.320  14.292 -0.4196  0.0559  0.0290
23982DOPC   D2A28464  23.896   1.142  14.081  0.1147 -0.0432 -0.0426
23982DOPC   C3A28465  24.074   0.854  13.796 -0.0306 -0.0152 -0.1430
23982DOPC   C4A28466  24.354   0.502  13.720  0.1254 -0.0286 -0.0442
23982DOPC   C1B28467  23.112   1.083  13.737 -0.0686 -0.3552  0.1762
23982DOPC   D2B28468  23.346   1.012  13.258 -0.2520  0.0263  0.1307
23982DOPC   C3B28469  23.716   0.740  13.139 -0.3371  0.2057 -0.1011
23982DOPC   C4B28470  24.091   0.457  12.925 -0.2466 -0.0702  0.0404
23983DOPC   NC328471  16.109   7.683  17.623  0.1959 -0.1636 -0.2576
23983DOPC   PO428472  16.216   8.028  17.826 -0.2152  0.2380 -0.0940
23983DOPC   GL128473  16.192   8.283  17.541  0.0472 -0.0516 -0.0805
23983DOPC   GL228474  16.196   8.056  17.347  0.0358 -0.2225  0.3240
23983DOPC   C1A28475  15.773   8.442  17.638  0.3925  0.1495 -0.0433
23983DOPC   D2A28476  15.330   8.516  17.831 -0.1724 -0.0446  0.1570
23983DOPC   C3A28477  15.020   8.646  17.540 -0.1546 -0.2108 -0.0234
23983DOPC   C4A28478  14.694   8.869  17.242 -0.1313 -0.1448 -0.1579
23983DOPC   C1B28479  15.794   8.106  17.205  0.2982 -0.2326 -0.2851
23983DOPC   D2B28480  15.377   8.237  16.850  0.1452 -0.1561  0.1093
23983DOPC   C3B28481  15.247   7.978  16.453 -0.1271 -0.1746 -0.3766
23983DOPC   C4B28482  14.868   7.737  16.273 -0.0704 -0.0581  0.0769
23984DOPC   NC328483   6.697   3.092  21.983  0.1456 -0.1956 -0.1155
23984DOPC   PO428484   7.029   2.859  21.906 -0.4270  0.0443  0.1016
23984DOPC   GL128485   7.060   2.444  21.779  0.3023  0.0663 -0.1449
23984DOPC   GL228486   7.348   2.462  21.858  0.0550 -0.0939 -0.0550
23984DOPC   C1A28487   7.129   2.263  21.380 -0.2494 -0.3063 -0.0356
23984DOPC   D2A28488   7.432   2.151  21.033 -0.1251  0.1140 -0.1125
23984DOPC   C3A28489   7.864   1.952  20.932 -0.0237 -0.0805 -0.1560
23984DOPC   C4A28490   8.214   1.704  20.671  0.3906 -0.1319 -0.0158
23984DOPC   C1B28491   7.620   2.629  21.480 -0.0290  0.3312  0.1449
23984DOPC   D2B28492   7.677   2.569  20.967 -0.0295 -0.0799 -0.1205
23984DOPC   C3B28493   7.884   2.651  20.583  0.0534 -0.1731  0.0186
23984DOPC   C4B28494   8.262   2.618  20.239  0.1145 -0.1443  0.0493
23985DOPC   NC328495  14.617   0.169  20.212 -0.1292 -0.0732  0.1407
23985DOPC   PO428496  14.542  -0.112  19.940 -0.0724 -0.0799  0.1190
23985DOPC   GL128497  14.293  -0.095  19.688 -0.0474  0.1526 -0.4902
23985DOPC   GL228498  14.045  -0.232  19.892  0.3032 -0.0978 -0.1429
23985DOPC   C1A28499  14.044   0.121  19.389  0.0456  0.0823 -0.2729
23985DOPC   D2A28500  13.839   0.441  19.161 -0.0863  0.3216  0.1063
23985DOPC   C3A28501  13.556   0.363  18.790 -0.1815  0.1416 -0.0020
23985DOPC   C4A28502  13.200   0.503  18.370  0.1460  0.1484 -0.2649
23985DOPC   C1B28503  13.737  -0.278  19.661  0.1899 -0.3157  0.2709
23985DOPC   D2B28504  13.546  -0.195  19.243 -0.1721 -0.1981 -0.0736
23985DOPC   C3B28505  13.220   0.122  19.190  0.0970  0.2705  0.2920
23985DOPC   C4B28506  12.929   0.497  19.325  0.3513  0.4405 -0.0602
23986DOPC   NC328507  16.027   7.150  19.180  0.2425  0.0789 -0.0553
23986DOPC   PO428508  15.799   7.091  18.872 -0.0632  0.1209 -0.1368
23986DOPC   GL128509  15.379   7.145  18.848  0.2771 -0.4731 -0.0105
23986DOPC   GL228510  15.309   7.418  18.847 -0.0280  0.1842  0.4083
23986DOPC   C1A28511  14.970   6.981  18.876 -0.0868  0.0955 -0.1864
23986DOPC   D2A28512  14.563   6.693  18.770  0.1810  0.0535  0.1876
23986DOPC   C3A28513  14.283   6.402  18.878  0.2063  0.5204  0.0768
23986DOPC   C4A28514  13.789   6.250  18.863 -0.0677 -0.2165 -0.1806
23986DOPC   C1B28515  15.085   7.298  18.553  0.1879  0.1196 -0.0476
23986DOPC   D2B28516  14.673   7.311  18.227  0.0199  0.2631  0.0699
23986DOPC   C3B28517  14.591   7.656  17.948 -0.1225 -0.2326 -0.1423
23986DOPC   C4B28518  14.277   7.884  17.619  0.2252  0.0982 -0.2085
23987DOPC   NC328519  21.852   7.128  13.895 -0.1754  0.2165  0.1668
23987DOPC   PO428520  22.076   6.795  14.076  0.2724  0.1639  0.4664
23987DOPC   GL128521  21.947   6.652  13.729 -0.1697 -0.0611  0.0868
23987DOPC   GL228522  21.712   6.794  13.639  0.1912  0.0171  0.3933
23987DOPC   C1A28523  22.330   6.544  13.379  0.1896 -0.1780  0.1610
23987DOPC   D2A28524  22.379   6.604  12.948 -0.2724  0.0593  0.0752
23987DOPC   C3A28525  22.530   6.731  12.532  0.0706 -0.0012 -0.0815
23987DOPC   C4A28526  22.830   6.949  12.212  0.1327  0.0175  0.1197
23987DOPC   C1B28527  21.756   6.963  13.264 -0.0264  0.1231 -0.0506
23987DOPC   D2B28528  21.545   7.307  13.036  0.0578 -0.0167  0.1280
23987DOPC   C3B28529  21.228   7.156  12.772  0.0694  0.1737  0.1503
23987DOPC   C4B28530  21.015   6.959  12.375 -0.0537  0.2018  0.3538
23988DOPC   NC328531  23.296   5.613  15.165  0.0195 -0.0701  0.1661
23988DOPC   PO428532  23.657   5.524  15.048  0.0300  0.2048  0.2476
23988DOPC   GL128533  23.761   5.658  14.596  0.2572 -0.1441  0.0872
23988DOPC   GL228534  24.016   5.463  14.654 -0.1273  0.1385 -0.2573
23988DOPC   C1A28535  23.684   5.744  14.140 -0.0648  0.1564 -0.1999
23988DOPC   D2A28536  23.698   5.936  13.653  0.1411 -0.0950  0.1464
23988DOPC   C3A28537  23.771   5.990  13.198  0.0349  0.2323  0.1863
23988DOPC   C4A28538  23.944   5.758  12.764 -0.1898 -0.0314  0.0218
23988DOPC   C1B28539  24.440   5.580  14.434  0.2342  0.1862 -0.0021
23988DOPC   D2B28540  24.685   5.827  14.025  0.1148 -0.1257 -0.0071
23988DOPC   C3B28541  25.032   5.964  13.783 -0.3518  0.1511 -0.0338
23988DOPC   C4B28542  25.299   6.009  13.374  0.1513  0.4823 -0.0203
23989DOPC   NC328543  19.204   6.579  14.945 -0.3049 -0.1628  0.0752
23989DOPC   PO428544  18.919   6.828  15.099 -0.2143 -0.1513 -0.0087
23989DOPC   GL128545  18.556   6.904  14.929 -0.0957  0.3700  0.4761
23989DOPC   GL228546  18.615   7.116  14.722  0.2317  0.1969 -0.3860
23989DOPC   C1A28547  18.131   6.770  14.868  0.0172  0.2224  0.1237
23989DOPC   D2A28548  17.843   6.391  14.709 -0.0159 -0.0054  0.1992
23989DOPC   C3A28549  17.550   6.563  14.335  0.2530  0.1583 -0.0048
23989DOPC   C4A28550  17.401   6.939  14.081  0.0970  0.0667  0.0636
23989DOPC   C1B28551  18.214   7.157  14.399 -0.3005  0.0003  0.2805
23989DOPC   D2B28552  17.895   7.250  14.002  0.0103  0.1911  0.0584
23989DOPC   C3B28553  17.754   6.868  13.783 -0.4119  0.2442 -0.1508
23989DOPC   C4B28554  17.775   6.499  13.600  0.2294 -0.0350 -0.4144
23990DOPC   NC328555  10.617   6.524  22.678  0.1096  0.0814  0.1259
23990DOPC   PO428556  10.825   6.773  22.405  0.0746 -0.0141  0.1445
23990DOPC   GL128557  10.760   6.937  22.008 -0.0164  0.1572 -0.0275
23990DOPC   GL228558  11.094   6.877  21.855  0.2387 -0.1968  0.0694
23990DOPC   C1A28559  10.619   6.761  21.558  0.2423 -0.1982  0.0312
23990DOPC   D2A28560  10.651   6.751  21.040 -0.1689 -0.0711 -0.2008
23990DOPC   C3A28561  10.473   6.714  20.620 -0.3917  0.0510 -0.0438
23990DOPC   C4A28562  10.293   6.696  20.166 -0.2232 -0.0054 -0.0418
23990DOPC   C1B28563  11.137   6.766  21.425  0.0897 -0.2330 -0.2188
23990DOPC   D2B28564  11.271   6.479  21.036  0.2860 -0.0328 -0.2764
23990DOPC   C3B28565  11.092   6.467  20.636 -0.0932  0.1855  0.0852
23990DOPC   C4B28566  10.857   6.661  20.233 -0.3156  0.0689  0.0428
23991DOPC   NC328567   0.630   5.346  16.259  0.1698 -0.1578  0.4400
23991DOPC   PO428568   0.585   5.453  16.671 -0.4484 -0.2432 -0.1939
23991DOPC   GL128569   0.840   5.776  16.582  0.3727 -0.1819 -0.1479
23991DOPC   GL228570   0.730   5.774  16.315  0.1213 -0.4014  0.6433
23991DOPC   C1A28571   1.263   5.833  16.528 -0.1969  0.1423  0.2252
23991DOPC   D2A28572   1.718   5.661  16.564  0.0836  0.2635  0.1212
23991DOPC   C3A28573   2.143   5.656  16.344 -0.1951 -0.1665  0.0712
23991DOPC   C4A28574   2.481   6.047  16.271  0.0966 -0.0256  0.0657
23991DOPC   C1B28575   1.110   5.778  16.053 -0.1254  0.0982 -0.2852
23991DOPC   D2B28576   1.374   5.526  15.699  0.3512  0.2763  0.0367
23991DOPC   C3B28577   1.722   5.820  15.597  0.2394 -0.1931  0.0507
23991DOPC   C4B28578   1.896   6.255  15.471 -0.3683 -0.0627 -0.1075
23992DOPC   NC328579  15.655   2.703  18.537  0.0163  0.1611  0.1954
23992DOPC   PO428580  15.699   2.371  18.700 -0.1537  0.2827 -0.0365
23992DOPC   GL128581  15.431   2.290  18.353 -0.4117 -0.4885  0.3342
23992DOPC   GL228582  15.276   2.427  18.502 -0.3046 -0.0611 -0.0501
23992DOPC   C1A28583  15.421   2.524  18.023  0.0741 -0.2842 -0.1236
23992DOPC   D2A28584  15.139   2.682  17.622  0.1270  0.0800  0.0128
23992DOPC   C3A28585  14.970   2.744  17.193  0.1087  0.0279  0.1631
23992DOPC   C4A28586  14.648   2.867  16.852  0.1390  0.1803  0.1274
23992DOPC   C1B28587  14.967   2.212  18.295 -0.0296  0.2067  0.0233
23992DOPC   D2B28588  14.543   2.326  18.003 -0.5278 -0.0702 -0.1063
23992DOPC   C3B28589  14.225   2.403  17.643  0.0382 -0.0114 -0.0096
23992DOPC   C4B28590  13.991   2.366  17.219 -0.0237 -0.0477  0.0457
23993DOPC   NC328591  16.672   6.581  17.422 -0.3080 -0.2662  0.2972
23993DOPC   PO428592  16.758   6.942  17.485 -0.2736 -0.1964 -0.3826
23993DOPC   GL128593  16.310   6.968  17.447  0.2058 -0.0655  0.1820
23993DOPC   GL228594  16.356   6.831  17.201 -0.3153  0.1550 -0.1869
23993DOPC   C1A28595  15.987   7.253  17.351 -0.1751  0.3905 -0.2136
23993DOPC   D2A28596  15.543   7.135  17.138 -0.2650 -0.3300  0.1298
23993DOPC   C3A28597  15.143   7.334  17.115 -0.1350 -0.0712  0.2698
23993DOPC   C4A28598  14.740   7.415  16.937  0.0868  0.1417  0.0068
23993DOPC   C1B28599  15.981   6.770  16.961  0.0608 -0.0134 -0.1437
23993DOPC   D2B28600  15.735   6.646  16.566  0.0623  0.1185  0.2690
23993DOPC   C3B28601  15.399   6.403  16.472  0.4248  0.1526  0.0443
23993DOPC   C4B28602  14.972   6.320  16.213 -0.2050 -0.2525 -0.1321
23994DOPC   NC328603   4.044   3.012  21.471 -0.1207 -0.0672 -0.0446
23994DOPC   PO428604   3.870   3.213  21.127 -0.1797  0.0762 -0.3433
23994DOPC   GL128605   4.009   2.987  20.747 -0.0152  0.3511 -0.2532
23994DOPC   GL228606   4.193   2.946  21.025 -0.2172 -0.0777 -0.1180
23994DOPC   C1A28607   4.170   2.949  20.338  0.0355 -0.2328  0.3350
23994DOPC   D2A28608   4.201   2.682  19.973  0.0297  0.2983  0.0251
23994DOPC   C3A28609   4.387   2.288  19.738  0.0527 -0.1396 -0.0582
23994DOPC   C4A28610   4.478   1.914  19.447  0.1682 -0.1838  0.2503
23994DOPC   C1B28611   4.626   3.016  20.953 -0.3003 -0.0698 -0.1037
23994DOPC   D2B28612   5.061   3.140  20.774 -0.1825 -0.2260 -0.4675
23994DOPC   C3B28613   5.167   2.984  20.391 -0.1037  0.1979  0.0412
23994DOPC   C4B28614   5.208   2.816  19.877 -0.1096 -0.1755  0.0178
23995DOPC   NC328615   2.523   1.412  20.217 -0.0425  0.1624 -0.0702
23995DOPC   PO428616   2.783   1.111  20.147  0.1403  0.1881  0.0155
23995DOPC   GL128617   3.039   1.262  19.977  0.4136  0.1158  0.0046
23995DOPC   GL228618   3.226   1.037  19.836  0.0683 -0.0621  0.3097
23995DOPC   C1A28619   3.406   1.413  20.035  0.2103 -0.2438  0.3074
23995DOPC   D2A28620   3.745   1.799  20.233  0.1919  0.1130 -0.1104
23995DOPC   C3A28621   4.165   1.862  20.408 -0.1185 -0.1068 -0.3939
23995DOPC   C4A28622   4.465   1.608  20.661  0.0244 -0.1598 -0.4261
23995DOPC   C1B28623   3.508   1.146  19.455 -0.2794 -0.0572  0.2195
23995DOPC   D2B28624   3.903   1.192  19.213  0.1820 -0.2160  0.2035
23995DOPC   C3B28625   3.927   1.060  18.818  0.1094  0.1086  0.0441
23995DOPC   C4B28626   3.866   1.185  18.360  0.0839 -0.1394  0.0794
23996DOPC   NC328627   0.153   2.361  16.408  0.0591  0.1101 -0.0882
23996DOPC   PO428628   0.338   2.134  16.147  0.0659 -0.1925 -0.2391
23996DOPC   GL128629   0.730   2.178  16.218  0.1285  0.1499  0.5816
23996DOPC   GL228630   0.935   1.985  16.220  0.0234  0.0602  0.0882
23996DOPC   C1A28631   0.768   2.346  15.776  0.1594  0.2655 -0.3094
23996DOPC   D2A28632   1.168   2.496  15.550  0.0135  0.0958 -0.0288
23996DOPC   C3A28633   1.310   2.482  15.129  0.1005  0.1678  0.0372
23996DOPC   C4A28634   1.169   2.516  14.684 -0.0301 -0.1815  0.0559
23996DOPC   C1B28635   1.054   1.794  15.804 -0.2097 -0.0148 -0.1201
23996DOPC   D2B28636   1.425   1.480  15.652  0.1846  0.0113 -0.0841
23996DOPC   C3B28637   1.853   1.481  15.538 -0.2391  0.0483  0.2381
23996DOPC   C4B28638   2.231   1.320  15.787 -0.3608 -0.1455 -0.1360
23997DOPC   NC328639  19.901   3.919  13.984 -0.0944  0.0149  0.1446
23997DOPC   PO428640  19.872   4.282  14.121  0.0334  0.1417 -0.1519
23997DOPC   GL128641  19.457   4.391  13.996 -0.3681 -0.3728 -0.3003
23997DOPC   GL228642  19.436   4.096  13.902  0.2814  0.1729  0.3660
23997DOPC   C1A28643  19.219   4.591  13.680 -0.3240 -0.2002 -0.0930
23997DOPC   D2A28644  19.035   4.653  13.201  0.1664 -0.0108  0.1125
23997DOPC   C3A28645  18.950   4.344  12.928 -0.2655 -0.1922 -0.3489
23997DOPC   C4A28646  18.830   3.896  12.779 -0.1352  0.0662 -0.0646
23997DOPC   C1B28647  19.407   4.193  13.409 -0.3697 -0.0724  0.3158
23997DOPC   D2B28648  19.481   4.494  13.057  0.0005 -0.2354  0.1979
23997DOPC   C3B28649  19.302   4.976  12.889  0.0166 -0.2813  0.2303
23997DOPC   C4B28650  19.017   5.319  13.085  0.0635 -0.2252 -0.0411
23998DOPC   NC328651   7.728   4.412  22.692  0.0029 -0.1107  0.1940
23998DOPC   PO428652   8.112   4.590  22.682  0.2430  0.1489 -0.0761
23998DOPC   GL128653   8.129   4.787  22.341  0.0879 -0.1343  0.1383
23998DOPC   GL228654   8.470   4.768  22.396 -0.1234  0.1113 -0.0034
23998DOPC   C1A28655   8.173   4.632  21.969 -0.3266  0.2035  0.0316
23998DOPC   D2A28656   8.576   4.573  21.700 -0.2531 -0.0539 -0.2814
23998DOPC   C3A28657   8.803   4.578  21.284  0.3204  0.2974  0.0386
23998DOPC   C4A28658   8.804   4.290  20.859  0.2896  0.0865  0.1768
23998DOPC   C1B28659   8.591   5.003  21.991  0.3283 -0.0309 -0.0035
23998DOPC   D2B28660   8.676   5.086  21.489  0.2367  0.2535 -0.6974
23998DOPC   C3B28661   8.826   5.143  21.091 -0.2294 -0.0294 -0.1529
23998DOPC   C4B28662   9.147   5.415  20.865  0.2230  0.3792 -0.0798
23999DOPC   NC328663   0.121   4.874  16.190 -0.1072  0.1139 -0.6062
23999DOPC   PO428664   0.231   5.169  15.942  0.0952  0.0374 -0.2778
23999DOPC   GL128665   0.456   5.173  15.620  0.5503  0.2150  0.0472
23999DOPC   GL228666   0.279   5.342  15.487  0.0363  0.4802  0.1318
23999DOPC   C1A28667   0.794   4.990  15.445 -0.1556  0.2765 -0.2004
23999DOPC   D2A28668   1.273   4.891  15.487  0.0534 -0.1042  0.0618
23999DOPC   C3A28669   1.743   5.037  15.438 -0.3015 -0.0779 -0.2406
23999DOPC   C4A28670   2.013   5.428  15.295 -0.2249  0.3325 -0.0465
23999DOPC   C1B28671   0.551   5.481  15.193 -0.0033 -0.5384 -0.2386
23999DOPC   D2B28672   0.827   5.482  14.774 -0.1077 -0.0502 -0.0939
23999DOPC   C3B28673   1.231   5.743  14.870 -0.3193  0.1464  0.1638
23999DOPC   C4B28674   1.094   6.238  14.892 -0.2410  0.1892  0.2163
24000DOPC   NC328675  15.857   5.222  18.294  0.1839 -0.2013 -0.1101
24000DOPC   PO428676  15.712   5.473  18.552 -0.0952 -0.0422 -0.0373
24000DOPC   GL128677  15.526   5.791  18.448  0.2091  0.0240  0.1595
24000DOPC   GL228678  15.374   5.711  18.718  0.0128 -0.1336 -0.3570
24000DOPC   C1A28679  15.210   6.096  18.377  0.2864  0.1426 -0.2948
24000DOPC   D2A28680  14.938   6.333  18.085 -0.0792  0.0806 -0.2791
24000DOPC   C3A28681  14.495   6.579  18.006 -0.0860 -0.1764  0.1532
24000DOPC   C4A28682  14.162   6.732  18.335  0.0179 -0.1151  0.1942
24000DOPC   C1B28683  14.998   5.794  18.697 -0.2229  0.2247  0.0248
24000DOPC   D2B28684  14.862   5.787  18.215  0.1881  0.0789  0.1351
24000DOPC   C3B28685  14.464   5.616  17.946  0.2847  0.2755  0.0777
24000DOPC   C4B28686  14.436   5.657  17.494 -0.1018 -0.0387 -0.0050
24001DOPC   NC328687  23.349   2.344  14.734 -0.0743 -0.0120 -0.1211
24001DOPC   PO428688  23.385   2.700  14.586  0.0939 -0.0364 -0.0437
24001DOPC   GL128689  23.567   2.524  14.231  0.2632 -0.1709  0.1102
24001DOPC   GL228690  23.826   2.599  14.381 -0.3011  0.0496  0.1477
24001DOPC   C1A28691  23.581   2.771  13.816 -0.1841 -0.2174  0.0288
24001DOPC   D2A28692  23.455   3.185  13.517  0.0157 -0.2224  0.3749
24001DOPC   C3A28693  23.211   3.023  13.149  0.1344 -0.2111  0.0200
24001DOPC   C4A28694  23.159   3.230  12.734 -0.2380 -0.1819  0.0850
24001DOPC   C1B28695  24.058   2.662  13.973  0.1771 -0.3036  0.2630
24001DOPC   D2B28696  24.015   2.582  13.439 -0.0129 -0.0484 -0.1605
24001DOPC   C3B28697  24.238   2.316  13.116  0.1194  0.0601  0.3395
24001DOPC   C4B28698  24.072   1.908  12.830  0.3060 -0.0915 -0.0222
24002DOPC   NC328699   2.629   0.544  19.595 -0.0156  0.1468 -0.4135
24002DOPC   PO428700   2.349   0.522  19.309 -0.1298 -0.1244 -0.0920
24002DOPC   GL128701   2.447   0.613  18.856  0.0556  0.5790  0.1323
24002DOPC   GL228702   2.308   0.887  18.877  0.2130  0.1235 -0.2779
24002DOPC   C1A28703   2.638   0.493  18.507  0.1724  0.0448  0.2063
24002DOPC   D2A28704   2.897   0.164  18.200 -0.3998  0.1486 -0.0546
24002DOPC   C3A28705   2.918   0.410  17.847 -0.0466 -0.0197 -0.1483
24002DOPC   C4A28706   3.075   0.733  17.506  0.0193  0.3465 -0.1255
24002DOPC   C1B28707   2.663   1.026  18.662  0.1838  0.0770  0.0977
24002DOPC   D2B28708   2.824   0.912  18.204  0.0554 -0.0229  0.2215
24002DOPC   C3B28709   3.193   1.056  17.896 -0.3563  0.0846  0.1379
24002DOPC   C4B28710   3.640   1.068  17.615  0.1485 -0.0183 -0.1872
24003DOPC   NC328711  18.212   0.213  15.138  0.1479  0.1340 -0.1669
24003DOPC   PO428712  18.128  -0.161  15.192 -0.1157 -0.0978 -0.0996
24003DOPC   GL128713  17.820  -0.219  14.876  0.1496  0.0155  0.0143
24003DOPC   GL228714  17.836   0.066  14.851  0.5206  0.0128 -0.1694
24003DOPC   C1A28715  17.801  -0.519  14.626  0.0836 -0.1746 -0.2484
24003DOPC   D2A28716  17.645  -0.916  14.610  0.0834  0.1436  0.0899
24003DOPC   C3A28717  17.189  -0.998  14.541  0.2164  0.2964 -0.1568
24003DOPC   C4A28718  16.703  -1.008  14.588  0.0677 -0.0946 -0.2489
24003DOPC   C1B28719  17.607  -0.046  14.500 -0.1463  0.2683  0.0055
24003DOPC   D2B28720  17.323   0.289  14.280  0.0123 -0.0354  0.0741
24003DOPC   C3B28721  17.424   0.214  13.800  0.1155 -0.0592  0.0723
24003DOPC   C4B28722  17.411   0.008  13.358  0.1336  0.0108  0.1150
24004DOPC   NC328723  19.292   4.939  14.617 -0.3249 -0.3233  0.1458
24004DOPC   PO428724  18.953   4.758  14.652 -0.0182  0.0411 -0.0666
24004DOPC   GL128725  18.672   4.698  14.366  0.0361  0.0298  0.0972
24004DOPC   GL228726  18.712   4.442  14.354 -0.0396  0.0524  0.2351
24004DOPC   C1A28727  18.334   4.750  14.013 -0.0616  0.0254  0.0146
24004DOPC   D2A28728  17.855   4.862  13.962  0.3094 -0.1643  0.0955
24004DOPC   C3A28729  17.491   4.936  13.761  0.1200  0.3638 -0.1536
24004DOPC   C4A28730  17.079   4.881  13.451  0.1457 -0.0055  0.0355
24004DOPC   C1B28731  18.435   4.273  14.004  0.0203 -0.1492 -0.2185
24004DOPC   D2B28732  18.247   4.183  13.569  0.0529  0.0844  0.4946
24004DOPC   C3B28733  18.043   4.305  13.153  0.0733 -0.0459 -0.1613
24004DOPC   C4B28734  18.085   4.550  12.706  0.2612  0.2362 -0.0547
24005DOPC   NC328735  15.288   3.720  19.696 -0.3146  0.1486  0.2025
24005DOPC   PO428736  15.137   3.997  19.491 -0.3485  0.2267  0.1402
24005DOPC   GL128737  14.912   4.043  19.107  0.6423  0.3607 -0.0147
24005DOPC   GL228738  15.080   3.877  18.967  0.0244  0.1569 -0.0698
24005DOPC   C1A28739  14.630   4.336  18.945 -0.3282  0.1330 -0.0191
24005DOPC   D2A28740  14.358   4.479  18.516  0.1331  0.2291 -0.1785
24005DOPC   C3A28741  13.971   4.708  18.301 -0.0375  0.0377 -0.0114
24005DOPC   C4A28742  13.543   4.957  18.311 -0.0892  0.1358 -0.1781
24005DOPC   C1B28743  14.659   3.802  18.862  0.0426 -0.1998  0.0291
24005DOPC   D2B28744  14.207   3.588  18.910  0.2222 -0.1581 -0.4503
24005DOPC   C3B28745  13.793   3.785  18.920 -0.0076 -0.1232  0.2058
24005DOPC   C4B28746  13.372   4.123  18.822 -0.2679  0.0479  0.0983
24006DOPC   NC328747   5.255   7.714  22.431  0.1135  0.1707  0.0845
24006DOPC   PO428748   5.603   7.752  22.238 -0.0379  0.2599 -0.2038
24006DOPC   GL128749   5.630   7.883  21.844 -0.1057 -0.1583  0.1311
24006DOPC   GL228750   5.640   8.175  21.893 -0.0316  0.2125  0.0357
24006DOPC   C1A28751   5.488   7.972  21.469  0.1176 -0.0474  0.1711
24006DOPC   D2A28752   5.494   7.716  21.042  0.0989 -0.3707  0.0992
24006DOPC   C3A28753   5.706   7.678  20.636  0.0422  0.2253  0.0157
24006DOPC   C4A28754   5.925   7.513  20.222 -0.3980  0.0622  0.1816
24006DOPC   C1B28755   5.826   8.598  21.777  0.0007  0.0619  0.2079
24006DOPC   D2B28756   6.087   8.935  21.529 -0.1075 -0.0079  0.3024
24006DOPC   C3B28757   6.413   8.818  21.210 -0.0245 -0.2189 -0.2834
24006DOPC   C4B28758   6.647   8.996  20.860  0.1286  0.0427  0.1458
24007DOPC   NC328759  21.361   4.982  14.624 -0.0922  0.0406  0.0772
24007DOPC   PO428760  21.239   5.024  14.225  0.3499  0.1947  0.0323
24007DOPC   GL128761  21.501   4.862  13.895  0.1140 -0.0088 -0.0192
24007DOPC   GL228762  21.288   5.011  13.772  0.2203 -0.0203 -0.5213
24007DOPC   C1A28763  21.672   4.558  13.612  0.0327 -0.0987  0.0267
24007DOPC   D2A28764  21.646   4.260  13.203 -0.0695  0.2185 -0.2423
24007DOPC   C3A28765  22.018   4.298  12.955 -0.1896 -0.0400 -0.0835
24007DOPC   C4A28766  22.336   4.645  12.762 -0.0474  0.0735  0.2526
24007DOPC   C1B28767  21.163   4.629  13.534 -0.0625  0.1539  0.1162
24007DOPC   D2B28768  21.187   4.321  13.174 -0.1573 -0.1478  0.1653
24007DOPC   C3B28769  21.357   4.407  12.815 -0.1059 -0.0477  0.2115
24007DOPC   C4B28770  21.349   4.781  12.568  0.0220  0.1379 -0.0548
24008DOPC   NC328771  24.747   0.660  15.527 -0.1556 -0.0558  0.3325
24008DOPC   PO428772  24.562   0.928  15.276  0.1062 -0.1988 -0.0962
24008DOPC   GL128773  24.875   0.999  15.036  0.2525  0.1640 -0.1256
24008DOPC   GL228774  24.961   0.667  15.136 -0.3458  0.0595  0.3319
24008DOPC   C1A28775  24.813   0.979  14.584 -0.0063 -0.0330 -0.0424
24008DOPC   D2A28776  24.919   1.237  14.247  0.0338 -0.2719 -0.1468
24008DOPC   C3A28777  25.200   1.110  13.840  0.3036  0.2229 -0.0721
24008DOPC   C4A28778  24.996   0.991  13.376  0.1461  0.1382 -0.0217
24008DOPC   C1B28779  25.192   0.582  14.748  0.5828 -0.1468  0.0511
24008DOPC   D2B28780  25.215   0.788  14.259 -0.0314  0.0022 -0.1326
24008DOPC   C3B28781  25.306   0.379  14.118 -0.0443 -0.0660 -0.2236
24008DOPC   C4B28782  25.581  -0.025  13.883  0.0795  0.0597  0.2015
24009DOPC   NC328783  24.604   3.990  15.678  0.0944  0.1596 -0.2105
24009DOPC   PO428784  24.693   4.134  15.305  0.0635 -0.1171  0.3389
24009DOPC   GL128785  25.046   4.273  15.111 -0.1400  0.0937  0.0088
24009DOPC   GL228786  24.862   4.359  14.888  0.0505 -0.1369  0.0864
24009DOPC   C1A28787  25.292   3.954  14.952  0.3324 -0.0885 -0.1300
24009DOPC   D2A28788  25.552   3.724  14.586  0.0396  0.1758 -0.1898
24009DOPC   C3A28789  25.650   3.748  14.162 -0.4195 -0.2239  0.1437
24009DOPC   C4A28790  25.468   3.539  13.748 -0.3258 -0.0418 -0.1371
24009DOPC   C1B28791  25.099   4.296  14.526  0.1628 -0.0576  0.1956
24009DOPC   D2B28792  25.287   4.128  14.110 -0.1087 -0.2935  0.4309
24009DOPC   C3B28793  25.647   4.270  13.903 -0.1703 -0.2447 -0.0518
24009DOPC   C4B28794  25.889   4.390  13.535 -0.0342  0.1730 -0.1927
24010DOPC   NC328795  17.710   5.586  16.120 -0.1994  0.1110  0.1316
24010DOPC   PO428796  17.347   5.419  16.282 -0.1410 -0.0675  0.2626
24010DOPC   GL128797  17.186   5.196  15.851 -0.2981 -0.2026  0.0018
24010DOPC   GL228798  16.898   5.173  16.076 -0.2613  0.0179  0.1620
24010DOPC   C1A28799  16.988   5.369  15.493  0.1088 -0.0023 -0.0242
24010DOPC   D2A28800  16.738   5.498  15.100 -0.0701  0.3695  0.0637
24010DOPC   C3A28801  16.329   5.643  15.049  0.2519 -0.0832 -0.0009
24010DOPC   C4A28802  15.823   5.727  15.015 -0.4277  0.0338  0.0763
24010DOPC   C1B28803  16.505   5.128  15.778 -0.2424  0.1505  0.2243
24010DOPC   D2B28804  15.943   5.108  15.888  0.2439  0.2575  0.1970
24010DOPC   C3B28805  15.517   5.166  15.577  0.0499  0.0720  0.0564
24010DOPC   C4B28806  15.188   5.578  15.490  0.3680  0.3193  0.0536
24011DOPC   NC328807  24.178   0.205  15.328  0.1597  0.3247  0.1029
24011DOPC   PO428808  24.516   0.198  15.517  0.0876  0.1208 -0.1220
24011DOPC   GL128809  24.641  -0.087  15.214 -0.1888  0.3278  0.2165
24011DOPC   GL228810  24.476  -0.157  15.029  0.2954  0.1246  0.0076
24011DOPC   C1A28811  25.058  -0.114  15.122 -0.1349  0.0511 -0.1002
24011DOPC   D2A28812  25.503   0.024  14.927  0.0658 -0.0720  0.0629
24011DOPC   C3A28813  25.966  -0.133  14.807  0.1845  0.1979  0.0808
24011DOPC   C4A28814  26.311  -0.455  14.629 -0.0027  0.1439 -0.3192
24011DOPC   C1B28815  24.333   0.084  14.668 -0.0718  0.3974  0.1683
24011DOPC   D2B28816  23.982   0.449  14.599 -0.1567 -0.1576 -0.0480
24011DOPC   C3B28817  23.781   0.604  14.186  0.0558  0.1716  0.1321
24011DOPC   C4B28818  23.590   0.754  13.742 -0.1697 -0.0553  0.1068
24012DOPC   NC328819  21.185   2.879  14.442  0.0765 -0.0557 -0.2891
24012DOPC   PO428820  21.185   3.261  14.448 -0.0447  0.0384  0.1721
24012DOPC   GL128821  21.066   3.355  14.083  0.0889  0.0339  0.0026
24012DOPC   GL228822  21.120   3.100  13.994  0.0464 -0.0873  0.5600
24012DOPC   C1A28823  20.902   3.576  13.736 -0.2202 -0.0298 -0.2525
24012DOPC   D2A28824  20.840   3.811  13.284  0.2129 -0.2238 -0.1714
24012DOPC   C3A28825  20.683   3.876  12.830 -0.0359 -0.1281  0.2531
24012DOPC   C4A28826  20.626   4.136  12.374  0.1586  0.0032 -0.0648
24012DOPC   C1B28827  21.484   3.162  13.741  0.1138 -0.1125 -0.1743
24012DOPC   D2B28828  21.766   3.480  13.388  0.0998  0.0971  0.0756
24012DOPC   C3B28829  21.768   3.757  13.049  0.1186  0.0135  0.1492
24012DOPC   C4B28830  21.673   4.060  12.679 -0.0868  0.0820  0.0178
24013DOPC   NC328831  13.123   3.697  21.287 -0.2560  0.2014 -0.2787
24013DOPC   PO428832  12.996   3.403  21.566 -0.1554 -0.0072  0.2477
24013DOPC   GL128833  12.743   3.221  21.287 -0.1532  0.2343  0.1034
24013DOPC   GL228834  12.888   3.071  21.111 -0.0079 -0.2095 -0.3584
24013DOPC   C1A28835  12.408   3.284  20.987 -0.0032  0.0319 -0.0056
24013DOPC   D2A28836  11.989   3.225  20.752  0.0079  0.4058 -0.0004
24013DOPC   C3A28837  11.716   3.044  20.460  0.2642  0.0743 -0.0168
24013DOPC   C4A28838  11.414   2.841  20.116  0.2776 -0.3700  0.2407
24013DOPC   C1B28839  12.806   3.071  20.730 -0.2450  0.2320  0.4688
24013DOPC   D2B28840  12.452   3.146  20.366 -0.0233 -0.2903 -0.0395
24013DOPC   C3B28841  12.416   2.886  19.973 -0.1520 -0.0582 -0.0565
24013DOPC   C4B28842  12.650   2.660  19.593  0.0953  0.1387 -0.1588
24014DOPC   NC328843   1.446   7.392  18.788 -0.1828  0.0462  0.0426
24014DOPC   PO428844   1.775   7.318  18.959 -0.0018 -0.0784 -0.3042
24014DOPC   GL128845   2.148   7.236  18.755  0.1645 -0.2652  0.0104
24014DOPC   GL228846   2.173   7.035  18.894  0.3649 -0.1500  0.2151
24014DOPC   C1A28847   2.433   7.465  18.583 -0.0690  0.0398  0.2522
24014DOPC   D2A28848   2.927   7.451  18.439  0.0114 -0.4458  0.1602
24014DOPC   C3A28849   3.309   7.784  18.448 -0.1856  0.0654 -0.1027
24014DOPC   C4A28850   3.711   8.082  18.270  0.2107  0.1030 -0.0085
24014DOPC   C1B28851   2.555   6.796  18.784  0.0002  0.0018  0.0013
24014DOPC   D2B28852   2.953   6.735  19.033  0.1146 -0.1966  0.1057
24014DOPC   C3B28853   3.285   6.528  19.270  0.1785  0.2095  0.2687
24014DOPC   C4B28854   3.725   6.255  19.393  0.2390 -0.3340 -0.1784
24015DOPC   NC328855  21.258   7.076  14.630  0.3115 -0.2451 -0.0757
24015DOPC   PO428856  21.066   7.432  14.472  0.0810  0.0038  0.1291
24015DOPC   GL128857  21.168   7.382  14.073  0.0761 -0.0386  0.0675
24015DOPC   GL228858  21.193   7.584  14.018  0.4739 -0.1070 -0.2072
24015DOPC   C1A28859  20.985   7.167  13.695  0.4759  0.0339 -0.5108
24015DOPC   D2A28860  20.644   7.211  13.266  0.0180 -0.2913 -0.0699
24015DOPC   C3A28861  20.515   7.559  12.990  0.0031  0.0742 -0.1738
24015DOPC   C4A28862  20.521   7.771  12.564 -0.0882 -0.1166  0.1989
24015DOPC   C1B28863  20.960   7.690  13.644 -0.1672  0.1663  0.0593
24015DOPC   D2B28864  21.103   7.475  13.202 -0.1221 -0.2208 -0.1312
24015DOPC   C3B28865  20.989   7.568  12.732  0.0488 -0.0621  0.1602
24015DOPC   C4B28866  21.024   7.532  12.235  0.0902 -0.1510  0.1938
24016DOPC   NC328867   1.354   6.177  18.291 -0.1739 -0.1151  0.1509
24016DOPC   PO428868   1.460   6.568  18.410 -0.2884  0.0355  0.0410
24016DOPC   GL128869   1.744   6.824  18.227  0.0012 -0.0643 -0.0849
24016DOPC   GL228870   1.780   6.525  18.082 -0.1303 -0.0817  0.0711
24016DOPC   C1A28871   2.087   7.145  18.266  0.0305  0.1337 -0.2587
24016DOPC   D2A28872   2.588   7.225  18.120  0.3428  0.2938 -0.2616
24016DOPC   C3A28873   2.970   7.470  17.879  0.2244 -0.2605  0.2335
24016DOPC   C4A28874   3.362   7.681  17.995 -0.0766  0.3657  0.1107
24016DOPC   C1B28875   1.969   6.585  17.656  0.2386  0.1870  0.0814
24016DOPC   D2B28876   2.286   6.757  17.250  0.3619 -0.1812  0.3519
24016DOPC   C3B28877   2.698   6.672  17.006  0.1021 -0.1347  0.1328
24016DOPC   C4B28878   2.979   6.735  16.643  0.2623 -0.0363  0.0896
24017DOPC   NC328879   6.388   4.003  22.444 -0.1428  0.1307 -0.0503
24017DOPC   PO428880   6.423   4.360  22.257 -0.0179 -0.2691 -0.1799
24017DOPC   GL128881   6.448   4.392  21.848 -0.0352 -0.1600  0.1640
24017DOPC   GL228882   6.628   4.645  21.775  0.0279  0.0806  0.1243
24017DOPC   C1A28883   6.586   4.331  21.420  0.0312  0.0152 -0.0148
24017DOPC   D2A28884   6.570   4.631  20.964 -0.0455  0.0139 -0.3238
24017DOPC   C3A28885   6.806   4.728  20.577  0.3043  0.0720 -0.1867
24017DOPC   C4A28886   7.135   4.671  20.229  0.1480  0.0022  0.1976
24017DOPC   C1B28887   6.756   4.887  21.456 -0.1360 -0.0091 -0.0715
24017DOPC   D2B28888   6.750   5.151  20.984 -0.0336 -0.0580  0.0502
24017DOPC   C3B28889   6.840   5.448  20.644 -0.1432  0.0019 -0.3326
24017DOPC   C4B28890   6.870   5.780  20.330 -0.0219 -0.0170 -0.1121
24018DOPC   NC328891   0.980   4.663  17.714  0.2967 -0.1997 -0.0542
24018DOPC   PO428892   0.949   4.573  17.317 -0.2228 -0.0119  0.1451
24018DOPC   GL128893   1.111   4.829  17.178 -0.2142 -0.0960  0.0351
24018DOPC   GL228894   1.204   4.945  17.446  0.1356  0.2481 -0.1320
24018DOPC   C1A28895   1.485   4.766  16.955  0.0833 -0.0792  0.1566
24018DOPC   D2A28896   1.893   4.698  16.689 -0.0034 -0.2070  0.0406
24018DOPC   C3A28897   1.834   4.599  16.266  0.1902  0.3661 -0.2236
24018DOPC   C4A28898   1.930   4.737  15.840  0.1871  0.0176  0.0028
24018DOPC   C1B28899   1.590   5.122  17.317  0.0831  0.2179 -0.1734
24018DOPC   D2B28900   1.866   5.290  16.927  0.2591 -0.2177  0.3995
24018DOPC   C3B28901   2.209   5.586  16.876 -0.0055 -0.3226 -0.0326
24018DOPC   C4B28902   2.581   5.829  16.809 -0.0032  0.1029  0.0075
24019DOPC   NC328903  23.777   6.534  14.700 -0.2030  0.3388  0.4881
24019DOPC   PO428904  23.908   6.889  14.866 -0.1347 -0.2743 -0.1659
24019DOPC   GL128905  24.119   7.042  14.684 -0.0335  0.1774 -0.1918
24019DOPC   GL228906  24.025   6.833  14.473 -0.2474 -0.1148  0.1579
24019DOPC   C1A28907  24.563   7.073  14.802 -0.1614 -0.0971 -0.4292
24019DOPC   D2A28908  25.052   7.069  14.763  0.1932  0.0498 -0.1759
24019DOPC   C3A28909  25.248   7.441  14.569  0.0987  0.0692  0.0971
24019DOPC   C4A28910  25.573   7.772  14.428 -0.2675 -0.0134 -0.0143
24019DOPC   C1B28911  23.977   7.042  14.054 -0.0745  0.0515  0.2143
24019DOPC   D2B28912  24.219   7.225  13.638  0.1869  0.0644 -0.2922
24019DOPC   C3B28913  24.275   7.386  13.261  0.0616  0.2260 -0.2898
24019DOPC   C4B28914  24.257   7.554  12.800 -0.1181 -0.2617  0.0801
24020DOPC   NC328915  10.200   3.260  22.683 -0.1275  0.0442  0.0696
24020DOPC   PO428916  10.164   3.001  22.401 -0.2762 -0.1681  0.0644
24020DOPC   GL128917   9.933   3.008  22.102  0.0505 -0.0337 -0.0122
24020DOPC   GL228918   9.829   2.763  21.923 -0.3091 -0.0445  0.2361
24020DOPC   C1A28919   9.879   3.399  21.882  0.3075 -0.1994 -0.1502
24020DOPC   D2A28920   9.752   3.855  21.860 -0.0664  0.0889  0.5174
24020DOPC   C3A28921   9.274   3.969  21.888 -0.0869  0.2177  0.0116
24020DOPC   C4A28922   8.936   4.324  21.977 -0.1982  0.1154 -0.1365
24020DOPC   C1B28923   9.995   2.516  21.548  0.4306 -0.3753 -0.1231
24020DOPC   D2B28924  10.013   2.420  21.067 -0.0520  0.0481 -0.3634
24020DOPC   C3B28925   9.776   2.018  20.974 -0.0243 -0.0466  0.0559
24020DOPC   C4B28926   9.547   1.630  20.926 -0.2807 -0.1066  0.0807
24021DOPC   NC328927   9.962   4.932  22.695  0.0777  0.0394 -0.0686
24021DOPC   PO428928  10.242   4.708  22.546 -0.1304  0.0624 -0.1153
24021DOPC   GL128929  10.194   4.554  22.129  0.1158 -0.1791  0.1746
24021DOPC   GL228930   9.848   4.594  22.181  0.5239  0.3087  0.0172
24021DOPC   C1A28931  10.330   4.207  21.925  0.0299  0.1349  0.1165
24021DOPC   D2A28932  10.458   4.056  21.512 -0.3832  0.2714 -0.1226
24021DOPC   C3A28933  10.478   4.289  21.102 -0.0659  0.0657 -0.3306
24021DOPC   C4A28934  10.301   4.589  20.802 -0.1326  0.1391  0.2944
24021DOPC   C1B28935   9.829   4.373  21.750  0.2427  0.3736  0.1941
24021DOPC   D2B28936  10.029   4.342  21.262 -0.0592 -0.1030 -0.3464
24021DOPC   C3B28937   9.755   4.242  20.903 -0.0606  0.2804  0.1006
24021DOPC   C4B28938   9.678   4.119  20.429  0.0944 -0.1670 -0.0106
24022DOPC   NC328939  23.743   0.876  15.427  0.0975  0.3978  0.0822
24022DOPC   PO428940  23.561   1.015  15.086 -0.2542 -0.1322 -0.1311
24022DOPC   GL128941  23.720   0.891  14.706  0.0471 -0.2454  0.0598
24022DOPC   GL228942  23.469   1.023  14.590 -0.0146 -0.2964  0.0719
24022DOPC   C1A28943  24.083   0.949  14.535  0.2180  0.1112 -0.1183
24022DOPC   D2A28944  24.396   0.846  14.195 -0.1516 -0.0792  0.0533
24022DOPC   C3A28945  24.708   0.811  13.858 -0.1980 -0.0734 -0.0563
24022DOPC   C4A28946  25.118   0.681  13.727 -0.0895  0.0815  0.1628
24022DOPC   C1B28947  23.362   0.908  14.179 -0.0670 -0.1208 -0.2190
24022DOPC   D2B28948  23.198   0.521  13.857  0.1136  0.0815  0.0114
24022DOPC   C3B28949  22.891   0.602  13.504  0.0031 -0.0506  0.0107
24022DOPC   C4B28950  22.875   0.896  13.169 -0.0356 -0.1124 -0.0189
24023DOPC   NC328951   4.866   3.062  21.951 -0.0494 -0.2424  0.0723
24023DOPC   PO428952   4.809   2.720  21.743  0.0291  0.2406  0.0683
24023DOPC   GL128953   5.022   2.559  21.392  0.2326 -0.1224 -0.0675
24023DOPC   GL228954   4.821   2.365  21.229 -0.0117 -0.1266 -0.0303
24023DOPC   C1A28955   5.185   2.699  21.035 -0.0198 -0.0155 -0.1870
24023DOPC   D2A28956   5.532   2.677  20.645  0.2045  0.1475  0.1800
24023DOPC   C3A28957   5.552   2.659  20.149  0.0228 -0.0447  0.0243
24023DOPC   C4A28958   5.393   2.384  19.776  0.1100 -0.0926  0.0162
24023DOPC   C1B28959   4.867   2.435  20.829 -0.1146 -0.1962  0.1380
24023DOPC   D2B28960   5.052   2.518  20.305  0.0886 -0.1491  0.0512
24023DOPC   C3B28961   4.863   2.282  19.910  0.3393  0.1092 -0.0415
24023DOPC   C4B28962   4.937   1.925  19.652 -0.2042  0.1189  0.1617
24024DOPC   NC328963   5.229   4.613  22.367 -0.0427 -0.0695 -0.2337
24024DOPC   PO428964   5.346   4.279  22.224 -0.3660 -0.0210  0.0997
24024DOPC   GL128965   5.418   4.291  21.809  0.1163 -0.2009  0.2239
24024DOPC   GL228966   5.153   4.206  21.673  0.2235 -0.2341  0.0676
24024DOPC   C1A28967   5.611   4.162  21.486  0.0393 -0.2274  0.2707
24024DOPC   D2A28968   5.923   4.182  21.088  0.1537 -0.0447  0.1925
24024DOPC   C3A28969   5.965   4.627  21.153 -0.2536 -0.1521 -0.3142
24024DOPC   C4A28970   5.936   5.070  21.283  0.2974 -0.0971 -0.1540
24024DOPC   C1B28971   5.180   4.224  21.206 -0.0409  0.0176 -0.4134
24024DOPC   D2B28972   5.427   4.247  20.833 -0.0170 -0.1252 -0.2386
24024DOPC   C3B28973   5.856   4.419  20.675 -0.2841 -0.2090 -0.0867
24024DOPC   C4B28974   6.304   4.589  20.485  0.0833 -0.1786  0.2657
24025DOPC   NC328975   1.962   5.007  19.391  0.2484 -0.3458  0.1729
24025DOPC   PO428976   2.172   4.659  19.500  0.1240 -0.0549  0.3436
24025DOPC   GL128977   2.529   4.400  19.571 -0.2310  0.1071 -0.1464
24025DOPC   GL228978   2.496   4.386  19.313 -0.2457  0.0459  0.2776
24025DOPC   C1A28979   2.950   4.168  19.624  0.1280  0.0367  0.1672
24025DOPC   D2A28980   3.427   3.989  19.517  0.1104  0.1852 -0.2001
24025DOPC   C3A28981   3.619   3.666  19.468  0.1115  0.2680 -0.2005
24025DOPC   C4A28982   3.989   3.419  19.417 -0.3620  0.2614  0.1229
24025DOPC   C1B28983   2.724   4.068  19.170 -0.0463 -0.1338 -0.0747
24025DOPC   D2B28984   3.197   3.970  19.131  0.3484  0.0485 -0.1485
24025DOPC   C3B28985   3.648   3.957  19.078  0.1760 -0.3004 -0.1791
24025DOPC   C4B28986   4.162   3.904  19.222  0.0501 -0.2516  0.1229
24026DOPC   NC328987  17.521   7.120  15.534  0.0685 -0.0798  0.0762
24026DOPC   PO428988  17.847   7.338  15.624 -0.0928 -0.1083  0.3114
24026DOPC   GL128989  17.623   7.536  15.317  0.0922  0.3326  0.1648
24026DOPC   GL228990  17.676   7.759  15.324  0.1419 -0.0825 -0.0649
24026DOPC   C1A28991  17.394   7.392  15.001 -0.0826  0.0255 -0.2850
24026DOPC   D2A28992  17.017   7.077  14.934 -0.3790 -0.1399  0.1300
24026DOPC   C3A28993  16.798   7.324  14.617 -0.0247  0.0303  0.0192
24026DOPC   C4A28994  16.320   7.186  14.478  0.0337 -0.2492 -0.1999
24026DOPC   C1B28995  17.253   7.924  15.187 -0.0093  0.1338  0.1499
24026DOPC   D2B28996  16.813   8.089  15.311  0.1304  0.1612 -0.4421
24026DOPC   C3B28997  16.400   7.838  15.270  0.2266  0.0505 -0.1665
24026DOPC   C4B28998  16.013   7.587  14.983  0.0104 -0.0218 -0.1826
24027DOPC   NC328999  11.512   1.511  22.186 -0.3859 -0.1522 -0.3359
24027DOPC   PO429000  11.307   1.144  22.231  0.1482 -0.1264 -0.0661
24027DOPC   GL129001  11.357   0.772  21.981  0.1705 -0.1131 -0.1370
24027DOPC   GL229002  11.032   0.905  21.874 -0.0188  0.0955  0.2398
24027DOPC   C1A29003  11.420   0.711  21.573  0.2099 -0.1199  0.1566
24027DOPC   D2A29004  11.531   0.726  21.090 -0.1696  0.1383  0.2738
24027DOPC   C3A29005  11.296   0.349  21.194  0.0722 -0.1038 -0.1250
24027DOPC   C4A29006  11.089  -0.085  21.000 -0.0459  0.0707  0.2258
24027DOPC   C1B29007  10.899   0.664  21.527  0.0319 -0.0259 -0.0238
24027DOPC   D2B29008  10.819   0.335  21.122 -0.1739 -0.2778  0.0025
24027DOPC   C3B29009  10.916   0.258  20.620 -0.2146 -0.2184 -0.1649
24027DOPC   C4B29010  10.740   0.212  20.189 -0.0203  0.2424 -0.1791
24028DOPC   NC329011   7.216   4.197  22.336  0.0854 -0.0540 -0.0607
24028DOPC   PO429012   6.893   4.281  22.098 -0.0003 -0.1181 -0.0962
24028DOPC   GL129013   6.842   4.106  21.709  0.1697 -0.0361  0.2027
24028DOPC   GL229014   7.100   4.176  21.696  0.0751 -0.1484  0.0875
24028DOPC   C1A29015   6.816   3.879  21.332 -0.0826  0.0464 -0.0713
24028DOPC   D2A29016   7.181   3.598  21.150 -0.0055 -0.2034  0.3509
24028DOPC   C3A29017   7.012   3.162  21.081  0.0590  0.0424 -0.2050
24028DOPC   C4A29018   7.216   2.766  21.293  0.1837  0.1204  0.4382
24028DOPC   C1B29019   7.352   4.136  21.355  0.2527 -0.0951  0.0035
24028DOPC   D2B29020   7.484   4.244  20.891  0.0265  0.1097 -0.0206
24028DOPC   C3B29021   7.561   4.633  20.695 -0.1231  0.1809  0.3354
24028DOPC   C4B29022   7.955   4.945  20.677 -0.0171  0.0381 -0.0970
24029DOPC   NC329023  20.169   1.790  14.026  0.0387  0.2731  0.0893
24029DOPC   PO429024  20.474   1.833  14.268 -0.2952 -0.1418 -0.1460
24029DOPC   GL129025  20.524   2.128  13.969  0.1152 -0.4068 -0.4097
24029DOPC   GL229026  20.602   1.989  13.791  0.1544 -0.2510 -0.2146
24029DOPC   C1A29027  20.296   2.373  13.668  0.1770  0.0557 -0.1047
24029DOPC   D2A29028  20.187   2.565  13.166  0.2145  0.1964 -0.0142
24029DOPC   C3A29029  20.467   2.456  12.801  0.0843 -0.1431  0.1453
24029DOPC   C4A29030  20.642   2.174  12.460 -0.0683 -0.0180  0.0506
24029DOPC   C1B29031  20.278   1.906  13.532 -0.2030 -0.0039 -0.0075
24029DOPC   D2B29032  19.940   1.856  13.161  0.2402  0.3698  0.1671
24029DOPC   C3B29033  19.641   1.461  13.152 -0.4205  0.1206 -0.1579
24029DOPC   C4B29034  19.504   1.022  12.966  0.0103  0.0316 -0.1023
24030DOPC   NC329035  19.777   5.902  14.885 -0.1271  0.0862 -0.0800
24030DOPC   PO429036  19.385   5.895  14.961 -0.3040 -0.0361 -0.0242
24030DOPC   GL129037  19.228   6.106  14.618  0.1453  0.1767 -0.1623
24030DOPC   GL229038  19.295   5.884  14.544  0.0292  0.0241  0.1043
24030DOPC   C1A29039  18.859   6.168  14.290  0.1885  0.0468  0.0733
24030DOPC   D2A29040  18.517   6.401  14.024  0.0080 -0.2075 -0.0850
24030DOPC   C3A29041  18.385   6.559  13.589  0.2392  0.0639  0.0770
24030DOPC   C4A29042  18.111   6.682  13.152 -0.3482  0.3357  0.0663
24030DOPC   C1B29043  18.954   5.665  14.249  0.3268 -0.0361 -0.1478
24030DOPC   D2B29044  18.847   5.509  13.799 -0.1058  0.0412  0.1647
24030DOPC   C3B29045  18.626   5.550  13.398  0.1497  0.4096 -0.1130
24030DOPC   C4B29046  18.395   5.736  13.019 -0.2020  0.1864 -0.1830
24031DOPC   NC329047   2.779   0.046  20.206 -0.3138 -0.0682 -0.2724
24031DOPC   PO429048   3.020  -0.011  20.530  0.0611 -0.0175 -0.1216
24031DOPC   GL129049   3.409  -0.047  20.349 -0.0616 -0.1294  0.3427
24031DOPC   GL229050   3.302   0.015  20.065  0.4291  0.1305 -0.1922
24031DOPC   C1A29051   3.731  -0.392  20.392 -0.0679 -0.0101 -0.1415
24031DOPC   D2A29052   4.039  -0.724  20.350  0.0005  0.1994 -0.1831
24031DOPC   C3A29053   4.390  -0.856  20.417  0.1529  0.4105  0.0664
24031DOPC   C4A29054   4.842  -0.897  20.657 -0.0341 -0.0935  0.0527
24031DOPC   C1B29055   3.542   0.144  19.766 -0.1613 -0.1033 -0.1504
24031DOPC   D2B29056   4.002   0.394  19.654  0.0521 -0.0819 -0.0992
24031DOPC   C3B29057   4.281   0.446  19.275  0.0401  0.0718 -0.1780
24031DOPC   C4B29058   4.482   0.153  18.982 -0.0253 -0.1434 -0.0062
24032DOPC   NC329059  21.066   0.080  14.448  0.4903  0.3043 -0.0596
24032DOPC   PO429060  21.099   0.365  14.164 -0.2192 -0.1390  0.1053
24032DOPC   GL129061  21.137   0.320  13.810 -0.1859  0.2487  0.1285
24032DOPC   GL229062  21.316   0.125  13.791  0.0201 -0.2120 -0.0194
24032DOPC   C1A29063  21.183   0.374  13.356 -0.1781 -0.2513 -0.0754
24032DOPC   D2A29064  21.445   0.504  12.969 -0.2539  0.1360  0.0362
24032DOPC   C3A29065  21.293   0.622  12.543  0.3392  0.0291  0.0044
24032DOPC   C4A29066  21.093   0.949  12.232  0.1394  0.0946 -0.2596
24032DOPC   C1B29067  21.446  -0.024  13.421 -0.0393  0.1938  0.0321
24032DOPC   D2B29068  21.478  -0.028  12.951  0.0831  0.1863  0.2024
24032DOPC   C3B29069  21.689   0.200  12.592 -0.0390  0.0577 -0.1512
24032DOPC   C4B29070  21.760   0.552  12.277 -0.0928 -0.2497 -0.1336
24033DOPC   NC329071  11.844   2.304  21.832 -0.1667  0.2149 -0.2645
24033DOPC   PO429072  11.858   2.004  21.553  0.0935 -0.0262 -0.3060
24033DOPC   GL129073  11.803   2.152  21.226  0.0312 -0.0430 -0.0368
24033DOPC   GL229074  11.770   2.363  21.170 -0.2683 -0.3135 -0.1634
24033DOPC   C1A29075  11.548   1.797  21.077  0.1887  0.1811  0.4230
24033DOPC   D2A29076  11.495   1.278  21.157  0.0930  0.1093 -0.2021
24033DOPC   C3A29077  11.127   1.060  20.953 -0.0492  0.0491 -0.1941
24033DOPC   C4A29078  11.056   0.675  20.757  0.0751 -0.1100 -0.3051
24033DOPC   C1B29079  11.938   2.444  20.770  0.2472  0.0046 -0.0324
24033DOPC   D2B29080  12.109   2.780  20.353  0.0386  0.2285  0.0144
24033DOPC   C3B29081  11.992   3.164  20.111 -0.0034 -0.0672  0.1408
24033DOPC   C4B29082  11.948   3.197  19.629 -0.3574 -0.4466  0.1815
24034DOPC   NC329083  17.494   6.300  16.259 -0.0604 -0.1646  0.1734
24034DOPC   PO429084  17.496   5.991  16.031 -0.0636  0.0842  0.0140
24034DOPC   GL129085  17.091   6.063  16.008  0.0559  0.2171  0.3032
24034DOPC   GL229086  17.079   6.364  15.888 -0.1753 -0.3121  0.1641
24034DOPC   C1A29087  17.064   5.925  15.561 -0.2261  0.0088  0.1427
24034DOPC   D2A29088  17.235   5.636  15.161  0.4070 -0.0073  0.1494
24034DOPC   C3A29089  17.215   5.896  14.758  0.4528 -0.1358 -0.1073
24034DOPC   C4A29090  17.136   6.097  14.290  0.1510 -0.2317  0.3528
24034DOPC   C1B29091  16.880   6.525  15.527  0.2280 -0.3021 -0.0237
24034DOPC   D2B29092  16.849   6.622  15.083 -0.0289  0.0934  0.0934
24034DOPC   C3B29093  16.434   6.723  15.005  0.1532 -0.3847 -0.0014
24034DOPC   C4B29094  16.053   6.951  14.895  0.1516  0.0342 -0.2223
24035DOPC   NC329095  17.161   4.903  16.330 -0.0196 -0.0064 -0.3325
24035DOPC   PO429096  17.011   5.041  16.679 -0.0098 -0.1541  0.2454
24035DOPC   GL129097  16.614   5.256  16.596 -0.2896  0.1172 -0.0596
24035DOPC   GL229098  16.505   5.032  16.748 -0.1454 -0.3886 -0.1723
24035DOPC   C1A29099  16.428   5.445  16.184  0.1411  0.1255 -0.3925
24035DOPC   D2A29100  16.105   5.613  15.866 -0.0994  0.0004 -0.1961
24035DOPC   C3A29101  16.107   6.077  15.931  0.0967  0.1175  0.0764
24035DOPC   C4A29102  16.231   6.539  15.839 -0.2063  0.2823  0.2228
24035DOPC   C1B29103  16.165   4.734  16.611  0.1276  0.3400  0.1867
24035DOPC   D2B29104  16.055   4.249  16.357  0.2172 -0.1612  0.0366
24035DOPC   C3B29105  15.647   4.187  16.137  0.0629 -0.0028  0.2969
24035DOPC   C4B29106  15.201   3.923  16.091  0.0295  0.3744 -0.1634
24036DOPC   NC329107  14.894   6.079  20.152 -0.1881  0.2569  0.1076
24036DOPC   PO429108  15.063   6.030  19.810 -0.0484  0.1613 -0.0655
24036DOPC   GL129109  14.733   6.140  19.472 -0.0739 -0.1244 -0.1114
24036DOPC   GL229110  14.907   5.995  19.244 -0.1476  0.2020 -0.0872
24036DOPC   C1A29111  14.342   6.005  19.378 -0.1913  0.0718  0.1469
24036DOPC   D2A29112  14.035   5.652  19.195  0.0952  0.0736  0.0735
24036DOPC   C3A29113  13.776   5.588  18.784 -0.0358  0.0158  0.0939
24036DOPC   C4A29114  13.418   5.463  18.493 -0.0542  0.3064 -0.0423
24036DOPC   C1B29115  14.728   6.174  18.845  0.0772  0.1196 -0.1496
24036DOPC   D2B29116  14.560   6.157  18.355 -0.0359  0.2820 -0.2978
24036DOPC   C3B29117  14.283   6.050  18.064  0.0740  0.1343  0.0810
24036DOPC   C4B29118  13.943   5.809  17.770 -0.1641 -0.0344 -0.0381
24037DOPC   NC329119  10.802   4.709  22.352 -0.0144  0.0284 -0.2126
24037DOPC   PO429120  11.059   4.440  22.293  0.0619  0.0132  0.2002
24037DOPC   GL129121  10.834   4.248  22.003  0.1766  0.1514 -0.0200
24037DOPC   GL229122  10.747   4.492  21.941  0.1610 -0.0699  0.2266
24037DOPC   C1A29123  10.751   3.822  21.874  0.0914 -0.0303  0.3204
24037DOPC   D2A29124  10.715   3.366  21.628 -0.1248  0.0110  0.3153
24037DOPC   C3A29125  10.341   3.286  21.253 -0.1388 -0.2997  0.2351
24037DOPC   C4A29126  10.197   3.185  20.745  0.4281 -0.2443 -0.0489
24037DOPC   C1B29127  10.523   4.638  21.564 -0.0914 -0.0558  0.0386
24037DOPC   D2B29128  10.505   5.014  21.195 -0.0439  0.1444  0.0877
24037DOPC   C3B29129  10.206   5.053  20.916 -0.0866  0.0012 -0.0245
24037DOPC   C4B29130   9.809   5.059  20.658  0.1793  0.1239 -0.1218
24038DOPC   NC329131  14.376   5.314  20.081 -0.0333  0.1063 -0.0883
24038DOPC   PO429132  14.354   5.047  20.371  0.4137  0.2125 -0.0980
24038DOPC   GL129133  13.969   5.033  20.315  0.0165 -0.0152  0.1194
24038DOPC   GL229134  13.990   4.854  20.066  0.3095 -0.2749 -0.2819
24038DOPC   C1A29135  13.609   5.354  20.432  0.1442  0.0568 -0.0828
24038DOPC   D2A29136  13.308   5.266  20.790  0.2939 -0.1870 -0.1391
24038DOPC   C3A29137  13.006   5.588  20.771 -0.0476  0.1926  0.0065
24038DOPC   C4A29138  12.655   5.895  20.819  0.0039  0.5177 -0.1463
24038DOPC   C1B29139  13.622   4.731  19.828  0.2660 -0.1202 -0.3609
24038DOPC   D2B29140  13.351   4.949  19.487 -0.1574  0.0673  0.2162
24038DOPC   C3B29141  12.877   5.012  19.316  0.1781  0.2218 -0.2490
24038DOPC   C4B29142  12.424   5.119  19.233 -0.3074  0.3119 -0.1994
24039DOPC   NC329143   0.370   5.889  16.643 -0.2291  0.1059  0.2811
24039DOPC   PO429144   0.590   5.915  16.992  0.0183  0.1512  0.3966
24039DOPC   GL129145   0.790   6.207  16.923 -0.2338  0.0896 -0.1944
24039DOPC   GL229146   0.819   6.436  17.051  0.1060  0.0260 -0.2852
24039DOPC   C1A29147   1.196   6.091  16.913  0.1907 -0.4234 -0.0095
24039DOPC   D2A29148   1.758   6.028  16.910  0.1760  0.1919 -0.1323
24039DOPC   C3A29149   2.187   6.101  16.704  0.0606 -0.2110  0.0499
24039DOPC   C4A29150   2.588   6.380  16.645 -0.0901 -0.1915  0.0838
24039DOPC   C1B29151   1.135   6.564  16.728 -0.3763 -0.1596 -0.0831
24039DOPC   D2B29152   1.432   6.679  16.325 -0.1330 -0.0417 -0.1502
24039DOPC   C3B29153   1.085   6.880  16.193  0.4613 -0.1095  0.0712
24039DOPC   C4B29154   0.706   7.136  16.064 -0.0134 -0.2963  0.1052
24040DOPC   NC329155   4.781   2.194  21.649  0.0840 -0.0515  0.2551
24040DOPC   PO429156   5.114   2.039  21.525  0.1344 -0.3197  0.1276
24040DOPC   GL129157   5.267   1.909  21.152 -0.2784  0.2244  0.3583
24040DOPC   GL229158   5.232   2.159  21.055  0.5093 -0.0015  0.0870
24040DOPC   C1A29159   5.666   1.836  20.988 -0.0881  0.1089  0.0741
24040DOPC   D2A29160   6.022   1.677  20.740 -0.1099  0.3380 -0.1121
24040DOPC   C3A29161   5.993   1.445  20.313 -0.0013 -0.0568 -0.1485
24040DOPC   C4A29162   6.273   1.211  19.998 -0.1500 -0.1213  0.0354
24040DOPC   C1B29163   5.319   2.214  20.614  0.2953  0.0203  0.1570
24040DOPC   D2B29164   5.470   2.158  20.223  0.1338 -0.0987  0.0291
24040DOPC   C3B29165   5.544   1.867  19.822  0.0117  0.2148 -0.1262
24040DOPC   C4B29166   5.291   1.626  19.425  0.1387  0.0099  0.0810
24041DOPC   NC329167  20.953   1.853  14.012  0.1709 -0.0902  0.0811
24041DOPC   PO429168  21.024   2.223  13.922 -0.0459  0.0261 -0.0719
24041DOPC   GL129169  21.135   2.398  13.459 -0.2392  0.1679  0.0781
24041DOPC   GL229170  21.083   2.145  13.478  0.0068 -0.3072 -0.1483
24041DOPC   C1A29171  20.992   2.603  13.117  0.1461  0.2677 -0.0251
24041DOPC   D2A29172  20.572   2.923  13.067 -0.1109 -0.0469  0.1420
24041DOPC   C3A29173  20.136   3.088  13.098  0.2966 -0.0415  0.2311
24041DOPC   C4A29174  19.856   3.435  13.242  0.0004  0.0299 -0.2553
24041DOPC   C1B29175  21.222   1.800  13.208 -0.1643 -0.1752 -0.1568
24041DOPC   D2B29176  21.231   1.402  12.917 -0.3315  0.0323 -0.0883
24041DOPC   C3B29177  21.575   1.135  12.639  0.0927 -0.0894 -0.0063
24041DOPC   C4B29178  22.036   0.984  12.404 -0.1572  0.1215 -0.1991
24042DOPC   NC329179   6.454   1.376  21.849  0.0222  0.0580 -0.0007
24042DOPC   PO429180   6.462   1.000  21.913  0.2513  0.4157  0.0348
24042DOPC   GL129181   6.510   0.726  21.523  0.3714  0.7673  0.3356
24042DOPC   GL229182   6.217   0.675  21.595 -0.3636 -0.0527 -0.0575
24042DOPC   C1A29183   6.315   0.500  21.155 -0.2096  0.1005 -0.3137
24042DOPC   D2A29184   6.356   0.191  20.738  0.3111 -0.0177  0.0052
24042DOPC   C3A29185   6.461   0.388  20.330 -0.0520 -0.1573  0.0748
24042DOPC   C4A29186   6.349   0.542  19.878 -0.0319 -0.0672  0.1479
24042DOPC   C1B29187   5.927   0.384  21.430  0.0912 -0.1789 -0.2796
24042DOPC   D2B29188   5.835   0.239  20.915 -0.0119 -0.3290 -0.3512
24042DOPC   C3B29189   5.949   0.288  20.427 -0.0672 -0.1339  0.1038
24042DOPC   C4B29190   6.149   0.091  20.009  0.2056 -0.0620 -0.0248
24043DOPC   NC329191  25.008   0.151  17.363 -0.0686 -0.1944 -0.1902
24043DOPC   PO429192  25.364  -0.016  17.416 -0.0185 -0.1801 -0.2850
24043DOPC   GL129193  25.573  -0.212  17.144  0.2951  0.2370 -0.1882
24043DOPC   GL229194  25.654  -0.464  17.290  0.0192  0.0580  0.1363
24043DOPC   C1A29195  25.859  -0.123  16.876 -0.4499 -0.0806 -0.1731
24043DOPC   D2A29196  26.320  -0.278  16.636 -0.0040  0.1764 -0.1416
24043DOPC   C3A29197  26.734  -0.086  16.473 -0.1994 -0.0999  0.1833
24043DOPC   C4A29198  27.205   0.017  16.291 -0.0238  0.0825  0.1504
24043DOPC   C1B29199  26.104  -0.440  17.162  0.1385  0.2432  0.1320
24043DOPC   D2B29200  26.599  -0.447  16.989 -0.0750 -0.1109 -0.1522
24043DOPC   C3B29201  26.914  -0.055  16.934 -0.2353 -0.2362 -0.3281
24043DOPC   C4B29202  27.388   0.119  16.876  0.0079  0.0280  0.1426
24044DOPC   NC329203   2.083   5.967  19.740 -0.3284  0.2532  0.0902
24044DOPC   PO429204   2.188   6.293  19.525 -0.0761 -0.2795  0.2223
24044DOPC   GL129205   2.521   6.401  19.369 -0.0745  0.0206 -0.0443
24044DOPC   GL229206   2.677   6.169  19.361 -0.0026  0.1859  0.2909
24044DOPC   C1A29207   2.863   6.671  19.520 -0.0529  0.0904 -0.3318
24044DOPC   D2A29208   3.247   6.975  19.593  0.4961  0.0166  0.2355
24044DOPC   C3A29209   3.586   7.189  19.472 -0.1633 -0.0353  0.1983
24044DOPC   C4A29210   4.030   7.162  19.270  0.1156 -0.2235  0.3120
24044DOPC   C1B29211   2.672   5.971  18.981  0.0099  0.2615  0.1656
24044DOPC   D2B29212   2.724   5.835  18.514  0.1706  0.1091 -0.1680
24044DOPC   C3B29213   3.170   5.660  18.371  0.1473  0.1386 -0.1462
24044DOPC   C4B29214   3.559   5.308  18.514  0.0036  0.0886 -0.0642
24045DOPC   NC329215   5.830   3.043  21.929  0.1385 -0.1862  0.0176
24045DOPC   PO429216   5.795   2.684  21.757 -0.1959  0.1326  0.0226
24045DOPC   GL129217   5.992   2.507  21.473 -0.3723  0.0354 -0.0038
24045DOPC   GL229218   5.860   2.276  21.368  0.3167  0.0888 -0.1926
24045DOPC   C1A29219   6.369   2.523  21.269 -0.0867 -0.0908 -0.3355
24045DOPC   D2A29220   6.788   2.437  20.997  0.2030  0.0783  0.0099
24045DOPC   C3A29221   7.147   2.538  20.726  0.3665 -0.0688 -0.0430
24045DOPC   C4A29222   7.459   2.511  20.366  0.1386  0.1953  0.0563
24045DOPC   C1B29223   5.858   2.316  20.933 -0.0902  0.0794 -0.1993
24045DOPC   D2B29224   5.890   2.368  20.453  0.0534  0.0431 -0.1718
24045DOPC   C3B29225   5.896   1.935  20.268 -0.0193 -0.3279  0.1063
24045DOPC   C4B29226   6.062   1.655  19.848 -0.1898 -0.0100 -0.2301
24046DOPC   NC329227  13.768   5.879  21.357  0.0702  0.0341  0.2366
24046DOPC   PO429228  13.514   6.185  21.347 -0.1221 -0.2762 -0.1430
24046DOPC   GL129229  13.297   6.271  20.877 -0.2816  0.1860  0.1325
24046DOPC   GL229230  13.444   6.497  20.849  0.0676 -0.3835  0.3802
24046DOPC   C1A29231  13.223   6.037  20.481 -0.1246 -0.2926 -0.2640
24046DOPC   D2A29232  13.056   6.027  19.994 -0.1333 -0.1162 -0.2818
24046DOPC   C3A29233  12.745   6.284  19.799 -0.1694  0.3157  0.0050
24046DOPC   C4A29234  12.721   6.528  19.411  0.1835 -0.0455 -0.0859
24046DOPC   C1B29235  13.482   6.429  20.424  0.1556  0.3904 -0.0715
24046DOPC   D2B29236  13.213   6.500  20.036 -0.1661  0.2014  0.0490
24046DOPC   C3B29237  13.175   6.791  19.684 -0.0750 -0.0790  0.0885
24046DOPC   C4B29238  13.066   6.806  19.248 -0.1644  0.1444  0.1876
24047DOPC   NC329239  21.985   3.012  14.844 -0.2038  0.1531  0.0697
24047DOPC   PO429240  22.239   3.228  14.615  0.0920  0.0544 -0.0591
24047DOPC   GL129241  22.206   3.119  14.168 -0.1061  0.1108 -0.2873
24047DOPC   GL229242  22.397   3.398  14.145  0.2242  0.1316  0.1237
24047DOPC   C1A29243  22.012   2.988  13.812  0.0367 -0.3467 -0.0792
24047DOPC   D2A29244  21.791   2.829  13.427  0.3312 -0.0804 -0.1393
24047DOPC   C3A29245  21.353   2.846  13.297  0.0920 -0.0515  0.0089
24047DOPC   C4A29246  21.154   2.963  12.832  0.2447  0.1935  0.0555
24047DOPC   C1B29247  22.732   3.465  13.853  0.0518 -0.0569 -0.0047
24047DOPC   D2B29248  23.110   3.514  13.610  0.0887  0.0386 -0.0069
24047DOPC   C3B29249  23.226   3.642  13.178  0.2233  0.3270  0.1349
24047DOPC   C4B29250  23.388   3.654  12.715  0.2137  0.0299 -0.2057
24048DOPC   NC329251   3.919   2.198  21.433 -0.0018 -0.2004 -0.3833
24048DOPC   PO429252   3.980   2.552  21.213 -0.2938 -0.0723 -0.0394
24048DOPC   GL129253   4.184   2.480  20.892 -0.0163 -0.1018 -0.5988
24048DOPC   GL229254   4.453   2.563  20.924 -0.3637 -0.0957 -0.0826
24048DOPC   C1A29255   4.070   2.377  20.482  0.1282  0.1004  0.1538
24048DOPC   D2A29256   4.021   2.217  20.026  0.1106 -0.0356  0.0128
24048DOPC   C3A29257   4.168   1.820  19.775  0.2389 -0.0259  0.0892
24048DOPC   C4A29258   3.939   1.416  19.757 -0.2858 -0.2767  0.0856
24048DOPC   C1B29259   4.566   2.729  20.532 -0.0649  0.0925  0.3304
24048DOPC   D2B29260   4.616   2.870  20.047  0.0743  0.0500  0.3712
24048DOPC   C3B29261   4.632   2.687  19.584 -0.1387 -0.1153 -0.4257
24048DOPC   C4B29262   4.663   2.347  19.237 -0.1486  0.1249 -0.0885
24049DOPC   NC329263  12.854   0.768  22.137  0.0324  0.0504  0.0561
24049DOPC   PO429264  12.640   0.816  21.803  0.1201  0.4174 -0.5348
24049DOPC   GL129265  12.423   0.586  21.515 -0.4422  0.4729 -0.0430
24049DOPC   GL229266  12.646   0.435  21.403 -0.0926  0.1288  0.0760
24049DOPC   C1A29267  12.152   0.632  21.233  0.1975 -0.1045  0.1574
24049DOPC   D2A29268  12.020   1.006  20.969 -0.0229 -0.3618  0.3958
24049DOPC   C3A29269  12.070   1.063  20.566 -0.3320  0.0310 -0.0682
24049DOPC   C4A29270  12.172   1.267  20.104 -0.0353 -0.2566 -0.1916
24049DOPC   C1B29271  12.446   0.204  21.089 -0.1763 -0.1056 -0.0545
24049DOPC   D2B29272  12.312   0.214  20.623 -0.2227 -0.0227  0.2826
24049DOPC   C3B29273  11.985   0.282  20.358 -0.0044  0.0361  0.1238
24049DOPC   C4B29274  11.635   0.464  20.105 -0.1996  0.2325  0.2225
24050DOPS   CNO29275  19.604   1.834  14.545  0.2875 -0.0171 -0.0390
24050DOPS   PO429276  19.771   2.027  14.289  0.0124  0.0433  0.1315
24050DOPS   GL129277  19.642   2.127  13.904 -0.1783  0.2277 -0.3445
24050DOPS   GL229278  19.916   2.183  13.821 -0.1659 -0.0386  0.2562
24050DOPS   C1A29279  19.452   2.444  13.700  0.0067 -0.5041  0.0155
24050DOPS   D2A29280  19.272   2.742  13.404  0.2453  0.1918 -0.1667
24050DOPS   C3A29281  19.217   2.657  12.974 -0.0063  0.0468 -0.0720
24050DOPS   C4A29282  18.990   2.594  12.527 -0.1410 -0.0837 -0.1597
24050DOPS   C1B29283  19.866   2.340  13.430  0.2577 -0.1017  0.4275
24050DOPS   D2B29284  19.734   2.640  13.042  0.0394  0.1029 -0.1935
24050DOPS   C3B29285  19.756   3.033  12.778 -0.1335 -0.0374 -0.0227
24050DOPS   C4B29286  19.826   3.558  12.803 -0.1841 -0.1583 -0.0346
24051DOPS   CNO29287  17.154   6.717  16.182 -0.0170  0.1381  0.0483
24051DOPS   PO429288  17.027   6.439  16.384  0.0184  0.0144  0.2225
24051DOPS   GL129289  16.525   6.417  16.539 -0.0373 -0.0994  0.1097
24051DOPS   GL229290  16.637   6.105  16.524  0.0930 -0.0822 -0.7158
24051DOPS   C1A29291  16.119   6.377  16.335  0.1291 -0.4428  0.0528
24051DOPS   D2A29292  15.685   6.339  15.978  0.0101 -0.0043  0.0032
24051DOPS   C3A29293  15.302   6.685  16.030 -0.0147  0.0338  0.1082
24051DOPS   C4A29294  15.026   6.847  16.410 -0.1652  0.0123  0.0737
24051DOPS   C1B29295  16.520   5.936  16.155  0.0346 -0.2895 -0.0471
24051DOPS   D2B29296  16.620   6.026  15.662  0.0746 -0.0073 -0.1218
24051DOPS   C3B29297  16.398   6.371  15.365  0.5461  0.2138  0.0769
24051DOPS   C4B29298  16.069   6.759  15.340 -0.0588 -0.2766 -0.1312
24052DOPS   CNO29299   0.184   6.843  17.269  0.2330  0.1490  0.1297
24052DOPS   PO429300   0.326   7.056  17.010 -0.0561  0.1168  0.0722
24052DOPS   GL129301   0.594   7.299  16.836  0.0012 -0.0869  0.0338
24052DOPS   GL229302   0.728   7.048  16.730 -0.0625 -0.1686 -0.0829
24052DOPS   C1A29303   0.810   7.422  16.477 -0.1641  0.0064 -0.0194
24052DOPS   D2A29304   1.197   7.346  16.132  0.5665 -0.0507  0.3088
24052DOPS   C3A29305   1.643   7.198  16.025  0.0089 -0.2589 -0.1188
24052DOPS   C4A29306   2.156   7.054  15.983 -0.1908  0.0014 -0.1613
24052DOPS   C1B29307   1.152   7.051  16.692  0.0045 -0.0755  0.2220
24052DOPS   D2B29308   1.568   7.155  16.526 -0.0055 -0.1368  0.1786
24052DOPS   C3B29309   1.939   6.869  16.403  0.0457  0.1322  0.2717
24052DOPS   C4B29310   2.172   6.444  16.321 -0.2614 -0.2998  0.0287
24053DOPS   CNO29311  24.365   4.911  15.436  0.4857  0.0690 -0.0355
24053DOPS   PO429312  24.219   4.639  15.195  0.1934 -0.0999 -0.0973
24053DOPS   GL129313  24.435   4.486  14.927 -0.0495 -0.1028  0.2293
24053DOPS   GL229314  24.383   4.241  14.876  0.0339 -0.0425  0.3011
24053DOPS   C1A29315  24.605   4.615  14.551  0.3020 -0.0898 -0.0145
24053DOPS   D2A29316  24.913   4.642  14.170 -0.0082 -0.0323  0.3384
24053DOPS   C3A29317  25.375   4.612  14.253  0.1592 -0.0523 -0.0084
24053DOPS   C4A29318  25.826   4.715  14.057  0.1323  0.2028 -0.0556
24053DOPS   C1B29319  24.584   4.070  14.550 -0.1043 -0.0938 -0.5110
24053DOPS   D2B29320  24.718   3.849  14.133  0.2210  0.0147 -0.0340
24053DOPS   C3B29321  24.967   3.927  13.732  0.0171 -0.1135 -0.1046
24053DOPS   C4B29322  25.373   3.989  13.582 -0.0116  0.1497 -0.0766
24054DOPS   CNO29323  12.247   3.932  22.266  0.3574  0.3880 -0.2057
24054DOPS   PO429324  12.092   4.037  21.954 -0.0832 -0.0850  0.0486
24054DOPS   GL129325  12.178   3.884  21.583 -0.1157  0.1165  0.0250
24054DOPS   GL229326  11.965   3.791  21.623  0.0747  0.0239  0.3223
24054DOPS   C1A29327  12.320   3.893  21.165 -0.0630  0.1358 -0.0344
24054DOPS   D2A29328  12.305   3.736  20.704 -0.2815 -0.3286 -0.2269
24054DOPS   C3A29329  12.232   3.605  20.277 -0.1592 -0.0268  0.1829
24054DOPS   C4A29330  12.344   3.362  19.874  0.1323 -0.1994 -0.0916
24054DOPS   C1B29331  11.583   3.776  21.306 -0.0223 -0.0946 -0.0113
24054DOPS   D2B29332  11.180   3.700  20.979 -0.0980 -0.0731  0.1990
24054DOPS   C3B29333  10.927   3.297  20.871 -0.4039  0.0122  0.2373
24054DOPS   C4B29334  10.615   3.019  20.556 -0.1473 -0.2350 -0.0165
24055DOPS   CNO29335  19.563   0.647  14.931 -0.0032 -0.0568 -0.0067
24055DOPS   PO429336  19.231   0.614  14.779 -0.0461  0.0427  0.1608
24055DOPS   GL129337  19.215   0.597  14.389 -0.3816  0.2174  0.1097
24055DOPS   GL229338  19.283   0.357  14.243  0.0487  0.3163 -0.0520
24055DOPS   C1A29339  19.129   0.838  13.983 -0.3608 -0.0057 -0.1466
24055DOPS   D2A29340  19.050   0.661  13.537  0.2998  0.1237  0.1279
24055DOPS   C3A29341  19.270   0.587  13.147 -0.2435 -0.0191  0.2312
24055DOPS   C4A29342  19.353   0.620  12.695  0.0352  0.0805  0.0280
24055DOPS   C1B29343  19.511   0.507  13.804  0.0360 -0.2689 -0.1995
24055DOPS   D2B29344  19.684   0.673  13.388  0.2922 -0.0905 -0.1175
24055DOPS   C3B29345  19.748   0.571  12.939 -0.1161  0.0896 -0.3737
24055DOPS   C4B29346  19.809   0.547  12.471  0.1314  0.0382  0.2061
24056DOPS   CNO29347   0.726   2.565  17.439 -0.0434 -0.1107  0.1651
24056DOPS   PO429348   1.047   2.786  17.352 -0.0566  0.0458 -0.2739
24056DOPS   GL129349   1.298   2.765  17.071  0.0687 -0.0237 -0.2618
24056DOPS   GL229350   1.499   2.541  17.110  0.0772 -0.0166  0.4923
24056DOPS   C1A29351   1.140   2.793  16.646 -0.0538  0.1391  0.1832
24056DOPS   D2A29352   1.358   2.948  16.274  0.1989  0.0423  0.2623
24056DOPS   C3A29353   1.587   3.309  16.216 -0.0272  0.0622 -0.0959
24056DOPS   C4A29354   1.884   3.676  16.260 -0.0079 -0.0442  0.1038
24056DOPS   C1B29355   1.934   2.459  17.138 -0.2284  0.3731  0.0595
24056DOPS   D2B29356   2.417   2.398  17.404  0.0136 -0.3151 -0.2004
24056DOPS   C3B29357   2.711   2.180  17.671 -0.1628  0.0615  0.0192
24056DOPS   C4B29358   3.164   1.963  17.805  0.1843  0.0991  0.2106
24057DOPS   CNO29359   5.629   7.431  22.634 -0.1889  0.0769 -0.0164
24057DOPS   PO429360   5.505   7.186  22.326  0.2456 -0.1049 -0.1858
24057DOPS   GL129361   5.570   7.356  21.969  0.0961 -0.0463  0.0671
24057DOPS   GL229362   5.343   7.205  21.756 -0.0406 -0.0023  0.1811
24057DOPS   C1A29363   5.826   7.480  21.670 -0.3425 -0.0222 -0.1439
24057DOPS   D2A29364   6.045   7.610  21.227  0.1855  0.0871 -0.1485
24057DOPS   C3A29365   6.190   7.547  20.795 -0.0559 -0.1454  0.2661
24057DOPS   C4A29366   6.392   7.556  20.296 -0.2671  0.0968 -0.1624
24057DOPS   C1B29367   5.538   7.133  21.389 -0.0482 -0.1560 -0.1174
24057DOPS   D2B29368   5.657   7.299  21.005  0.0583  0.4004  0.0655
24057DOPS   C3B29369   5.908   7.193  20.635  0.0287  0.1933 -0.2015
24057DOPS   C4B29370   6.171   7.104  20.232 -0.1528 -0.0323 -0.2264
24058DOPS   CNO29371  24.828   0.965  17.190  0.1381  0.2994 -0.2729
24058DOPS   PO429372  25.090   0.721  17.055  0.0436  0.0301 -0.3126
24058DOPS   GL129373  25.425   0.696  16.763 -0.0355 -0.3272 -0.2064
24058DOPS   GL229374  25.573   0.450  16.858  0.0291  0.0148 -0.1678
24058DOPS   C1A29375  25.766   0.763  16.464 -0.0174  0.2479  0.0755
24058DOPS   D2A29376  26.197   0.722  16.407  0.0917 -0.2129 -0.2009
24058DOPS   C3A29377  26.575   0.521  16.205 -0.1248 -0.2304  0.0180
24058DOPS   C4A29378  26.855   0.275  15.887 -0.2326 -0.1499 -0.4070
24058DOPS   C1B29379  25.988   0.470  16.865  0.1081 -0.2461  0.0044
24058DOPS   D2B29380  26.288   0.234  16.523 -0.0103  0.0219  0.1389
24058DOPS   C3B29381  26.367   0.007  16.141  0.1421 -0.0171  0.1604
24058DOPS   C4B29382  26.623  -0.140  15.754 -0.0836  0.1610 -0.2454
24059DOPS   CNO29383  23.347   6.439  14.826  0.0140  0.0860 -0.1140
24059DOPS   PO429384  23.333   6.511  14.457  0.3368  0.0455  0.1091
24059DOPS   GL129385  23.646   6.411  14.249  0.1548 -0.3601 -0.0845
24059DOPS   GL229386  23.764   6.229  14.347  0.2381 -0.0255 -0.1478
24059DOPS   C1A29387  23.788   6.625  13.914 -0.2293 -0.2257  0.0120
24059DOPS   D2A29388  23.728   7.016  13.581  0.2583  0.4161 -0.0844
24059DOPS   C3A29389  23.854   7.094  13.094 -0.0752 -0.1963 -0.0847
24059DOPS   C4A29390  24.256   7.021  12.806  0.0626 -0.2732 -0.2593
24059DOPS   C1B29391  23.948   6.116  14.043  0.0228  0.0265 -0.0582
24059DOPS   D2B29392  24.038   6.275  13.603 -0.1590  0.4520  0.1896
24059DOPS   C3B29393  24.276   6.032  13.296  0.0770 -0.1865  0.1296
24059DOPS   C4B29394  24.416   5.863  12.834  0.1454  0.1656  0.0479
24060DOPS   CNO29395  16.398   4.949  18.580 -0.0563  0.1178 -0.1398
24060DOPS   PO429396  16.359   5.153  18.279 -0.2627  0.3530 -0.0529
24060DOPS   GL129397  16.098   5.020  17.931 -0.0712 -0.0612 -0.2120
24060DOPS   GL229398  16.101   5.335  17.882  0.0126 -0.0438 -0.1150
24060DOPS   C1A29399  15.920   4.792  17.517 -0.1766  0.2672 -0.1727
24060DOPS   D2A29400  15.686   4.576  17.076 -0.1327  0.0138 -0.2350
24060DOPS   C3A29401  15.701   4.648  16.687  0.0037 -0.4806  0.0430
24060DOPS   C4A29402  15.794   4.705  16.224 -0.3914  0.0615 -0.2066
24060DOPS   C1B29403  15.682   5.291  17.741  0.0705  0.0356  0.1966
24060DOPS   D2B29404  15.209   5.315  17.595 -0.2512  0.0419  0.3943
24060DOPS   C3B29405  14.870   5.242  17.258  0.1098  0.0821 -0.1585
24060DOPS   C4B29406  14.697   4.995  16.833  0.3061  0.1104 -0.1832
24061DOPS   CNO29407   2.951   2.706  20.426 -0.0589  0.0405 -0.1262
24061DOPS   PO429408   2.749   2.997  20.263  0.0955 -0.0120  0.0847
24061DOPS   GL129409   3.009   3.067  19.933  0.1503 -0.2137  0.1112
24061DOPS   GL229410   3.014   3.329  19.938 -0.2539  0.1990 -0.1988
24061DOPS   C1A29411   3.083   2.823  19.522 -0.6127 -0.1161 -0.4028
24061DOPS   D2A29412   3.208   2.662  19.116  0.2238  0.0546 -0.1364
24061DOPS   C3A29413   3.365   2.344  18.788 -0.2710 -0.0199 -0.4298
24061DOPS   C4A29414   3.577   1.900  18.911  0.3486  0.1683  0.2319
24061DOPS   C1B29415   3.180   3.402  19.517  0.0505  0.0502  0.0076
24061DOPS   D2B29416   3.345   3.469  19.100  0.2342 -0.0423  0.1417
24061DOPS   C3B29417   3.737   3.464  18.966 -0.0439 -0.0597 -0.1940
24061DOPS   C4B29418   4.155   3.669  18.792 -0.1121 -0.1962 -0.0435
24062DOPS   CNO29419   3.260   6.930  21.310  0.3045  0.0559 -0.0075
24062DOPS   PO429420   3.295   7.293  21.159 -0.1291  0.1603 -0.2223
24062DOPS   GL129421   3.353   6.969  20.822  0.1949 -0.2599 -0.0346
24062DOPS   GL229422   3.589   6.879  21.009 -0.3780  0.1501 -0.0302
24062DOPS   C1A29423   3.551   6.909  20.467 -0.0259  0.2805  0.0034
24062DOPS   D2A29424   3.687   6.886  19.961  0.1113 -0.0086  0.0323
24062DOPS   C3A29425   4.087   7.119  19.813  0.1363  0.0562 -0.2514
24062DOPS   C4A29426   4.411   7.319  19.480 -0.0182 -0.0249  0.2584
24062DOPS   C1B29427   3.907   6.701  20.725 -0.2098  0.0780 -0.3528
24062DOPS   D2B29428   4.169   6.456  20.353  0.2219  0.1480  0.0045
24062DOPS   C3B29429   4.391   6.665  20.007 -0.3252 -0.1321  0.2351
24062DOPS   C4B29430   4.663   6.980  19.732 -0.1133  0.2039 -0.2305
24063DOPS   CNO29431  20.054   4.577  14.529  0.2378 -0.0559  0.2156
24063DOPS   PO429432  20.314   4.470  14.278 -0.1939 -0.0004  0.2129
24063DOPS   GL129433  20.280   4.433  13.907  0.3913 -0.0614  0.3505
24063DOPS   GL229434  20.333   4.650  13.818  0.1083 -0.2042  0.0015
24063DOPS   C1A29435  20.282   4.145  13.519 -0.3824  0.1123  0.0158
24063DOPS   D2A29436  20.416   4.177  13.071 -0.0306  0.1261  0.0906
24063DOPS   C3A29437  20.759   4.344  12.865  0.2491  0.2323  0.2093
24063DOPS   C4A29438  20.914   4.532  12.428  0.2437 -0.1317 -0.0232
24063DOPS   C1B29439  20.297   4.798  13.418 -0.1084 -0.0760  0.0245
24063DOPS   D2B29440  20.394   4.699  12.952 -0.4367  0.2814  0.1998
24063DOPS   C3B29441  20.318   5.073  12.645  0.0246 -0.0536 -0.2106
24063DOPS   C4B29442  20.135   5.486  12.358 -0.0880  0.1389  0.0740
24064DOPS   CNO29443  18.342   3.820  15.265  0.2946  0.0524 -0.2970
24064DOPS   PO429444  18.091   3.749  15.535 -0.0094 -0.1800  0.1128
24064DOPS   GL129445  17.836   3.593  15.192 -0.0650  0.1795 -0.0438
24064DOPS   GL229446  17.931   3.841  15.025 -0.1112  0.0849  0.0180
24064DOPS   C1A29447  17.886   3.133  15.045  0.0501  0.1319  0.5697
24064DOPS   D2A29448  17.952   2.671  14.745 -0.0381 -0.0794 -0.0438
24064DOPS   C3A29449  17.552   2.412  14.713  0.0354 -0.1446  0.0369
24064DOPS   C4A29450  17.127   2.226  14.876  0.1319  0.1238  0.1263
24064DOPS   C1B29451  17.604   4.154  15.028  0.1066 -0.1215  0.0263
24064DOPS   D2B29452  17.349   4.553  15.101 -0.1744 -0.1485 -0.0783
24064DOPS   C3B29453  16.922   4.523  14.982 -0.2552 -0.0818  0.0144
24064DOPS   C4B29454  16.522   4.317  14.859  0.1797 -0.0234 -0.1807
24065DOPS   CNO29455   2.368   0.237  19.977 -0.1411 -0.3592  0.2622
24065DOPS   PO429456   2.612   0.085  19.721 -0.2831  0.0010  0.0237
24065DOPS   GL129457   2.911   0.046  19.422  0.0813 -0.0638 -0.0231
24065DOPS   GL229458   2.745   0.279  19.214 -0.2781  0.0470 -0.1026
24065DOPS   C1A29459   3.249   0.356  19.320 -0.2407  0.1352 -0.2333
24065DOPS   D2A29460   3.662   0.677  19.404 -0.2141  0.3730  0.1282
24065DOPS   C3A29461   3.857   0.620  18.960 -0.0186  0.2414  0.0666
24065DOPS   C4A29462   3.886   0.671  18.455 -0.2825  0.4007  0.2865
24065DOPS   C1B29463   2.954   0.595  19.049 -0.0247  0.0568  0.1525
24065DOPS   D2B29464   3.114   0.798  18.627 -0.0873  0.2123 -0.0447
24065DOPS   C3B29465   3.254   0.613  18.244 -0.2268 -0.3739  0.3024
24065DOPS   C4B29466   3.459   0.506  17.845  0.0585  0.2150  0.2273
24066DOPS   CNO29467  17.090   4.358  17.607  0.0785 -0.1338  0.0282
24066DOPS   PO429468  16.809   4.600  17.594 -0.2659  0.0766  0.1931
24066DOPS   GL129469  16.508   4.448  17.254  0.1405 -0.0878 -0.4135
24066DOPS   GL229470  16.365   4.677  17.394  0.2939 -0.2912  0.0165
24066DOPS   C1A29471  16.092   4.326  17.098  0.0205 -0.2583 -0.0761
24066DOPS   D2A29472  15.710   4.175  16.725  0.0199  0.0014  0.0554
24066DOPS   C3A29473  15.324   4.254  16.527  0.2024  0.0371  0.0683
24066DOPS   C4A29474  15.048   4.366  16.095 -0.1639  0.2188 -0.0009
24066DOPS   C1B29475  16.085   4.883  17.077  0.1452  0.0848 -0.0543
24066DOPS   D2B29476  15.732   5.117  16.819 -0.2438  0.3957  0.1899
24066DOPS   C3B29477  15.438   5.108  16.422 -0.2193  0.0906  0.1424
24066DOPS   C4B29478  15.356   4.960  15.977  0.4176  0.1460  0.1686
24067DOPS   CNO29479   0.823   7.035  18.324 -0.1207  0.0369  0.4649
24067DOPS   PO429480   0.784   7.227  17.988 -0.1747  0.0544 -0.0671
24067DOPS   GL129481   1.108   7.118  17.726 -0.3565 -0.4212 -0.2527
24067DOPS   GL229482   0.949   7.066  17.484 -0.2297 -0.0226 -0.3169
24067DOPS   C1A29483   1.474   7.321  17.569 -0.0390  0.4446  0.0048
24067DOPS   D2A29484   1.834   7.600  17.389  0.2056  0.2714 -0.1108
24067DOPS   C3A29485   2.274   7.510  17.218  0.1950 -0.1577  0.0312
24067DOPS   C4A29486   2.522   7.164  17.017 -0.1434  0.0714  0.0729
24067DOPS   C1B29487   1.168   6.894  17.150 -0.0992 -0.0412 -0.0283
24067DOPS   D2B29488   1.571   6.848  16.934  0.0444  0.0746  0.1832
24067DOPS   C3B29489   1.645   6.491  16.699 -0.1519 -0.0581 -0.1719
24067DOPS   C4B29490   1.767   6.109  16.359 -0.2997 -0.0483  0.0603
24068DOPS   CNO29491   6.212   7.394  22.652  0.0737  0.2067  0.4487
24068DOPS   PO429492   6.439   7.367  22.311 -0.0521  0.0126 -0.3389
24068DOPS   GL129493   6.276   7.147  21.980  0.3158 -0.0654 -0.1641
24068DOPS   GL229494   6.363   6.901  22.018  0.3518  0.2369 -0.1967
24068DOPS   C1A29495   6.055   7.086  21.622 -0.0270  0.0037  0.0407
24068DOPS   D2A29496   5.993   6.924  21.154 -0.0823 -0.1339 -0.1357
24068DOPS   C3A29497   6.192   6.773  20.758  0.2642  0.1756 -0.3000
24068DOPS   C4A29498   6.268   6.626  20.264  0.4900  0.2981  0.3082
24068DOPS   C1B29499   6.336   6.664  21.614 -0.4320 -0.0488 -0.0282
24068DOPS   D2B29500   6.267   6.510  21.173 -0.0600 -0.2803 -0.3794
24068DOPS   C3B29501   6.412   6.271  20.812  0.4437 -0.1230  0.1131
24068DOPS   C4B29502   6.443   6.181  20.312 -0.0790 -0.1750 -0.3368
24069DOPS   CNO29503  21.620   5.500  14.681  0.1786  0.0993  0.0160
24069DOPS   PO429504  21.982   5.411  14.568  0.4393 -0.0694 -0.0162
24069DOPS   GL129505  21.907   5.468  14.157  0.0186 -0.2664 -0.2330
24069DOPS   GL229506  22.127   5.634  14.087 -0.0716 -0.2407  0.1826
24069DOPS   C1A29507  21.773   5.263  13.807 -0.0350  0.1791  0.0311
24069DOPS   D2A29508  21.547   4.992  13.407 -0.5298 -0.0702 -0.1475
24069DOPS   C3A29509  21.281   5.011  13.037 -0.0867 -0.0200 -0.0435
24069DOPS   C4A29510  20.901   5.008  12.679  0.0386  0.1073  0.0713
24069DOPS   C1B29511  22.336   5.520  13.728 -0.1826 -0.0914  0.4219
24069DOPS   D2B29512  22.817   5.617  13.576 -0.2884  0.0368 -0.1072
24069DOPS   C3B29513  23.002   5.521  13.177 -0.0882  0.0246  0.0521
24069DOPS   C4B29514  23.346   5.608  12.792 -0.2064 -0.1352 -0.1960
24070DOPS   CNO29515  12.147   4.549  21.979 -0.0431 -0.1068  0.0670
24070DOPS   PO429516  12.477   4.415  21.997  0.0894 -0.3223 -0.0111
24070DOPS   GL129517  12.435   4.232  21.533  0.0750 -0.0157 -0.3961
24070DOPS   GL229518  12.142   4.294  21.564  0.0195  0.1742  0.2842
24070DOPS   C1A29519  12.431   4.449  21.131 -0.0449 -0.0850 -0.1641
24070DOPS   D2A29520  12.018   4.472  20.765  0.2886  0.1193  0.0450
24070DOPS   C3A29521  11.991   4.478  20.219 -0.0710  0.0543 -0.3621
24070DOPS   C4A29522  12.130   4.503  19.767 -0.1216 -0.0623 -0.0325
24070DOPS   C1B29523  11.904   4.140  21.237  0.0471 -0.1482  0.1604
24070DOPS   D2B29524  11.616   4.088  20.791 -0.0015  0.0387 -0.1595
24070DOPS   C3B29525  11.620   4.404  20.478 -0.0387 -0.1267 -0.2716
24070DOPS   C4B29526  11.592   4.713  20.051  0.0157 -0.1269  0.0207
24071DOPS   CNO29527   2.418   4.597  20.582  0.0307  0.0891 -0.1887
24071DOPS   PO429528   2.502   4.228  20.390 -0.1595  0.2002  0.0760
24071DOPS   GL129529   2.943   4.262  20.271 -0.1337  0.2032  0.4177
24071DOPS   GL229530   2.987   4.006  20.294  0.3338 -0.1719  0.1876
24071DOPS   C1A29531   3.271   4.349  19.958 -0.2505  0.2530  0.0423
24071DOPS   D2A29532   3.721   4.341  19.732  0.1670 -0.4594 -0.1518
24071DOPS   C3A29533   4.182   4.274  19.574 -0.1855  0.2763  0.0312
24071DOPS   C4A29534   4.653   4.285  19.432 -0.0333 -0.1460 -0.0744
24071DOPS   C1B29535   3.138   3.813  19.921 -0.1128  0.3377  0.2810
24071DOPS   D2B29536   3.651   3.837  19.986 -0.0073  0.0130 -0.0433
24071DOPS   C3B29537   4.049   3.743  19.802  0.0120  0.1320  0.1739
24071DOPS   C4B29538   4.486   3.776  19.615  0.0153  0.1561 -0.1059
24072DOPS   CNO29539   9.380   0.707  23.082  0.1270  0.1952  0.1690
24072DOPS   PO429540   9.509   0.391  22.906  0.0541 -0.1507  0.4527
24072DOPS   GL129541   9.609   0.361  22.481  0.0047  0.3116 -0.2410
24072DOPS   GL229542   9.702   0.644  22.484  0.1592  0.4285  0.2870
24072DOPS   C1A29543   9.532   0.180  22.107 -0.2122  0.2696 -0.0114
24072DOPS   D2A29544   9.424   0.377  21.714 -0.0255  0.1994  0.0927
24072DOPS   C3A29545   9.126   0.296  21.375  0.0598 -0.3457  0.0301
24072DOPS   C4A29546   8.928   0.229  20.890  0.0534 -0.3724  0.0618
24072DOPS   C1B29547   9.511   0.748  22.058  0.2991 -0.0484  0.1030
24072DOPS   D2B29548   9.378   1.131  21.741 -0.1012 -0.1842 -0.4185
24072DOPS   C3B29549   9.503   1.588  21.616  0.1550 -0.3933 -0.2614
24072DOPS   C4B29550   9.707   2.095  21.546  0.1991  0.0153 -0.0015
24073DOPS   CNO29551  13.608   0.155  21.236 -0.2792  0.0412 -0.3119
24073DOPS   PO429552  13.888  -0.084  21.101 -0.0326  0.3933  0.2380
24073DOPS   GL129553  13.654  -0.075  20.631 -0.1988  0.0058 -0.1210
24073DOPS   GL229554  13.432   0.158  20.792 -0.1204  0.0851 -0.0534
24073DOPS   C1A29555  13.655  -0.363  20.271  0.0208 -0.2388 -0.0070
24073DOPS   D2A29556  13.470  -0.663  19.905 -0.3218  0.0993 -0.1227
24073DOPS   C3A29557  13.264  -0.584  19.472  0.1161  0.0979 -0.0200
24073DOPS   C4A29558  13.199  -0.435  18.992  0.1408  0.1998 -0.1637
24073DOPS   C1B29559  13.333   0.586  20.661  0.4086 -0.1368  0.1640
24073DOPS   D2B29560  12.993   0.925  20.505  0.1690 -0.1613  0.3362
24073DOPS   C3B29561  13.007   1.269  20.076 -0.0516 -0.0908 -0.0130
24073DOPS   C4B29562  12.891   1.737  19.853  0.1014  0.5666 -0.1816
24074DOPS   CNO29563  11.362   1.408  22.667 -0.2061 -0.1438 -0.0084
24074DOPS   PO429564  11.074   1.582  22.520 -0.2872  0.1699 -0.1067
24074DOPS   GL129565  11.013   1.697  22.110 -0.2343 -0.1446  0.1255
24074DOPS   GL229566  11.059   1.421  21.976 -0.1671 -0.2806 -0.2777
24074DOPS   C1A29567  11.190   1.961  21.862  0.2407 -0.0438  0.0717
24074DOPS   D2A29568  11.391   2.084  21.455 -0.0622 -0.2540  0.0175
24074DOPS   C3A29569  11.057   2.072  21.096 -0.1286  0.1497  0.1670
24074DOPS   C4A29570  10.858   1.934  20.683 -0.0480  0.0956  0.0281
24074DOPS   C1B29571  10.887   1.245  21.586 -0.1367 -0.3100 -0.0270
24074DOPS   D2B29572  10.710   1.013  21.186  0.1068 -0.1054  0.2321
24074DOPS   C3B29573  10.703   1.018  20.749 -0.0967 -0.1583 -0.0854
24074DOPS   C4B29574  10.882   1.023  20.309  0.0170  0.2457 -0.0132
24075DOPC   NC329575  19.977   7.184   9.480 -0.1815 -0.0061 -0.1315
24075DOPC   PO429576  19.883   7.252   9.887 -0.1216  0.1965  0.3912
24075DOPC   GL129577  20.049   7.386  10.240  0.3400  0.4061 -0.0399
24075DOPC   GL229578  19.794   7.556  10.320  0.1560 -0.0654 -0.2333
24075DOPC   C1A29579  20.072   7.277  10.705 -0.0663 -0.2116  0.1763
24075DOPC   D2A29580  20.357   7.159  11.103  0.4013 -0.2656  0.0980
24075DOPC   C3A29581  20.465   7.112  11.514  0.1262  0.1330 -0.0440
24075DOPC   C4A29582  20.226   7.268  11.927  0.0521  0.0461  0.3838
24075DOPC   C1B29583  19.811   7.733  10.655 -0.1936 -0.3953  0.2084
24075DOPC   D2B29584  19.825   8.038  11.082  0.1915  0.1647 -0.0611
24075DOPC   C3B29585  19.958   8.141  11.498 -0.3287  0.1417  0.2226
24075DOPC   C4B29586  19.961   8.249  11.999 -0.0106  0.2556  0.3797
24076DOPC   NC329587   4.891   4.008  15.830 -0.4038  0.4394 -0.0944
24076DOPC   PO429588   4.504   3.942  15.659 -0.2201 -0.1108  0.1037
24076DOPC   GL129589   4.105   3.990  15.813 -0.2401  0.2124  0.0180
24076DOPC   GL229590   4.273   3.904  16.112 -0.0561 -0.3574  0.0612
24076DOPC   C1A29591   3.860   4.167  16.142 -0.1106 -0.2812  0.1360
24076DOPC   D2A29592   3.722   4.374  16.527  0.1307 -0.2781 -0.0636
24076DOPC   C3A29593   3.417   4.609  16.738  0.1915 -0.0193  0.1604
24076DOPC   C4A29594   3.201   4.895  17.061  0.0420  0.2073 -0.0046
24076DOPC   C1B29595   4.175   3.751  16.528  0.1244 -0.0822  0.1664
24076DOPC   D2B29596   4.199   3.673  17.020  0.1734  0.0194 -0.0310
24076DOPC   C3B29597   3.946   3.775  17.403  0.1386 -0.1286  0.1531
24076DOPC   C4B29598   3.544   3.910  17.690 -0.0764  0.0806  0.0209
24077DOPC   NC329599  13.655   1.876  14.487  0.1806  0.3075 -0.2346
24077DOPC   PO429600  13.845   2.080  14.247 -0.2567  0.0800 -0.1754
24077DOPC   GL129601  14.217   1.885  14.219 -0.0874 -0.1999  0.2423
24077DOPC   GL229602  14.330   1.917  13.960 -0.1466 -0.1688  0.1682
24077DOPC   C1A29603  14.505   1.567  14.365  0.0687 -0.2752  0.1482
24077DOPC   D2A29604  14.972   1.484  14.490  0.2211 -0.0363  0.0204
24077DOPC   C3A29605  15.082   1.510  15.017 -0.0227 -0.1102  0.0449
24077DOPC   C4A29606  15.299   1.416  15.420  0.1114  0.3778 -0.0027
24077DOPC   C1B29607  14.776   1.875  14.019 -0.1472  0.1707 -0.0490
24077DOPC   D2B29608  15.234   1.908  14.212  0.0407 -0.2526 -0.0113
24077DOPC   C3B29609  15.716   1.964  14.197 -0.0229  0.0456 -0.1136
24077DOPC   C4B29610  16.138   2.164  14.224 -0.0976  0.4587  0.2096
24078DOPC   NC329611   1.222   1.858  11.391  0.1285 -0.0239  0.1089
24078DOPC   PO429612   1.080   1.529  11.559 -0.0721  0.2139 -0.1083
24078DOPC   GL129613   0.804   1.552  11.845 -0.0945  0.0932  0.1482
24078DOPC   GL229614   0.970   1.551  12.135  0.2920 -0.4624  0.1273
24078DOPC   C1A29615   0.366   1.414  11.942 -0.2740  0.1697 -0.0056
24078DOPC   D2A29616  -0.007   1.090  12.062 -0.0875 -0.1465 -0.0145
24078DOPC   C3A29617  -0.133   0.797  12.366  0.2519 -0.1430  0.0444
24078DOPC   C4A29618  -0.405   0.526  12.750 -0.1050  0.0836  0.3475
24078DOPC   C1B29619   0.624   1.596  12.372 -0.3444  0.0782  0.2609
24078DOPC   D2B29620   0.315   1.542  12.777 -0.1246 -0.3216 -0.2847
24078DOPC   C3B29621  -0.033   1.382  12.507  0.2189 -0.1482 -0.1043
24078DOPC   C4B29622  -0.481   1.220  12.575  0.0604  0.1408  0.0476
24079DOPC   NC329623   9.600   2.846  18.066  0.2268  0.1705  0.0018
24079DOPC   PO429624   9.445   2.703  18.411 -0.2077  0.1350 -0.2213
24079DOPC   GL129625   9.580   2.834  18.799  0.5101 -0.3435  0.2212
24079DOPC   GL229626   9.330   2.794  18.968 -0.4015  0.1968 -0.1791
24079DOPC   C1A29627   9.747   2.994  19.110 -0.0388 -0.1115  0.1690
24079DOPC   D2A29628   9.885   3.215  19.510 -0.0721 -0.0580  0.0504
24079DOPC   C3A29629   9.841   2.823  19.835  0.3864 -0.1395  0.1232
24079DOPC   C4A29630   9.795   2.355  19.947 -0.0819  0.0165  0.2872
24079DOPC   C1B29631   9.413   2.687  19.474  0.2203 -0.1043  0.4184
24079DOPC   D2B29632   9.343   2.665  19.952  0.2583 -0.0104  0.1026
24079DOPC   C3B29633   9.552   2.469  20.324  0.4213  0.1009 -0.0999
24079DOPC   C4B29634   9.889   2.273  20.569 -0.0638  0.0134  0.1174
24080DOPC   NC329635   4.065   4.159  14.511  0.0416 -0.2016  0.2474
24080DOPC   PO429636   4.139   3.841  14.791  0.0497 -0.1128 -0.0256
24080DOPC   GL129637   3.811   3.731  14.971 -0.0736 -0.3403  0.0608
24080DOPC   GL229638   3.834   3.981  15.114 -0.3667  0.0504 -0.1030
24080DOPC   C1A29639   3.440   3.453  15.034  0.2941 -0.0193 -0.0933
24080DOPC   D2A29640   3.017   3.237  15.274 -0.1668  0.0762 -0.0051
24080DOPC   C3A29641   3.417   3.181  15.527  0.2899  0.1599  0.0603
24080DOPC   C4A29642   3.829   3.194  15.743  0.3258  0.3359  0.1680
24080DOPC   C1B29643   3.423   3.923  15.233 -0.0075  0.2093 -0.3224
24080DOPC   D2B29644   3.020   3.962  15.565  0.0105  0.3137 -0.0062
24080DOPC   C3B29645   3.111   4.075  16.035 -0.1734  0.1649 -0.3857
24080DOPC   C4B29646   3.128   4.250  16.522  0.1527 -0.1193  0.0456
24081DOPC   NC329647  22.355   7.281  10.069  0.2853  0.1768  0.1915
24081DOPC   PO429648  22.177   7.550  10.308 -0.0743  0.1398  0.0558
24081DOPC   GL129649  22.106   7.265  10.672  0.2787 -0.1317 -0.0130
24081DOPC   GL229650  22.466   7.323  10.698 -0.2441 -0.4970  0.1465
24081DOPC   C1A29651  21.872   7.261  11.091  0.0133 -0.1497 -0.3334
24081DOPC   D2A29652  21.822   7.347  11.549 -0.2130 -0.2477 -0.0092
24081DOPC   C3A29653  22.102   7.572  11.823  0.0649 -0.0649  0.0963
24081DOPC   C4A29654  22.437   7.835  12.037 -0.0598  0.2252 -0.2342
24081DOPC   C1B29655  22.398   7.340  11.111 -0.3105 -0.0846 -0.1424
24081DOPC   D2B29656  22.289   7.128  11.559 -0.0482 -0.1100  0.3428
24081DOPC   C3B29657  22.499   7.192  11.964 -0.1128  0.3375  0.0216
24081DOPC   C4B29658  22.847   7.515  12.203  0.3658  0.2767  0.0664
24082DOPC   NC329659  20.924   7.692  10.513  0.2056 -0.1110  0.2715
24082DOPC   PO429660  20.769   7.409  10.305  0.0852  0.3858  0.0329
24082DOPC   GL129661  20.572   7.245  10.697  0.0845 -0.1363 -0.3668
24082DOPC   GL229662  20.697   7.504  10.830 -0.0854  0.3020  0.0288
24082DOPC   C1A29663  20.433   6.748  10.790  0.4726  0.0008 -0.0385
24082DOPC   D2A29664  20.345   6.285  10.964  0.2354  0.0099  0.0127
24082DOPC   C3A29665  20.659   6.332  11.390  0.1544  0.1050  0.2911
24082DOPC   C4A29666  20.963   6.270  11.791 -0.0139 -0.0977 -0.1435
24082DOPC   C1B29667  20.606   7.594  11.282  0.1886  0.2189  0.0429
24082DOPC   D2B29668  20.759   7.607  11.743  0.1400 -0.0027  0.0812
24082DOPC   C3B29669  20.728   7.947  12.079 -0.3615  0.0820  0.0621
24082DOPC   C4B29670  20.839   8.363  12.320  0.0178  0.1084 -0.0918
24083DOPC   NC329671  10.331   6.815  18.374  0.1335 -0.3312  0.0024
24083DOPC   PO429672  10.656   6.635  18.402  0.0859 -0.1865  0.1490
24083DOPC   GL129673  11.090   6.775  18.443  0.1233  0.3655 -0.4431
24083DOPC   GL229674  11.135   6.476  18.424 -0.1469  0.3313  0.4145
24083DOPC   C1A29675  11.241   7.103  18.735 -0.2030  0.0344 -0.5247
24083DOPC   D2A29676  11.271   7.520  19.030 -0.0655  0.0591  0.0302
24083DOPC   C3A29677  11.099   7.844  19.263  0.0201 -0.0303 -0.0879
24083DOPC   C4A29678  10.845   8.061  19.647 -0.1294 -0.0980 -0.3885
24083DOPC   C1B29679  11.317   6.504  18.862 -0.2505  0.1368  0.0386
24083DOPC   D2B29680  11.653   6.810  19.062  0.1904  0.0048  0.2507
24083DOPC   C3B29681  12.123   6.981  18.983  0.0079  0.2446  0.0747
24083DOPC   C4B29682  12.577   6.922  19.121 -0.1309  0.0347  0.1967
24084DOPC   NC329683   9.868   4.463  18.726  0.3788  0.0005 -0.0304
24084DOPC   PO429684  10.183   4.387  18.482  0.0406 -0.0753 -0.2048
24084DOPC   GL129685  10.514   4.221  18.724 -0.3378  0.2055  0.0145
24084DOPC   GL229686  10.385   3.981  18.821 -0.0610 -0.1143  0.4192
24084DOPC   C1A29687  10.628   4.449  19.103 -0.0693 -0.0009  0.0940
24084DOPC   D2A29688  10.592   4.768  19.545  0.0227 -0.2971  0.0889
24084DOPC   C3A29689  10.478   4.869  19.965 -0.1585 -0.0646 -0.0898
24084DOPC   C4A29690  10.499   4.880  20.486 -0.0565  0.1335  0.0009
24084DOPC   C1B29691  10.553   3.884  19.250  0.3797 -0.2511  0.2373
24084DOPC   D2B29692  10.570   3.769  19.747 -0.0895 -0.1905  0.2050
24084DOPC   C3B29693  10.897   3.881  20.030 -0.0032 -0.3603  0.2528
24084DOPC   C4B29694  11.181   4.010  20.404  0.0793  0.1244  0.0097
24085DOPC   NC329695   9.286   7.361  19.035  0.0872 -0.1547 -0.1239
24085DOPC   PO429696   9.681   7.297  19.087  0.0491 -0.1226  0.0895
24085DOPC   GL129697   9.573   7.601  19.420 -0.1404  0.0990  0.2153
24085DOPC   GL229698   9.780   7.500  19.572  0.2154  0.3357  0.1400
24085DOPC   C1A29699   9.199   7.655  19.488  0.1088  0.3816  0.1412
24085DOPC   D2A29700   8.812   7.980  19.432 -0.1726 -0.0333 -0.0052
24085DOPC   C3A29701   8.518   7.875  19.769 -0.1212 -0.0721 -0.1380
24085DOPC   C4A29702   8.307   7.605  20.072  0.2957  0.2857 -0.0348
24085DOPC   C1B29703   9.904   7.689  19.967 -0.2953  0.1665 -0.1637
24085DOPC   D2B29704   9.761   7.858  20.425  0.4260  0.1191 -0.0364
24085DOPC   C3B29705   9.470   8.146  20.742  0.1237 -0.1595 -0.2152
24085DOPC   C4B29706   9.136   8.512  20.880 -0.0295 -0.1171  0.1201
24086DOPC   NC329707  11.102   0.051  17.529  0.1423 -0.1584  0.1295
24086DOPC   PO429708  10.864  -0.112  17.766  0.1366  0.0102 -0.2610
24086DOPC   GL129709  11.063  -0.107  18.090  0.0640  0.2354 -0.0071
24086DOPC   GL229710  11.085  -0.408  18.100  0.2895 -0.1467 -0.1442
24086DOPC   C1A29711  11.115   0.165  18.435  0.1276 -0.5344 -0.0972
24086DOPC   D2A29712  11.328   0.230  18.886  0.0283 -0.0591 -0.0466
24086DOPC   C3A29713  11.313   0.424  19.312  0.3023  0.1399  0.0809
24086DOPC   C4A29714  11.222   0.529  19.772  0.1553 -0.0524  0.1989
24086DOPC   C1B29715  11.338  -0.664  18.280 -0.1988  0.2588  0.2254
24086DOPC   D2B29716  11.569  -1.041  18.515  0.1285  0.1817  0.1118
24086DOPC   C3B29717  11.971  -1.192  18.652 -0.1334 -0.0269  0.0180
24086DOPC   C4B29718  12.315  -1.308  18.883 -0.2454 -0.1762 -0.2864
24087DOPC   NC329719  15.203   4.074  11.795 -0.1428  0.2098 -0.0171
24087DOPC   PO429720  15.357   4.334  12.065  0.4016 -0.2905 -0.1503
24087DOPC   GL129721  15.778   4.200  12.261  0.2190 -0.0771 -0.0701
24087DOPC   GL229722  15.849   4.449  12.272 -0.4172  0.0174  0.0899
24087DOPC   C1A29723  15.778   4.140  12.726  0.0055 -0.3381 -0.3918
24087DOPC   D2A29724  16.084   4.141  13.131  0.0903 -0.0549 -0.3046
24087DOPC   C3A29725  16.304   3.803  13.383 -0.1663 -0.3455 -0.0226
24087DOPC   C4A29726  16.400   3.373  13.342  0.3661 -0.1394 -0.2047
24087DOPC   C1B29727  16.192   4.411  12.530 -0.1008 -0.1238 -0.0752
24087DOPC   D2B29728  16.638   4.238  12.629 -0.1308  0.3487  0.0941
24087DOPC   C3B29729  17.023   4.395  12.887  0.1234  0.2168  0.1063
24087DOPC   C4B29730  17.391   4.718  12.948 -0.0232 -0.1040 -0.1022
24088DOPC   NC329731   1.335   0.865  12.306 -0.0522 -0.2029 -0.2368
24088DOPC   PO429732   1.674   1.075  12.375  0.0038 -0.2056 -0.1330
24088DOPC   GL129733   1.444   1.362  12.585 -0.3278  0.0926  0.1378
24088DOPC   GL229734   1.224   1.354  12.414 -0.0642 -0.0336  0.3617
24088DOPC   C1A29735   1.371   1.495  12.994  0.3258 -0.0415  0.1011
24088DOPC   D2A29736   1.599   1.425  13.448 -0.0812 -0.2397  0.3259
24088DOPC   C3A29737   1.931   1.124  13.436 -0.1985 -0.2898 -0.0272
24088DOPC   C4A29738   2.091   0.628  13.394  0.3748  0.2493  0.2125
24088DOPC   C1B29739   0.814   1.151  12.519  0.1060  0.0747  0.3746
24088DOPC   D2B29740   0.711   0.762  12.847 -0.2822  0.2492 -0.2968
24088DOPC   C3B29741   0.805   0.756  13.315 -0.1282 -0.1571 -0.0244
24088DOPC   C4B29742   0.985   0.853  13.745  0.2150  0.1480  0.2310
24089DOPC   NC329743   3.848   1.755  14.645  0.2974 -0.1837  0.1858
24089DOPC   PO429744   4.068   1.596  14.923  0.1028  0.1845  0.3594
24089DOPC   GL129745   3.716   1.336  15.104 -0.0393 -0.1124 -0.2570
24089DOPC   GL229746   3.698   1.389  14.857  0.0746  0.0487 -0.1375
24089DOPC   C1A29747   3.480   1.612  15.396 -0.0888  0.3868  0.0923
24089DOPC   D2A29748   3.166   1.793  15.756  0.0783 -0.1445  0.2897
24089DOPC   C3A29749   2.987   1.695  16.188 -0.2474 -0.3287  0.0198
24089DOPC   C4A29750   2.889   1.536  16.641 -0.0720  0.0914 -0.3572
24089DOPC   C1B29751   3.328   1.621  14.660  0.1381  0.2095 -0.1537
24089DOPC   D2B29752   3.033   1.661  14.292  0.0095 -0.0046  0.1869
24089DOPC   C3B29753   2.581   1.787  14.196  0.1349 -0.0789 -0.1277
24089DOPC   C4B29754   2.207   2.163  14.129  0.2994  0.1899 -0.2363
24090DOPC   NC329755  10.752   6.722  18.848 -0.1026  0.2502  0.3694
24090DOPC   PO429756  10.719   6.363  19.003  0.2233 -0.0203 -0.0024
24090DOPC   GL129757  10.941   6.130  19.284  0.2971  0.0572 -0.4337
24090DOPC   GL229758  11.119   6.402  19.310 -0.0128  0.0959 -0.0762
24090DOPC   C1A29759  11.103   5.834  19.527  0.3221 -0.0294 -0.0105
24090DOPC   D2A29760  11.512   5.823  19.811  0.0635  0.2331  0.1613
24090DOPC   C3A29761  11.936   5.894  19.682  0.1326  0.0516  0.1399
24090DOPC   C4A29762  12.261   6.296  19.815  0.0099 -0.2095 -0.0890
24090DOPC   C1B29763  11.122   6.444  19.740  0.1817 -0.0422  0.0108
24090DOPC   D2B29764  11.338   6.606  20.153  0.2123  0.2140 -0.0918
24090DOPC   C3B29765  11.641   6.424  20.484 -0.1816  0.1115 -0.3379
24090DOPC   C4B29766  11.748   6.308  20.929  0.0459 -0.0247  0.0236
24091DOPC   NC329767  12.597   6.443  15.712 -0.2916 -0.2421  0.2240
24091DOPC   PO429768  12.773   6.781  15.518 -0.1712  0.1451  0.1283
24091DOPC   GL129769  13.214   7.010  15.542 -0.3687  0.0320 -0.4108
24091DOPC   GL229770  13.162   7.046  15.809 -0.1851  0.3265  0.0120
24091DOPC   C1A29771  13.478   7.306  15.626  0.0776  0.1956 -0.1609
24091DOPC   D2A29772  13.582   7.770  15.524  0.0059  0.0042  0.2081
24091DOPC   C3A29773  13.762   8.225  15.395  0.0460 -0.1077  0.1192
24091DOPC   C4A29774  14.159   8.470  15.549  0.1754 -0.2819  0.1089
24091DOPC   C1B29775  13.339   6.675  15.950  0.0374 -0.1348 -0.1990
24091DOPC   D2B29776  13.740   6.549  16.275  0.3048 -0.0873  0.2350
24091DOPC   C3B29777  14.104   6.528  16.601 -0.0198  0.0283  0.2163
24091DOPC   C4B29778  14.403   6.472  16.985 -0.2512 -0.0977  0.3487
24092DOPC   NC329779  14.205   6.623  13.960  0.1403  0.1481 -0.0121
24092DOPC   PO429780  14.133   6.197  13.915  0.1700  0.1483  0.3502
24092DOPC   GL129781  14.262   5.909  14.187  0.1585  0.2848  0.2777
24092DOPC   GL229782  14.221   6.089  14.422 -0.0480  0.1993 -0.1100
24092DOPC   C1A29783  14.655   5.769  14.278  0.0887 -0.3534 -0.0484
24092DOPC   D2A29784  15.027   5.622  14.533  0.1159  0.3436 -0.0692
24092DOPC   C3A29785  15.285   5.253  14.562  0.0944  0.1485 -0.1248
24092DOPC   C4A29786  15.709   4.927  14.658  0.2716  0.0672  0.0296
24092DOPC   C1B29787  14.577   6.108  14.639  0.0629  0.1712 -0.2781
24092DOPC   D2B29788  15.006   6.130  14.909 -0.0641 -0.0123  0.0406
24092DOPC   C3B29789  15.130   6.024  15.329  0.1071  0.3038 -0.2688
24092DOPC   C4B29790  15.047   5.892  15.841  0.4522  0.0477 -0.0430
24093DOPC   NC329791   2.833   2.006  13.283 -0.3192  0.0120  0.1221
24093DOPC   PO429792   2.528   2.009  13.041 -0.3878 -0.0330 -0.1493
24093DOPC   GL129793   2.256   2.246  13.077  0.2389 -0.2402 -0.1231
24093DOPC   GL229794   2.247   2.495  13.068 -0.5331 -0.0911 -0.4153
24093DOPC   C1A29795   1.776   2.293  13.114 -0.0498  0.1687  0.1843
24093DOPC   D2A29796   1.495   2.722  13.221 -0.0528 -0.1002 -0.2447
24093DOPC   C3A29797   1.070   2.683  13.281  0.0480 -0.0783  0.1128
24093DOPC   C4A29798   0.744   3.094  13.523 -0.1690  0.0369 -0.2312
24093DOPC   C1B29799   1.968   2.688  13.394  0.2053  0.2436  0.2249
24093DOPC   D2B29800   1.713   2.951  13.738 -0.0051 -0.0526  0.2808
24093DOPC   C3B29801   1.250   3.014  13.640  0.0059 -0.1637  0.1487
24093DOPC   C4B29802   0.984   3.383  13.832  0.1253  0.1437 -0.0586
24094DOPC   NC329803   2.250   4.548  12.425 -0.2590  0.0740  0.1044
24094DOPC   PO429804   2.031   4.229  12.387  0.1734 -0.1220  0.0953
24094DOPC   GL129805   1.935   4.076  12.736  0.3283 -0.6001  0.1046
24094DOPC   GL229806   1.706   3.877  12.642 -0.1213 -0.0023 -0.0334
24094DOPC   C1A29807   1.638   4.245  13.019  0.4615 -0.0385  0.1199
24094DOPC   D2A29808   1.472   4.693  13.118  0.0664 -0.0377 -0.1421
24094DOPC   C3A29809   1.123   4.794  13.443  0.2154  0.3415 -0.0939
24094DOPC   C4A29810   0.577   4.790  13.611  0.1650  0.1451  0.0028
24094DOPC   C1B29811   1.274   3.992  12.776 -0.0425 -0.1906 -0.2171
24094DOPC   D2B29812   0.766   4.128  12.681 -0.1325  0.4411  0.0345
24094DOPC   C3B29813   0.289   4.222  12.844 -0.2049 -0.1026 -0.0195
24094DOPC   C4B29814  -0.019   4.164  13.245 -0.0812  0.1522  0.1555
24095DOPC   NC329815   9.978   7.089  18.760  0.0298 -0.1040 -0.0543
24095DOPC   PO429816  10.381   7.040  18.807  0.0202 -0.1131 -0.3176
24095DOPC   GL129817  10.784   7.232  18.950 -0.2616  0.2409  0.3862
24095DOPC   GL229818  10.636   7.304  19.138 -0.0183 -0.0302 -0.1286
24095DOPC   C1A29819  11.052   7.073  19.253 -0.0330  0.1701 -0.1248
24095DOPC   D2A29820  11.310   6.915  19.693 -0.2229  0.1352  0.4812
24095DOPC   C3A29821  11.727   6.889  19.544  0.0715  0.2000 -0.1209
24095DOPC   C4A29822  12.172   7.072  19.450 -0.2229  0.0627  0.1191
24095DOPC   C1B29823  10.827   7.420  19.500 -0.0660  0.0168 -0.0970
24095DOPC   D2B29824  10.906   7.666  19.915 -0.1671 -0.1540  0.0191
24095DOPC   C3B29825  11.284   7.854  19.759  0.1739  0.0768 -0.0472
24095DOPC   C4B29826  11.638   8.091  19.609  0.0494  0.1201 -0.0816
24096DOPC   NC329827  20.957   5.883   9.873 -0.2077 -0.1727 -0.2683
24096DOPC   PO429828  21.160   5.542   9.835 -0.3492  0.0277  0.2116
24096DOPC   GL129829  21.174   5.663  10.275 -0.2871  0.3231  0.1848
24096DOPC   GL229830  21.045   5.866  10.328 -0.2846  0.0468  0.0642
24096DOPC   C1A29831  21.369   5.624  10.572  0.1022  0.2975 -0.0335
24096DOPC   D2A29832  21.546   5.272  10.876  0.3745  0.1006 -0.1157
24096DOPC   C3A29833  21.454   4.839  11.044  0.0565  0.1772  0.0557
24096DOPC   C4A29834  21.362   4.457  11.262 -0.1086  0.0489  0.0744
24096DOPC   C1B29835  21.122   6.046  10.783 -0.0163  0.0863  0.1018
24096DOPC   D2B29836  21.170   6.218  11.240  0.0447 -0.1255 -0.1356
24096DOPC   C3B29837  21.418   6.426  11.624  0.0097 -0.3361  0.1481
24096DOPC   C4B29838  21.622   6.631  12.004 -0.1797 -0.0373 -0.2242
24097DOPC   NC329839  19.883   6.484  10.039 -0.4277 -0.3808 -0.0553
24097DOPC   PO429840  19.845   6.731  10.302 -0.1741  0.0117 -0.1348
24097DOPC   GL129841  19.615   6.755  10.670 -0.3247  0.1158  0.3749
24097DOPC   GL229842  19.471   7.005  10.550  0.1266  0.3295 -0.0132
24097DOPC   C1A29843  19.908   6.802  11.000 -0.1595 -0.0163  0.1788
24097DOPC   D2A29844  20.328   6.646  11.275  0.0250 -0.3472  0.0128
24097DOPC   C3A29845  20.284   6.541  11.678 -0.2271  0.2132 -0.0264
24097DOPC   C4A29846  20.358   6.172  11.946 -0.1328 -0.0727 -0.2837
24097DOPC   C1B29847  19.477   7.382  10.739 -0.2538 -0.1110 -0.0220
24097DOPC   D2B29848  19.437   7.789  11.023 -0.1176 -0.1322  0.1131
24097DOPC   C3B29849  19.660   7.727  11.427  0.2790 -0.1480  0.0230
24097DOPC   C4B29850  19.739   7.822  11.904 -0.1974 -0.0517 -0.1097
24098DOPC   NC329851   3.139   6.380  13.952  0.2561  0.0830  0.2046
24098DOPC   PO429852   3.167   6.015  13.742 -0.0140  0.0547 -0.0934
24098DOPC   GL129853   2.856   5.785  13.920  0.0178 -0.0363 -0.0384
24098DOPC   GL229854   2.816   5.947  14.085 -0.0138 -0.1085  0.1910
24098DOPC   C1A29855   2.615   5.465  14.071 -0.3877  0.3161  0.4032
24098DOPC   D2A29856   2.260   5.125  14.105  0.0217 -0.1346  0.0050
24098DOPC   C3A29857   1.794   5.055  14.286  0.4559 -0.0555 -0.1203
24098DOPC   C4A29858   1.421   4.836  14.577  0.0473  0.0717  0.1542
24098DOPC   C1B29859   2.371   5.971  14.030 -0.1610  0.1883 -0.0414
24098DOPC   D2B29860   1.850   5.881  14.130  0.2074 -0.1145 -0.3194
24098DOPC   C3B29861   1.536   5.566  14.281 -0.3617  0.2607  0.5006
24098DOPC   C4B29862   1.348   5.297  14.586  0.0437 -0.2230 -0.3478
24099DOPC   NC329863  23.160   0.229  10.507 -0.0407 -0.0204  0.0317
24099DOPC   PO429864  23.562   0.139  10.456 -0.0957 -0.2213 -0.0333
24099DOPC   GL129865  23.771   0.184  10.805  0.0970  0.0846 -0.0084
24099DOPC   GL229866  24.034   0.143  10.774 -0.1598 -0.1375 -0.2914
24099DOPC   C1A29867  23.629   0.132  11.174  0.0785  0.0162 -0.3273
24099DOPC   D2A29868  23.128   0.088  11.417  0.3010  0.0313 -0.0091
24099DOPC   C3A29869  22.905   0.050  11.834 -0.0056  0.3437 -0.1019
24099DOPC   C4A29870  22.870   0.270  12.269 -0.1575  0.2516  0.0051
24099DOPC   C1B29871  24.086  -0.148  11.125 -0.1372  0.1425 -0.0876
24099DOPC   D2B29872  24.073  -0.094  11.597 -0.1260 -0.1063  0.0219
24099DOPC   C3B29873  23.865   0.089  11.997 -0.1290  0.0176  0.1108
24099DOPC   C4B29874  23.688   0.145  12.428  0.1613  0.1257  0.1332
24100DOPC   NC329875  13.298   7.608  15.176  0.0276 -0.0150  0.3998
24100DOPC   PO429876  13.558   7.830  14.996  0.1902 -0.2341 -0.2824
24100DOPC   GL129877  13.926   7.795  15.095  0.1179 -0.3825 -0.0412
24100DOPC   GL229878  14.012   7.584  14.865  0.2682  0.1723 -0.0718
24100DOPC   C1A29879  14.239   7.934  15.293 -0.0778  0.0850 -0.1765
24100DOPC   D2A29880  14.616   7.748  15.536  0.2099 -0.0769 -0.1949
24100DOPC   C3A29881  15.088   7.627  15.479 -0.0923 -0.0959 -0.0467
24100DOPC   C4A29882  15.468   7.897  15.601 -0.3213 -0.1001  0.1787
24100DOPC   C1B29883  14.271   7.279  14.962  0.1923 -0.3396  0.1097
24100DOPC   D2B29884  14.459   6.935  15.035 -0.0189  0.2873  0.0999
24100DOPC   C3B29885  14.716   6.737  15.433  0.2244 -0.1591 -0.1756
24100DOPC   C4B29886  14.799   6.761  15.975 -0.1492 -0.1880  0.0625
24101DOPC   NC329887   3.594   5.773  13.595  0.0873 -0.0333  0.0310
24101DOPC   PO429888   3.700   5.473  13.821  0.0245 -0.0470  0.1147
24101DOPC   GL129889   3.435   5.239  14.035 -0.0001  0.2435 -0.0939
24101DOPC   GL229890   3.587   5.091  14.219 -0.1018  0.2064  0.2140
24101DOPC   C1A29891   3.061   5.409  14.276  0.3037  0.0663  0.2912
24101DOPC   D2A29892   2.712   5.467  14.624 -0.2582  0.2293  0.0685
24101DOPC   C3A29893   2.285   5.517  14.548 -0.1439  0.0289  0.2594
24101DOPC   C4A29894   1.879   5.479  14.776 -0.3181 -0.0864  0.0225
24101DOPC   C1B29895   3.310   5.041  14.538  0.1793 -0.3125 -0.1963
24101DOPC   D2B29896   3.055   5.191  14.925 -0.0994  0.3538  0.1823
24101DOPC   C3B29897   2.955   5.612  15.130 -0.3691 -0.0732 -0.3621
24101DOPC   C4B29898   2.678   5.989  15.271 -0.2556 -0.2530  0.2791
24102DOPC   NC329899   5.560   1.867  17.332 -0.0920  0.0887 -0.0962
24102DOPC   PO429900   5.370   1.559  17.174  0.1833  0.1841  0.5807
24102DOPC   GL129901   5.080   1.512  17.408 -0.4100 -0.1057 -0.0039
24102DOPC   GL229902   5.238   1.705  17.615 -0.0644  0.3849  0.0134
24102DOPC   C1A29903   4.947   1.304  17.704  0.0209 -0.1003  0.4025
24102DOPC   D2A29904   4.640   1.017  17.948  0.0767  0.0900 -0.3131
24102DOPC   C3A29905   4.224   0.982  18.085  0.0657 -0.1004  0.2518
24102DOPC   C4A29906   3.726   0.880  18.061  0.0108  0.0926  0.1057
24102DOPC   C1B29907   4.957   1.873  17.914  0.4427  0.0490  0.1254
24102DOPC   D2B29908   4.594   1.938  18.235  0.2542 -0.3414 -0.5096
24102DOPC   C3B29909   4.344   1.887  18.577  0.1538  0.2584 -0.0474
24102DOPC   C4B29910   4.065   2.068  18.913  0.2449  0.0320 -0.1518
24103DOPC   NC329911   2.733   7.251  13.477  0.0367 -0.0230  0.0605
24103DOPC   PO429912   2.422   7.076  13.326  0.0866 -0.0806  0.0238
24103DOPC   GL129913   2.206   6.791  13.602 -0.0382  0.0035  0.0737
24103DOPC   GL229914   2.200   7.066  13.762  0.0161  0.0645  0.1328
24103DOPC   C1A29915   1.775   6.668  13.625 -0.1252 -0.2917 -0.0572
24103DOPC   D2A29916   1.388   6.643  13.841  0.0997 -0.1431 -0.0440
24103DOPC   C3A29917   1.252   6.603  14.301  0.0477  0.3024 -0.0019
24103DOPC   C4A29918   1.226   6.851  14.721 -0.1211  0.0234  0.0917
24103DOPC   C1B29919   2.005   7.312  14.130 -0.1060  0.2170 -0.1360
24103DOPC   D2B29920   1.774   7.503  14.530 -0.1822  0.1845 -0.0258
24103DOPC   C3B29921   1.911   7.704  14.912  0.3012  0.2825  0.0888
24103DOPC   C4B29922   2.120   7.905  15.272 -0.1372 -0.2003  0.1446
24104DOPC   NC329923  13.216   3.327  14.702 -0.1539  0.0020 -0.0498
24104DOPC   PO429924  13.273   2.946  14.738 -0.2078  0.0002  0.0264
24104DOPC   GL129925  13.547   2.850  14.967 -0.6491 -0.2736  0.3205
24104DOPC   GL229926  13.775   2.984  14.777  0.0691  0.2511  0.1217
24104DOPC   C1A29927  13.743   2.580  15.243 -0.0991  0.0896  0.2457
24104DOPC   D2A29928  14.051   2.273  15.528  0.0384 -0.0780  0.0759
24104DOPC   C3A29929  14.557   2.327  15.450 -0.0166  0.3798  0.3643
24104DOPC   C4A29930  15.066   2.265  15.521  0.0547 -0.0671  0.0525
24104DOPC   C1B29931  14.092   3.078  15.095  0.3512  0.0047 -0.0548
24104DOPC   D2B29932  14.270   3.196  15.534  0.1850  0.2659  0.0962
24104DOPC   C3B29933  14.492   3.595  15.681  0.0245 -0.1348 -0.1128
24104DOPC   C4B29934  14.741   4.008  15.774  0.0855  0.0888  0.1559
24105DOPC   NC329935  14.580   4.329  13.702 -0.1167  0.1803  0.1270
24105DOPC   PO429936  14.395   4.665  13.825 -0.1635  0.0499 -0.2326
24105DOPC   GL129937  14.626   4.915  14.115 -0.1870  0.1577  0.2816
24105DOPC   GL229938  14.400   4.850  14.246  0.1639 -0.3354 -0.0034
24105DOPC   C1A29939  14.917   4.730  14.343  0.1645  0.0910  0.1679
24105DOPC   D2A29940  15.332   4.632  14.605 -0.1491 -0.1089  0.0029
24105DOPC   C3A29941  15.687   4.451  14.877  0.1482  0.5879 -0.0175
24105DOPC   C4A29942  16.069   4.039  14.784  0.2125 -0.3883 -0.2592
24105DOPC   C1B29943  14.499   4.690  14.626 -0.1277 -0.2183 -0.1038
24105DOPC   D2B29944  14.930   4.706  14.870  0.0257 -0.2691 -0.3507
24105DOPC   C3B29945  15.216   4.981  15.102  0.2358 -0.1269  0.0505
24105DOPC   C4B29946  15.583   5.290  15.032 -0.0003 -0.0083  0.0201
24106DOPC   NC329947   5.922   5.289  18.013 -0.2543 -0.0712 -0.0943
24106DOPC   PO429948   5.737   5.005  17.843  0.0807  0.0763 -0.0865
24106DOPC   GL129949   5.475   4.843  18.107 -0.3157  0.2140  0.2241
24106DOPC   GL229950   5.605   5.074  18.279  0.1225 -0.0420  0.1352
24106DOPC   C1A29951   5.113   4.784  18.309  0.0703 -0.0434  0.0261
24106DOPC   D2A29952   4.872   4.379  18.322 -0.2131  0.1165  0.0656
24106DOPC   C3A29953   4.396   4.315  18.501  0.1042  0.0326 -0.3706
24106DOPC   C4A29954   3.937   4.202  18.708 -0.1883  0.1318 -0.1074
24106DOPC   C1B29955   5.678   5.214  18.730  0.2369 -0.2171  0.1353
24106DOPC   D2B29956   5.670   5.272  19.231 -0.0440  0.0252 -0.3301
24106DOPC   C3B29957   5.263   5.255  19.426  0.0608 -0.1109  0.3111
24106DOPC   C4B29958   4.791   5.446  19.508  0.1814  0.0025 -0.4453
24107DOPC   NC329959  21.773   2.532  10.361  0.2145 -0.4737 -0.0599
24107DOPC   PO429960  21.784   2.183  10.240 -0.1243  0.0381 -0.0530
24107DOPC   GL129961  22.019   2.195  10.636  0.0194  0.0846  0.1307
24107DOPC   GL229962  21.762   2.164  10.740  0.1577 -0.0596  0.0757
24107DOPC   C1A29963  22.248   2.259  11.070 -0.0388  0.2744  0.1866
24107DOPC   D2A29964  22.556   2.337  11.433 -0.0067 -0.1749 -0.2321
24107DOPC   C3A29965  22.750   2.320  11.843  0.0553  0.2495 -0.1721
24107DOPC   C4A29966  22.990   2.286  12.226 -0.3685  0.1459  0.2032
24107DOPC   C1B29967  21.770   2.287  11.192  0.3571 -0.1533 -0.0729
24107DOPC   D2B29968  21.697   2.337  11.712  0.1391 -0.1523 -0.1421
24107DOPC   C3B29969  21.636   2.190  12.109  0.0994  0.1274 -0.1207
24107DOPC   C4B29970  21.826   2.008  12.474  0.1437  0.0185  0.1774
24108DOPC   NC329971  18.177   0.586  11.116 -0.1747 -0.0449 -0.3478
24108DOPC   PO429972  18.093   0.212  11.127 -0.2950 -0.1125 -0.1669
24108DOPC   GL129973  18.307  -0.154  11.316  0.2629 -0.1365 -0.0713
24108DOPC   GL229974  18.146  -0.196  11.485  0.0327  0.0660 -0.2205
24108DOPC   C1A29975  18.716  -0.174  11.519  0.1380 -0.1161 -0.3684
24108DOPC   D2A29976  19.209  -0.172  11.661  0.0057  0.0347  0.0821
24108DOPC   C3A29977  19.326  -0.210  12.073  0.0769  0.0879  0.1722
24108DOPC   C4A29978  19.220  -0.141  12.556 -0.0292 -0.1667  0.1084
24108DOPC   C1B29979  18.292  -0.191  11.913 -0.2799 -0.3058 -0.1111
24108DOPC   D2B29980  18.333  -0.165  12.398  0.0721 -0.0485  0.1764
24108DOPC   C3B29981  18.394  -0.467  12.688 -0.0001 -0.1136  0.2017
24108DOPC   C4B29982  18.414  -0.859  12.839 -0.1868 -0.0284 -0.0214
24109DOPC   NC329983   3.932   4.637  14.310  0.2221  0.0255  0.1296
24109DOPC   PO429984   3.719   4.301  14.212  0.2734 -0.0675  0.1233
24109DOPC   GL129985   3.356   4.260  14.404 -0.1205  0.1976 -0.3347
24109DOPC   GL229986   3.372   4.552  14.502 -0.3816  0.1423 -0.0202
24109DOPC   C1A29987   2.961   4.181  14.513 -0.1457  0.0477 -0.0687
24109DOPC   D2A29988   2.503   4.069  14.704  0.0726  0.4035  0.1463
24109DOPC   C3A29989   2.300   3.994  15.099  0.0434  0.2009  0.0106
24109DOPC   C4A29990   2.119   4.209  15.494  0.1994  0.2417  0.2536
24109DOPC   C1B29991   3.111   4.681  14.814  0.0431 -0.1267 -0.0504
24109DOPC   D2B29992   2.699   4.849  14.988 -0.0261 -0.1689  0.5604
24109DOPC   C3B29993   2.522   5.280  15.023  0.1284 -0.1693 -0.0151
24109DOPC   C4B29994   2.284   5.765  14.997 -0.2010 -0.0026  0.0771
24110DOPC   NC329995   8.935   1.520  18.501  0.1521 -0.2610  0.0351
24110DOPC   PO429996   9.091   1.169  18.501 -0.2164 -0.0881  0.2573
24110DOPC   GL129997   9.037   1.044  18.883 -0.0439  0.0443 -0.3550
24110DOPC   GL229998   9.342   0.891  18.840  0.0587 -0.0848 -0.0610
24110DOPC   C1A29999   8.939   1.065  19.248  0.1548 -0.1436  0.0196
24110DOPC   D2A30000   9.143   1.015  19.720  0.1624 -0.0304  0.1091
24110DOPC   C3A30001   8.798   1.032  20.049 -0.1589 -0.2373  0.0061
24110DOPC   C4A30002   8.778   1.020  20.558  0.1481 -0.1658  0.1873
24110DOPC   C1B30003   9.377   0.905  19.275  0.1369  0.0594 -0.0929
24110DOPC   D2B30004   9.579   0.722  19.731  0.2764 -0.0172 -0.0606
24110DOPC   C3B30005   9.966   0.653  19.441  0.3602  0.2170 -0.4766
24110DOPC   C4B30006  10.396   0.498  19.455  0.0157  0.1653  0.1642
24111DOPC   NC330007  11.338   2.922  17.406 -0.4692  0.1139 -0.0382
24111DOPC   PO430008  11.199   2.836  17.739  0.1122  0.1017 -0.2115
24111DOPC   GL130009  11.556   3.005  17.993 -0.0442  0.3105 -0.1847
24111DOPC   GL230010  11.414   3.268  17.973 -0.0139  0.1576  0.1053
24111DOPC   C1A30011  11.828   2.954  18.298 -0.2032 -0.0722  0.0870
24111DOPC   D2A30012  12.085   3.051  18.650 -0.3155 -0.1189 -0.0517
24111DOPC   C3A30013  12.242   2.791  18.966  0.0644 -0.0586  0.1992
24111DOPC   C4A30014  12.481   2.408  19.122 -0.5232  0.3617  0.0972
24111DOPC   C1B30015  11.466   3.373  18.387  0.4003  0.2844 -0.0007
24111DOPC   D2B30016  11.716   3.437  18.851  0.1687 -0.0614 -0.0861
24111DOPC   C3B30017  12.079   3.353  19.101  0.2015  0.0647 -0.2582
24111DOPC   C4B30018  12.499   3.144  19.423 -0.1953  0.0220  0.1988
24112DOPC   NC330019  21.940   0.557   9.815 -0.0026 -0.1920  0.2079
24112DOPC   PO430020  21.788   0.266  10.058  0.0341 -0.1199 -0.1628
24112DOPC   GL130021  21.686   0.364  10.467 -0.0823 -0.1559  0.0577
24112DOPC   GL230022  21.905   0.462  10.649 -0.1259  0.3525  0.1002
24112DOPC   C1A30023  21.462   0.450  10.862  0.0223  0.2022 -0.0939
24112DOPC   D2A30024  21.272   0.502  11.288  0.1335 -0.1569  0.0265
24112DOPC   C3A30025  21.582   0.410  11.676 -0.0884  0.0370  0.2074
24112DOPC   C4A30026  21.987   0.241  11.911 -0.2907 -0.0219  0.0981
24112DOPC   C1B30027  21.977   0.513  11.012  0.1009 -0.0003  0.0164
24112DOPC   D2B30028  22.184   0.416  11.498 -0.1094 -0.1666 -0.3829
24112DOPC   C3B30029  22.541   0.431  11.718 -0.1314 -0.0973 -0.1580
24112DOPC   C4B30030  22.799   0.673  12.000  0.0270  0.1941 -0.1210
24113DOPC   NC330031   5.513   5.769  17.397 -0.0475  0.0151 -0.2048
24113DOPC   PO430032   5.691   5.556  17.673 -0.0277  0.1585  0.3343
24113DOPC   GL130033   5.333   5.312  17.814 -0.1732 -0.1619  0.0762
24113DOPC   GL230034   5.418   5.353  18.016  0.3235 -0.0177 -0.0608
24113DOPC   C1A30035   4.975   5.181  17.968  0.0072 -0.0964  0.2396
24113DOPC   D2A30036   4.593   5.361  18.245  0.2473  0.2080  0.2255
24113DOPC   C3A30037   4.454   5.491  18.674  0.0019 -0.2083 -0.1183
24113DOPC   C4A30038   4.301   5.640  19.100  0.1371 -0.0825 -0.1454
24113DOPC   C1B30039   5.194   5.275  18.373  0.3326  0.0346 -0.0438
24113DOPC   D2B30040   4.797   5.119  18.616 -0.0167  0.1934 -0.0003
24113DOPC   C3B30041   4.748   4.806  18.910 -0.2364  0.0764 -0.2311
24113DOPC   C4B30042   4.767   4.275  18.967 -0.0240 -0.2935  0.0677
24114DOPC   NC330043  21.806   4.300   9.712 -0.1073  0.0482  0.3099
24114DOPC   PO430044  22.195   4.233   9.746 -0.0589 -0.1289  0.2840
24114DOPC   GL130045  22.193   4.168  10.176 -0.0222  0.0897 -0.0881
24114DOPC   GL230046  22.106   4.481  10.140  0.1876 -0.0664  0.0256
24114DOPC   C1A30047  22.431   4.202  10.516 -0.1451 -0.1099  0.1729
24114DOPC   D2A30048  22.870   3.976  10.685  0.2362  0.1114  0.1258
24114DOPC   C3A30049  22.984   4.005  11.158  0.0500  0.2049 -0.1066
24114DOPC   C4A30050  23.201   4.064  11.547  0.3275  0.0899 -0.1518
24114DOPC   C1B30051  22.481   4.668  10.419  0.0146 -0.2278 -0.0670
24114DOPC   D2B30052  22.738   4.982  10.706  0.0486  0.0320 -0.1035
24114DOPC   C3B30053  23.172   5.116  10.769  0.2042  0.0510 -0.3307
24114DOPC   C4B30054  23.646   5.236  10.816 -0.2291  0.0207 -0.0131
24115DOPC   NC330055   4.997   1.550  16.849 -0.1390  0.1010 -0.0427
24115DOPC   PO430056   5.123   1.180  16.945  0.1796 -0.1826 -0.3320
24115DOPC   GL130057   5.000   1.047  17.304  0.0142  0.2320 -0.0837
24115DOPC   GL230058   4.788   1.272  17.197 -0.2041 -0.0104  0.1645
24115DOPC   C1A30059   4.829   0.798  17.567  0.2120 -0.1494  0.0353
24115DOPC   D2A30060   4.426   0.552  17.734 -0.0551 -0.0387  0.2281
24115DOPC   C3A30061   4.475   0.514  18.211  0.1922 -0.1789  0.1119
24115DOPC   C4A30062   4.333   0.560  18.667 -0.1610 -0.0408 -0.1705
24115DOPC   C1B30063   4.475   1.132  17.477  0.0336  0.1442 -0.0482
24115DOPC   D2B30064   4.095   0.913  17.634 -0.4449  0.1157 -0.1164
24115DOPC   C3B30065   3.977   0.466  17.851 -0.4956  0.0457  0.2100
24115DOPC   C4B30066   3.880  -0.061  17.891  0.2808 -0.2197 -0.3059
24116DOPC   NC330067  12.191   2.234  17.338  0.1453  0.0966 -0.3473
24116DOPC   PO430068  11.897   2.471  17.195  0.1961  0.3302  0.2315
24116DOPC   GL130069  12.166   2.863  17.195  0.0983 -0.1639 -0.0283
24116DOPC   GL230070  12.115   2.652  17.500 -0.3555 -0.1107  0.0260
24116DOPC   C1A30071  12.578   2.785  17.160  0.3031 -0.1641  0.2158
24116DOPC   D2A30072  13.050   2.638  17.305  0.0375  0.3462  0.0301
24116DOPC   C3A30073  13.207   2.499  17.711 -0.1646  0.2644 -0.1777
24116DOPC   C4A30074  13.476   2.249  18.060 -0.0458  0.0317 -0.0515
24116DOPC   C1B30075  12.504   2.780  17.685  0.0571  0.0608  0.0853
24116DOPC   D2B30076  12.977   2.946  17.698 -0.0426  0.2469 -0.1777
24116DOPC   C3B30077  13.330   3.155  17.518 -0.0972  0.2454  0.0715
24116DOPC   C4B30078  13.475   3.524  17.201 -0.0317  0.1118  0.2241
24117DOPC   NC330079   4.831   2.417  16.118  0.2823 -0.1266  0.0333
24117DOPC   PO430080   4.572   2.211  16.290 -0.1482 -0.1748 -0.1581
24117DOPC   GL130081   4.392   2.353  16.643 -0.1906  0.2579 -0.2672
24117DOPC   GL230082   4.535   2.557  16.641 -0.2492  0.0827  0.2354
24117DOPC   C1A30083   4.073   2.225  16.917 -0.3897 -0.1866  0.0660
24117DOPC   D2A30084   3.691   1.897  17.058 -0.0220  0.3432  0.0550
24117DOPC   C3A30085   3.313   2.072  17.142 -0.2981 -0.2706  0.1856
24117DOPC   C4A30086   3.003   2.401  17.344 -0.0526 -0.1784  0.0833
24117DOPC   C1B30087   4.308   2.944  16.659  0.2084 -0.1758  0.0395
24117DOPC   D2B30088   4.031   3.264  16.679  0.0249 -0.3341 -0.2118
24117DOPC   C3B30089   3.717   3.544  16.944  0.1931  0.0850  0.1127
24117DOPC   C4B30090   3.439   3.483  17.352  0.0093  0.0443  0.1552
24118DOPC   NC330091  22.229   1.357   9.898  0.1625  0.0484  0.0719
24118DOPC   PO430092  22.074   1.020   9.940 -0.1118  0.0444 -0.2952
24118DOPC   GL130093  22.016   0.746  10.252  0.2853 -0.2407 -0.2566
24118DOPC   GL230094  21.733   0.728  10.252 -0.4036 -0.0361 -0.0561
24118DOPC   C1A30095  22.247   0.749  10.655  0.0749 -0.0891  0.3345
24118DOPC   D2A30096  22.557   0.439  10.977  0.1163 -0.0428 -0.0378
24118DOPC   C3A30097  22.576   0.092  11.293 -0.3056 -0.0823  0.1325
24118DOPC   C4A30098  22.656  -0.276  11.612  0.0053  0.0559  0.0621
24118DOPC   C1B30099  21.737   0.857  10.651  0.0763 -0.3614 -0.0854
24118DOPC   D2B30100  22.074   1.014  10.990  0.1239  0.0914  0.1459
24118DOPC   C3B30101  22.010   1.326  11.311  0.3960 -0.1043 -0.4806
24118DOPC   C4B30102  21.972   1.284  11.791  0.2296  0.0436  0.0708
24119DOPC   NC330103  14.548   0.835  13.249  0.0943  0.0538 -0.0862
24119DOPC   PO430104  14.466   1.061  13.526  0.0686 -0.0596 -0.0850
24119DOPC   GL130105  14.674   0.916  13.852 -0.2013 -0.0860  0.2464
24119DOPC   GL230106  14.907   0.845  13.741  0.2658  0.1092  0.1448
24119DOPC   C1A30107  14.800   0.929  14.264 -0.0876 -0.0459  0.0538
24119DOPC   D2A30108  15.182   1.016  14.562  0.3221 -0.1744  0.2997
24119DOPC   C3A30109  15.595   1.023  14.805  0.0558 -0.3341 -0.1714
24119DOPC   C4A30110  16.059   1.277  14.924  0.1938 -0.0636 -0.1390
24119DOPC   C1B30111  15.173   0.502  13.939  0.1442  0.1524 -0.0028
24119DOPC   D2B30112  15.499   0.585  14.271  0.2455 -0.2052 -0.2276
24119DOPC   C3B30113  15.382   0.450  14.764 -0.0628  0.1647  0.2539
24119DOPC   C4B30114  15.305   0.406  15.255  0.0450  0.0451  0.0059
24120DOPC   NC330115  11.803   4.263  15.817 -0.2837 -0.0450  0.1081
24120DOPC   PO430116  12.223   4.343  15.890  0.2357 -0.2173  0.1448
24120DOPC   GL130117  12.406   4.303  16.347  0.1494 -0.0615  0.1283
24120DOPC   GL230118  12.260   4.457  16.462  0.1324 -0.0764  0.0573
24120DOPC   C1A30119  12.793   4.218  16.306 -0.2393 -0.2659 -0.1647
24120DOPC   D2A30120  13.291   4.244  16.309 -0.0087  0.0723  0.2239
24120DOPC   C3A30121  13.763   4.247  16.416  0.1442  0.2191  0.3022
24120DOPC   C4A30122  14.271   4.207  16.589 -0.1038  0.0390  0.0473
24120DOPC   C1B30123  12.653   4.647  16.555  0.3056 -0.1096 -0.3168
24120DOPC   D2B30124  13.115   4.558  16.678  0.2417  0.0260 -0.0797
24120DOPC   C3B30125  13.508   4.390  16.854  0.1505 -0.1002 -0.1317
24120DOPC   C4B30126  13.994   4.358  17.066  0.2539  0.0666 -0.0389
24121DOPC   NC330127   8.915   4.170  18.885 -0.3581 -0.0479  0.1380
24121DOPC   PO430128   8.549   4.316  18.801 -0.1995  0.0253 -0.3307
24121DOPC   GL130129   8.464   4.376  19.137  0.1416  0.0093  0.0407
24121DOPC   GL230130   8.757   4.270  19.285 -0.5471 -0.0886  0.0989
24121DOPC   C1A30131   8.144   4.523  19.391  0.1593  0.2055 -0.0595
24121DOPC   D2A30132   7.829   4.829  19.714  0.2541  0.0080  0.1022
24121DOPC   C3A30133   7.537   4.860  20.045  0.2483 -0.0877  0.3923
24121DOPC   C4A30134   7.290   5.057  20.492  0.1759 -0.0940 -0.2330
24121DOPC   C1B30135   8.597   3.913  19.335  0.0373  0.1438  0.0504
24121DOPC   D2B30136   8.571   3.455  19.462  0.1113 -0.1552  0.2995
24121DOPC   C3B30137   8.113   3.369  19.561  0.0248 -0.2402  0.0214
24121DOPC   C4B30138   7.812   3.389  19.963  0.5105  0.3695  0.3088
24122DOPC   NC330139   6.597   2.498  18.073 -0.0955 -0.1080 -0.1018
24122DOPC   PO430140   6.508   2.908  18.033 -0.0719  0.0076  0.0381
24122DOPC   GL130141   6.241   3.167  18.338  0.0345 -0.1185  0.0238
24122DOPC   GL230142   6.268   2.883  18.405  0.1100 -0.0648 -0.3258
24122DOPC   C1A30143   5.931   3.345  18.574 -0.0288  0.1608 -0.1137
24122DOPC   D2A30144   5.593   3.531  18.800  0.2367 -0.2137  0.0243
24122DOPC   C3A30145   5.476   3.663  19.216  0.1493  0.1188  0.2847
24122DOPC   C4A30146   5.394   3.349  19.617 -0.0495  0.1638  0.1882
24122DOPC   C1B30147   5.890   2.873  18.622 -0.1402 -0.2438 -0.0745
24122DOPC   D2B30148   5.418   3.090  18.660  0.0354 -0.3086  0.0316
24122DOPC   C3B30149   5.312   3.064  19.133 -0.1128 -0.1677  0.1542
24122DOPC   C4B30150   5.009   3.126  19.521 -0.0054 -0.0583 -0.1046
24123DOPC   NC330151   5.183   4.621  16.724  0.0707 -0.1796  0.1439
24123DOPC   PO430152   5.035   4.978  16.618  0.1792 -0.1178 -0.0574
24123DOPC   GL130153   4.744   5.125  16.930 -0.0422 -0.2842 -0.0960
24123DOPC   GL230154   4.606   4.796  16.959 -0.0693  0.2075  0.1452
24123DOPC   C1A30155   4.370   5.424  16.876  0.1371  0.1807  0.2426
24123DOPC   D2A30156   3.910   5.470  16.692  0.1951  0.2204 -0.0343
24123DOPC   C3A30157   3.404   5.300  16.713 -0.1381 -0.0381  0.0290
24123DOPC   C4A30158   2.904   5.233  16.704  0.0523  0.2448  0.1744
24123DOPC   C1B30159   4.314   4.977  16.644  0.3372  0.1413  0.0332
24123DOPC   D2B30160   4.142   5.258  16.293  0.1577  0.1032 -0.1038
24123DOPC   C3B30161   3.716   5.399  16.248 -0.3140 -0.1079  0.1142
24123DOPC   C4B30162   3.180   5.418  16.142 -0.1055  0.0004 -0.3202
24124DOPC   NC330163  11.712   6.156  16.787 -0.2836  0.2608 -0.1577
24124DOPC   PO430164  11.706   6.295  17.147  0.5430 -0.0395  0.1029
24124DOPC   GL130165  12.017   6.184  17.425  0.5282 -0.5354  0.0234
24124DOPC   GL230166  12.116   6.183  17.096 -0.3613 -0.1328  0.1366
24124DOPC   C1A30167  12.139   6.394  17.819  0.2367  0.2224  0.2021
24124DOPC   D2A30168  12.486   6.245  18.136  0.1093  0.0910  0.2854
24124DOPC   C3A30169  12.857   6.186  18.418  0.0187 -0.1744  0.0475
24124DOPC   C4A30170  13.319   6.304  18.621 -0.0708  0.2665 -0.2283
24124DOPC   C1B30171  12.536   6.165  17.162  0.0852 -0.0912 -0.0623
24124DOPC   D2B30172  12.913   5.874  17.319  0.2086 -0.1069  0.4378
24124DOPC   C3B30173  13.163   5.612  17.679  0.1768  0.1237  0.4412
24124DOPC   C4B30174  13.274   5.281  18.061 -0.1225  0.1395  0.3792
24125DOPC   NC330175   5.733   2.629  16.793  0.3470 -0.1527  0.2813
24125DOPC   PO430176   5.338   2.692  16.745  0.0882  0.0107  0.0071
24125DOPC   GL130177   4.944   2.532  16.904 -0.1020  0.0205 -0.2174
24125DOPC   GL230178   4.953   2.420  17.093  0.0386 -0.1317  0.2153
24125DOPC   C1A30179   4.665   2.883  17.020  0.0546  0.0043 -0.5634
24125DOPC   D2A30180   4.300   3.202  17.097  0.0248  0.3686 -0.0352
24125DOPC   C3A30181   3.985   3.245  17.530 -0.0834  0.0278 -0.2344
24125DOPC   C4A30182   3.604   3.331  17.799  0.1135  0.1124 -0.2127
24125DOPC   C1B30183   4.931   2.670  17.434  0.0195  0.2475 -0.2521
24125DOPC   D2B30184   5.188   2.603  17.864 -0.2902  0.0698  0.3022
24125DOPC   C3B30185   4.948   2.458  18.189  0.0558  0.3788  0.1847
24125DOPC   C4B30186   4.738   2.360  18.609  0.1538 -0.1135 -0.0909
24126DOPC   NC330187  14.799   0.421  13.530 -0.1442 -0.1545 -0.2460
24126DOPC   PO430188  14.524   0.474  13.827  0.1206 -0.0979 -0.0580
24126DOPC   GL130189  14.648   0.411  14.243 -0.0408 -0.2243  0.4445
24126DOPC   GL230190  14.473   0.257  14.360  0.1777 -0.1937  0.0259
24126DOPC   C1A30191  15.079   0.312  14.429  0.1676 -0.2227 -0.1456
24126DOPC   D2A30192  15.116   0.003  14.780 -0.2119 -0.1845  0.0480
24126DOPC   C3A30193  15.427   0.017  15.026  0.2087 -0.3416  0.2367
24126DOPC   C4A30194  15.820   0.140  15.256 -0.2217 -0.0709  0.0997
24126DOPC   C1B30195  14.514   0.501  14.708  0.2399  0.1847 -0.3449
24126DOPC   D2B30196  14.495   0.679  15.185  0.2348  0.1480 -0.0824
24126DOPC   C3B30197  14.845   0.776  15.471  0.1120 -0.1744  0.2484
24126DOPC   C4B30198  15.217   0.869  15.729 -0.1722 -0.2855 -0.1346
24127DOPC   NC330199   7.244   3.398  18.622  0.1332 -0.0025 -0.0939
24127DOPC   PO430200   7.490   3.695  18.530  0.2910  0.2383 -0.2606
24127DOPC   GL130201   7.390   3.976  18.871  0.0397 -0.0711 -0.0097
24127DOPC   GL230202   7.180   3.804  18.880  0.0163  0.1831 -0.2299
24127DOPC   C1A30203   7.548   3.943  19.255  0.0508 -0.1718 -0.0591
24127DOPC   D2A30204   7.682   3.652  19.602 -0.0889 -0.0536  0.1821
24127DOPC   C3A30205   7.552   3.784  20.055  0.0308  0.0613 -0.3877
24127DOPC   C4A30206   7.677   4.051  20.462 -0.1421 -0.0721  0.1953
24127DOPC   C1B30207   6.985   3.762  19.253 -0.1095 -0.0276 -0.0188
24127DOPC   D2B30208   7.081   3.583  19.667  0.2573  0.3137  0.2091
24127DOPC   C3B30209   7.271   3.212  19.941  0.0791 -0.2016  0.3259
24127DOPC   C4B30210   7.585   3.116  20.278 -0.1926 -0.0679 -0.1981
24128DOPC   NC330211  14.055   2.476  13.488 -0.3540  0.0253  0.0709
24128DOPC   PO430212  14.127   2.351  13.853 -0.0928 -0.0563 -0.0005
24128DOPC   GL130213  14.546   2.388  14.017 -0.2197 -0.4484  0.2911
24128DOPC   GL230214  14.403   2.246  14.242 -0.2667  0.2319 -0.5419
24128DOPC   C1A30215  14.944   2.423  14.125  0.3086 -0.1021  0.1147
24128DOPC   D2A30216  15.395   2.328  14.405  0.0556  0.0433 -0.0539
24128DOPC   C3A30217  15.778   2.584  14.155  0.3066 -0.0543 -0.0532
24128DOPC   C4A30218  16.154   2.875  14.012  0.1146 -0.2002 -0.2652
24128DOPC   C1B30219  14.492   2.478  14.574 -0.2101 -0.3297 -0.0927
24128DOPC   D2B30220  14.699   2.673  14.993 -0.2564 -0.1382  0.0671
24128DOPC   C3B30221  14.565   3.155  15.117  0.0574  0.0528 -0.0384
24128DOPC   C4B30222  14.348   3.544  15.206  0.0191 -0.1217  0.1098
24129DOPC   NC330223   3.705   3.831  13.968 -0.3886 -0.0144 -0.2076
24129DOPC   PO430224   3.497   4.073  13.762 -0.0456  0.1256  0.0897
24129DOPC   GL130225   3.156   4.290  13.999  0.1285 -0.0647  0.0955
24129DOPC   GL230226   3.346   4.518  14.098  0.0666 -0.2592  0.1976
24129DOPC   C1A30227   2.749   4.119  14.073 -0.0328 -0.1109 -0.0763
24129DOPC   D2A30228   2.281   4.104  14.170  0.3387  0.1742 -0.2978
24129DOPC   C3A30229   1.904   4.037  14.437  0.3278 -0.1015 -0.1461
24129DOPC   C4A30230   1.571   3.866  14.815  0.1710  0.0448  0.2744
24129DOPC   C1B30231   3.028   4.792  14.267 -0.0669 -0.0057  0.0283
24129DOPC   D2B30232   2.637   5.058  14.348 -0.0003  0.1205 -0.0958
24129DOPC   C3B30233   2.265   4.991  14.584 -0.0250  0.2884  0.1446
24129DOPC   C4B30234   2.025   5.038  14.963 -0.3229  0.1636 -0.3448
24130DOPC   NC330235  23.505   7.544  10.776 -0.0037 -0.0002  0.0125
24130DOPC   PO430236  23.163   7.517  10.641  0.1405 -0.0167 -0.1830
24130DOPC   GL130237  23.015   7.094  10.813 -0.0870 -0.1658 -0.1862
24130DOPC   GL230238  22.843   7.183  10.936 -0.3177 -0.1480  0.2748
24130DOPC   C1A30239  23.310   6.824  10.926  0.0093 -0.2687  0.2652
24130DOPC   D2A30240  23.510   6.549  11.274  0.1229 -0.0729 -0.0160
24130DOPC   C3A30241  23.172   6.661  11.507 -0.2019 -0.4172  0.0312
24130DOPC   C4A30242  22.903   7.062  11.642 -0.0037 -0.0588  0.0651
24130DOPC   C1B30243  22.971   7.458  11.285 -0.1446  0.2992 -0.1871
24130DOPC   D2B30244  23.192   7.431  11.712 -0.0546  0.1056  0.0341
24130DOPC   C3B30245  23.361   7.082  11.926  0.0753 -0.1650 -0.1802
24130DOPC   C4B30246  23.162   6.628  11.996 -0.1240  0.0401 -0.1089
24131DOPC   NC330247   7.577   4.888  18.443  0.3688  0.0736  0.0188
24131DOPC   PO430248   7.303   5.191  18.408 -0.1466 -0.0831  0.0898
24131DOPC   GL130249   7.077   5.207  18.732 -0.0804  0.0096 -0.1096
24131DOPC   GL230250   7.160   4.881  18.883  0.0429 -0.0976  0.0313
24131DOPC   C1A30251   6.677   5.349  18.982 -0.2315 -0.1526 -0.1622
24131DOPC   D2A30252   6.283   5.535  19.230  0.1802 -0.1806 -0.2191
24131DOPC   C3A30253   6.104   5.345  19.644  0.0125 -0.0878  0.0620
24131DOPC   C4A30254   5.937   5.248  20.149 -0.0878  0.1281 -0.2047
24131DOPC   C1B30255   7.313   4.843  19.281  0.0637  0.0394 -0.0468
24131DOPC   D2B30256   7.227   4.618  19.687 -0.1501  0.1461 -0.0907
24131DOPC   C3B30257   6.944   4.279  19.944 -0.1694 -0.3418  0.0669
24131DOPC   C4B30258   7.154   4.130  20.384  0.1807  0.1636 -0.1425
24132DOPC   NC330259   9.678   3.753  18.776  0.0217 -0.2095 -0.1775
24132DOPC   PO430260   9.937   3.966  18.624  0.1600 -0.2198 -0.0790
24132DOPC   GL130261   9.987   4.155  19.101  0.3533  0.1981 -0.0902
24132DOPC   GL230262  10.181   4.298  19.012  0.1651  0.0395 -0.3807
24132DOPC   C1A30263  10.077   3.973  19.530 -0.0527  0.2877 -0.0768
24132DOPC   D2A30264  10.071   3.667  19.920  0.2096 -0.0024  0.1385
24132DOPC   C3A30265  10.112   3.238  20.163  0.0314 -0.0314  0.0290
24132DOPC   C4A30266   9.679   2.951  20.332  0.0832  0.1158  0.0108
24132DOPC   C1B30267  10.240   4.432  19.443  0.3251 -0.2000 -0.0319
24132DOPC   D2B30268  10.516   4.324  19.885 -0.0586 -0.0678  0.0030
24132DOPC   C3B30269  10.355   4.502  20.258  0.0228  0.0601 -0.0151
24132DOPC   C4B30270   9.871   4.571  20.482 -0.0948  0.0014  0.1264
24133DOPC   NC330271  10.942   3.417  17.782  0.0914 -0.0482  0.0081
24133DOPC   PO430272  11.214   3.546  17.512 -0.1707 -0.0238  0.0564
24133DOPC   GL130273  11.591   3.666  17.657 -0.1092 -0.0750 -0.0478
24133DOPC   GL230274  11.513   3.787  17.859 -0.2125 -0.0271  0.2497
24133DOPC   C1A30275  12.020   3.750  17.673  0.3360  0.0334  0.0547
24133DOPC   D2A30276  12.500   3.672  17.737 -0.0186 -0.0301 -0.0848
24133DOPC   C3A30277  12.680   3.874  18.076 -0.0168  0.0416 -0.1568
24133DOPC   C4A30278  12.967   3.966  18.447 -0.0581 -0.1516  0.0187
24133DOPC   C1B30279  11.672   3.766  18.213  0.2612  0.1545  0.0097
24133DOPC   D2B30280  11.768   3.939  18.679  0.1270 -0.1540 -0.0526
24133DOPC   C3B30281  12.192   3.776  18.877 -0.2295  0.0052  0.2320
24133DOPC   C4B30282  12.670   3.749  18.820 -0.0443 -0.1224 -0.1487
24134DOPC   NC330283   3.200   5.486  13.724  0.3090  0.0516  0.1535
24134DOPC   PO430284   2.928   5.373  13.477  0.1914  0.0159  0.0819
24134DOPC   GL130285   2.699   4.913  13.764  0.3760 -0.2580 -0.2223
24134DOPC   GL230286   2.591   5.153  13.751 -0.3292  0.0648 -0.0831
24134DOPC   C1A30287   2.595   4.571  14.098  0.1486 -0.1791  0.0704
24134DOPC   D2A30288   2.551   4.537  14.587  0.3325  0.1775  0.1513
24134DOPC   C3A30289   2.304   4.483  15.022  0.1027 -0.3351 -0.0379
24134DOPC   C4A30290   1.969   4.637  15.263 -0.2813 -0.1881  0.1797
24134DOPC   C1B30291   2.270   5.151  13.501 -0.0341 -0.1365 -0.2018
24134DOPC   D2B30292   1.949   5.488  13.375  0.2781 -0.0109 -0.0982
24134DOPC   C3B30293   1.739   5.765  13.633 -0.3371 -0.0415 -0.1048
24134DOPC   C4B30294   1.905   6.164  13.737  0.0989 -0.3014  0.1590
24135DOPC   NC330295   1.664   3.730  11.673 -0.0196  0.4765 -0.4117
24135DOPC   PO430296   1.391   3.441  11.748  0.2620 -0.0512  0.0042
24135DOPC   GL130297   1.116   3.334  12.085 -0.2909  0.0284  0.4670
24135DOPC   GL230298   0.912   3.300  11.946  0.1167 -0.1035 -0.0808
24135DOPC   C1A30299   1.104   3.328  12.521 -0.1688  0.1311 -0.0776
24135DOPC   D2A30300   1.407   3.515  12.814 -0.0108  0.1236  0.0253
24135DOPC   C3A30301   1.396   3.837  13.203 -0.0046  0.2290  0.1098
24135DOPC   C4A30302   1.344   4.211  13.449 -0.0334  0.2431  0.0323
24135DOPC   C1B30303   0.710   3.045  12.215  0.0363  0.1992 -0.1586
24135DOPC   D2B30304   0.655   2.589  12.382 -0.2365 -0.0209  0.1540
24135DOPC   C3B30305   0.248   2.472  12.596  0.0404 -0.1523 -0.4721
24135DOPC   C4B30306  -0.179   2.490  12.890 -0.3584 -0.3758  0.1792
24136DOPC   NC330307  11.771   4.582  16.618  0.1293  0.2355 -0.2863
24136DOPC   PO430308  11.860   4.756  16.999 -0.0446  0.1046  0.1667
24136DOPC   GL130309  12.227   4.633  17.108  0.1998  0.0631  0.0355
24136DOPC   GL230310  12.396   4.647  16.921  0.3319 -0.1186  0.2350
24136DOPC   C1A30311  12.461   4.390  17.369 -0.2663 -0.0842  0.0230
24136DOPC   D2A30312  12.728   4.081  17.584 -0.1279  0.2096 -0.0718
24136DOPC   C3A30313  13.188   4.282  17.657  0.1680 -0.0341 -0.2519
24136DOPC   C4A30314  13.655   4.427  17.494  0.3100 -0.0619  0.0621
24136DOPC   C1B30315  12.789   4.875  16.992  0.3675 -0.0224 -0.0834
24136DOPC   D2B30316  13.273   5.048  16.856 -0.0012 -0.0687  0.0889
24136DOPC   C3B30317  13.633   5.247  17.105  0.1000 -0.2183  0.0502
24136DOPC   C4B30318  14.021   5.568  17.064 -0.1976  0.1243  0.1582
24137DOPC   NC330319  12.510   0.132  16.081 -0.2097 -0.0162 -0.1512
24137DOPC   PO430320  12.865   0.312  15.915  0.2100  0.0917 -0.0347
24137DOPC   GL130321  13.173   0.168  16.073 -0.1390 -0.3170  0.1271
24137DOPC   GL230322  13.262   0.459  16.055 -0.3270  0.0962  0.0345
24137DOPC   C1A30323  13.564   0.129  16.324 -0.0512 -0.1124  0.0602
24137DOPC   D2A30324  13.883  -0.006  16.663  0.4158 -0.0790  0.0562
24137DOPC   C3A30325  14.051   0.209  16.328 -0.1136  0.0467 -0.0712
24137DOPC   C4A30326  14.151   0.547  16.037 -0.1278  0.1480  0.1290
24137DOPC   C1B30327  13.610   0.669  16.229  0.0296  0.1675 -0.0367
24137DOPC   D2B30328  13.879   0.816  16.530 -0.3077 -0.2959 -0.2265
24137DOPC   C3B30329  14.156   0.538  16.730 -0.1247 -0.0601 -0.2358
24137DOPC   C4B30330  14.473   0.244  17.044  0.0518  0.0877  0.0400
24138DOPC   NC330331  15.724   4.588  11.255 -0.3100 -0.2228 -0.2072
24138DOPC   PO430332  15.990   4.421  11.485  0.0505 -0.0703  0.1193
24138DOPC   GL130333  16.130   4.538  11.807 -0.0085  0.3311 -0.1594
24138DOPC   GL230334  16.132   4.287  11.961 -0.4223 -0.3177  0.0467
24138DOPC   C1A30335  16.157   4.822  12.143 -0.0157 -0.0988 -0.0353
24138DOPC   D2A30336  16.181   4.889  12.638  0.1018 -0.0129  0.0080
24138DOPC   C3A30337  16.312   5.044  13.111 -0.2551 -0.1276 -0.0867
24138DOPC   C4A30338  16.553   5.055  13.553  0.1155  0.1030  0.1693
24138DOPC   C1B30339  16.507   4.423  12.091 -0.1150  0.2207  0.2034
24138DOPC   D2B30340  16.977   4.480  12.176 -0.0491 -0.0302  0.1502
24138DOPC   C3B30341  17.196   4.795  12.470  0.1898 -0.0423  0.0635
24138DOPC   C4B30342  17.231   5.141  12.826 -0.3305 -0.0075 -0.2464
24139DOPC   NC330343  18.886   0.872  10.885  0.1113 -0.1569 -0.2486
24139DOPC   PO430344  18.635   0.732  11.177 -0.2603 -0.2389  0.0753
24139DOPC   GL130345  18.849   0.523  11.442 -0.1443  0.4950  0.0574
24139DOPC   GL230346  18.668   0.679  11.661  0.0560  0.3072 -0.1100
24139DOPC   C1A30347  19.166   0.673  11.671 -0.2661  0.1151 -0.2373
24139DOPC   D2A30348  19.455   0.657  12.131 -0.1761 -0.1144 -0.0362
24139DOPC   C3A30349  19.594   1.015  12.409  0.0113  0.0888 -0.0422
24139DOPC   C4A30350  19.834   1.336  12.710 -0.1293  0.1325 -0.0548
24139DOPC   C1B30351  18.843   0.637  12.083 -0.0652 -0.0740  0.0273
24139DOPC   D2B30352  18.974   0.317  12.426  0.3871  0.0358  0.1556
24139DOPC   C3B30353  19.084   0.220  12.819 -0.1434 -0.0999  0.0034
24139DOPC   C4B30354  19.142   0.165  13.297  0.0046 -0.2129  0.1212
24140DOPC   NC330355   5.951   1.095  17.451  0.1023  0.0745 -0.4483
24140DOPC   PO430356   6.212   1.241  17.657 -0.1193  0.2253 -0.1958
24140DOPC   GL130357   6.094   1.123  17.999  0.0396  0.1992 -0.6820
24140DOPC   GL230358   6.160   0.817  18.040 -0.0970  0.1665  0.0108
24140DOPC   C1A30359   6.004   1.370  18.356  0.2842  0.1157  0.0444
24140DOPC   D2A30360   5.915   1.566  18.814  0.2375 -0.1547  0.0761
24140DOPC   C3A30361   5.515   1.800  18.987 -0.0030  0.0585  0.0578
24140DOPC   C4A30362   5.187   2.152  18.872 -0.0600 -0.1657 -0.3505
24140DOPC   C1B30363   5.948   0.798  18.351 -0.0459  0.1062 -0.0490
24140DOPC   D2B30364   5.910   0.581  18.789 -0.2446 -0.0911 -0.3420
24140DOPC   C3B30365   5.598   0.239  19.004  0.1660 -0.0462  0.1304
24140DOPC   C4B30366   5.403  -0.066  19.326 -0.0801  0.2435  0.2616
24141DOPC   NC330367  10.351   5.296  18.711  0.3985 -0.0419 -0.0106
24141DOPC   PO430368   9.929   5.253  18.771 -0.1604 -0.0365  0.2270
24141DOPC   GL130369   9.940   5.035  19.116 -0.3601  0.0291 -0.1048
24141DOPC   GL230370  10.234   4.901  19.198  0.0638 -0.0707 -0.0318
24141DOPC   C1A30371   9.620   5.055  19.484 -0.1031  0.4535  0.0090
24141DOPC   D2A30372   9.243   5.045  19.784 -0.0910 -0.0726 -0.0392
24141DOPC   C3A30373   8.830   4.910  19.889  0.2333 -0.0252 -0.0091
24141DOPC   C4A30374   8.386   4.695  20.062 -0.0026  0.0800  0.3250
24141DOPC   C1B30375  10.116   4.938  19.618 -0.1923 -0.0906 -0.1308
24141DOPC   D2B30376   9.926   4.931  20.089 -0.0365  0.3901  0.0161
24141DOPC   C3B30377   9.486   4.915  20.307 -0.0564 -0.2149  0.0391
24141DOPC   C4B30378   9.029   4.995  20.447  0.2317  0.0134  0.0253
24142DOPC   NC330379  13.709   1.560  14.056  0.0086 -0.1583  0.0272
24142DOPC   PO430380  14.051   1.481  13.876 -0.2464  0.1481 -0.5668
24142DOPC   GL130381  14.325   1.175  14.177  0.3174  0.0004 -0.2546
24142DOPC   GL230382  14.601   1.329  13.971 -0.4678  0.6797 -0.1079
24142DOPC   C1A30383  14.038   1.362  14.561  0.1766 -0.2840  0.0329
24142DOPC   D2A30384  14.020   1.746  14.862  0.0640  0.0831  0.1468
24142DOPC   C3A30385  14.332   1.811  15.262  0.2789 -0.0122 -0.1076
24142DOPC   C4A30386  14.704   1.685  15.476 -0.1368  0.0002 -0.0874
24142DOPC   C1B30387  14.961   1.352  14.073  0.0883  0.1592  0.1177
24142DOPC   D2B30388  15.375   1.011  14.064 -0.0501 -0.3473 -0.0319
24142DOPC   C3B30389  15.739   1.011  14.318  0.1187 -0.1743  0.0319
24142DOPC   C4B30390  16.023   0.708  14.676 -0.3410 -0.0028 -0.1488
24143DOPC   NC330391  18.199   7.182  11.601 -0.0798 -0.0985  0.0037
24143DOPC   PO430392  17.968   6.890  11.760 -0.3298  0.1742  0.1289
24143DOPC   GL130393  17.926   6.929  12.149  0.0740  0.0786 -0.0310
24143DOPC   GL230394  17.639   6.774  12.133 -0.0096 -0.0568 -0.1296
24143DOPC   C1A30395  18.190   6.935  12.415 -0.3027  0.3020  0.2628
24143DOPC   D2A30396  18.117   6.541  12.693  0.1876  0.2729  0.0842
24143DOPC   C3A30397  18.509   6.527  12.992  0.1428 -0.1983 -0.1763
24143DOPC   C4A30398  18.668   6.814  13.288 -0.0904 -0.0232 -0.0055
24143DOPC   C1B30399  17.614   6.496  12.398  0.1370  0.0386  0.0837
24143DOPC   D2B30400  17.651   6.055  12.710  0.1046  0.0431  0.3115
24143DOPC   C3B30401  17.663   5.978  13.144 -0.1956  0.1837 -0.0942
24143DOPC   C4B30402  17.593   6.013  13.614 -0.1475 -0.2512  0.1076
24144DOPC   NC330403   4.250   1.486  15.381 -0.1327 -0.2017  0.2230
24144DOPC   PO430404   4.286   1.791  15.675  0.3761 -0.1095  0.3125
24144DOPC   GL130405   3.982   2.053  15.653  0.2366  0.0867 -0.1084
24144DOPC   GL230406   4.135   2.355  15.605 -0.2381  0.3362 -0.0489
24144DOPC   C1A30407   3.681   2.153  15.938  0.1952 -0.0217 -0.1563
24144DOPC   D2A30408   3.564   2.605  16.212  0.2267 -0.0959  0.3307
24144DOPC   C3A30409   3.498   2.763  16.593  0.1813  0.2113 -0.1061
24144DOPC   C4A30410   3.494   3.226  16.610 -0.0469 -0.0687 -0.3673
24144DOPC   C1B30411   4.032   2.541  15.906 -0.0381  0.2634  0.1782
24144DOPC   D2B30412   3.938   2.440  16.452 -0.1630  0.1399  0.0293
24144DOPC   C3B30413   3.950   2.731  16.846 -0.1179 -0.4180  0.0489
24144DOPC   C4B30414   4.182   2.739  17.247 -0.1847  0.0853 -0.0564
24145DOPC   NC330415  17.987   6.528  11.464  0.0875  0.3170 -0.1439
24145DOPC   PO430416  18.279   6.747  11.313  0.0636 -0.1016  0.2469
24145DOPC   GL130417  18.631   6.630  11.618 -0.0507 -0.1667  0.0488
24145DOPC   GL230418  18.377   6.587  11.785 -0.0783  0.2669  0.0966
24145DOPC   C1A30419  18.996   6.698  11.808  0.2133 -0.1469 -0.1678
24145DOPC   D2A30420  19.435   6.805  11.650  0.4015  0.0792  0.0462
24145DOPC   C3A30421  19.891   6.697  11.891 -0.3028  0.0979  0.1272
24145DOPC   C4A30422  20.240   6.590  12.250 -0.0464  0.0759 -0.0265
24145DOPC   C1B30423  18.584   6.835  12.112 -0.0754  0.0342  0.2717
24145DOPC   D2B30424  18.723   7.249  12.318 -0.3148  0.0789 -0.0682
24145DOPC   C3B30425  18.777   7.629  12.148  0.0871  0.0227 -0.1144
24145DOPC   C4B30426  18.720   8.049  11.898 -0.0413  0.1191  0.1628
24146DOPC   NC330427  11.518   3.127  16.545  0.3593 -0.0935  0.1272
24146DOPC   PO430428  11.871   3.169  16.384 -0.1118  0.2889  0.3341
24146DOPC   GL130429  12.251   3.513  16.402  0.2019  0.1040 -0.0833
24146DOPC   GL230430  12.270   3.384  16.694 -0.0701  0.0661  0.2517
24146DOPC   C1A30431  12.663   3.761  16.521 -0.0624 -0.0960 -0.0405
24146DOPC   D2A30432  13.020   4.097  16.746 -0.0983 -0.0566 -0.2194
24146DOPC   C3A30433  13.301   4.045  17.180 -0.2126 -0.2220 -0.2194
24146DOPC   C4A30434  13.618   3.810  17.567 -0.1662 -0.1423  0.1446
24146DOPC   C1B30435  12.461   3.691  17.000  0.1020 -0.1907  0.0744
24146DOPC   D2B30436  12.851   3.781  17.194 -0.0462  0.0994 -0.1148
24146DOPC   C3B30437  13.098   3.598  16.885  0.0771  0.1798  0.0149
24146DOPC   C4B30438  13.503   3.437  16.665  0.1411  0.4265 -0.2735
24147DOPC   NC330439  21.657   7.669  10.364  0.2710 -0.1879 -0.1808
24147DOPC   PO430440  21.349   7.881  10.314  0.0984  0.1098 -0.3553
24147DOPC   GL130441  21.351   7.857  10.753 -0.0515  0.0946  0.2388
24147DOPC   GL230442  21.267   7.545  10.776 -0.0586  0.0625  0.0581
24147DOPC   C1A30443  21.750   7.767  10.849 -0.2790 -0.0086  0.1622
24147DOPC   D2A30444  22.278   7.758  10.764 -0.0689 -0.2779  0.1407
24147DOPC   C3A30445  22.107   7.776  11.200 -0.3916 -0.0917 -0.2284
24147DOPC   C4A30446  21.647   7.794  11.466  0.0907 -0.2062  0.1702
24147DOPC   C1B30447  21.397   7.288  11.136  0.1304 -0.3057 -0.4330
24147DOPC   D2B30448  21.480   6.991  11.528  0.0511  0.0022  0.0122
24147DOPC   C3B30449  21.255   6.913  11.911 -0.0795  0.1486 -0.0492
24147DOPC   C4B30450  21.157   6.511  12.223 -0.0374  0.1776  0.1038
24148DOPC   NC330451   2.982   3.010  12.999  0.1974 -0.2369 -0.1989
24148DOPC   PO430452   3.207   3.289  13.175 -0.0679  0.1442  0.3065
24148DOPC   GL130453   2.969   3.442  13.548 -0.0850  0.0328 -0.2870
24148DOPC   GL230454   2.864   3.134  13.527  0.2052 -0.0652  0.1262
24148DOPC   C1A30455   2.831   3.268  13.969  0.0147 -0.3975  0.0835
24148DOPC   D2A30456   2.599   3.205  14.370  0.2428  0.1080  0.0313
24148DOPC   C3A30457   2.176   3.099  14.560 -0.1911  0.0771  0.0536
24148DOPC   C4A30458   1.936   2.896  14.907  0.0348  0.1951 -0.0734
24148DOPC   C1B30459   2.727   2.700  13.685  0.2124 -0.2540  0.1860
24148DOPC   D2B30460   2.200   2.595  13.816  0.2179  0.0595 -0.3815
24148DOPC   C3B30461   1.782   2.449  14.002  0.0626 -0.0602 -0.1159
24148DOPC   C4B30462   1.362   2.275  14.209 -0.2034  0.0950  0.1155
24149DOPC   NC330463  19.475   5.072   9.791  0.0851 -0.1185  0.0356
24149DOPC   PO430464  19.606   5.349  10.055  0.1303 -0.1274  0.4099
24149DOPC   GL130465  19.578   5.381  10.485 -0.3373 -0.3095 -0.2393
24149DOPC   GL230466  19.411   5.153  10.449  0.1591  0.1512 -0.0451
24149DOPC   C1A30467  19.863   5.343  10.901  0.0100 -0.1971  0.1276
24149DOPC   D2A30468  19.676   5.465  11.335  0.0008 -0.0243  0.2051
24149DOPC   C3A30469  19.314   5.234  11.126  0.2672  0.2562  0.0200
24149DOPC   C4A30470  19.063   4.782  11.187 -0.2933  0.0353  0.0480
24149DOPC   C1B30471  19.520   4.929  10.824 -0.0219  0.1763 -0.1120
24149DOPC   D2B30472  19.551   4.765  11.285 -0.0221 -0.0429  0.2146
24149DOPC   C3B30473  19.456   4.396  11.603 -0.2220  0.0669  0.0846
24149DOPC   C4B30474  19.260   4.256  11.977 -0.0819 -0.1774  0.0928
24150DOPS   CNO30475  15.212   7.127  12.869 -0.1827 -0.2612  0.1506
24150DOPS   PO430476  15.527   7.172  12.640 -0.0079 -0.3292  0.0567
24150DOPS   GL130477  15.908   6.982  12.803  0.2494 -0.1219 -0.1610
24150DOPS   GL230478  16.012   7.184  12.901 -0.2668  0.2048  0.1099
24150DOPS   C1A30479  15.884   6.698  13.110  0.0131  0.0549  0.0944
24150DOPS   D2A30480  15.645   6.592  13.562  0.0939 -0.0808  0.0184
24150DOPS   C3A30481  15.825   6.341  13.927  0.1260 -0.0772 -0.1019
24150DOPS   C4A30482  16.175   6.279  14.155 -0.0248 -0.0456 -0.0036
24150DOPS   C1B30483  16.186   7.166  13.314  0.0004  0.1651  0.1424
24150DOPS   D2B30484  16.341   6.992  13.704  0.0500  0.1616 -0.0833
24150DOPS   C3B30485  16.533   6.926  14.112 -0.1490 -0.1798  0.1448
24150DOPS   C4B30486  16.266   6.661  14.430  0.1003 -0.1183  0.0504
24151DOPS   CNO30487   5.411   2.316  17.024 -0.2280 -0.1595  0.1942
24151DOPS   PO430488   5.246   1.980  16.983  0.2389 -0.2340  0.1350
24151DOPS   GL130489   4.838   1.919  17.035 -0.3617  0.2553 -0.5975
24151DOPS   GL230490   4.715   2.108  16.898  0.0135 -0.1116 -0.1354
24151DOPS   C1A30491   4.646   1.669  17.424 -0.2835 -0.0298  0.1765
24151DOPS   D2A30492   4.459   1.499  17.896 -0.0589  0.2626 -0.0452
24151DOPS   C3A30493   4.262   1.434  18.277 -0.4565  0.2695  0.3066
24151DOPS   C4A30494   4.163   1.478  18.764  0.0839  0.0142 -0.2603
24151DOPS   C1B30495   4.486   2.395  17.187  0.2594  0.0734 -0.0702
24151DOPS   D2B30496   4.489   2.557  17.652  0.1838  0.0397  0.1404
24151DOPS   C3B30497   4.377   2.392  18.044  0.2841 -0.0938  0.0871
24151DOPS   C4B30498   4.201   2.396  18.488  0.0110  0.0162  0.1464
24152DOPS   CNO30499  10.354   5.017  18.332 -0.1776  0.0484 -0.0157
24152DOPS   PO430500  10.716   5.110  18.383  0.3169 -0.1142  0.0122
24152DOPS   GL130501  10.931   4.974  18.762  0.4023 -0.1388 -0.3944
24152DOPS   GL230502  10.747   4.854  18.860  0.0177  0.0631 -0.0772
24152DOPS   C1A30503  11.183   5.191  19.059  0.1354 -0.0072 -0.0127
24152DOPS   D2A30504  11.377   5.458  19.407  0.0667 -0.1008  0.1465
24152DOPS   C3A30505  11.786   5.306  19.599  0.3426  0.0114 -0.1117
24152DOPS   C4A30506  12.152   5.001  19.637 -0.4820  0.3257  0.0573
24152DOPS   C1B30507  10.636   5.122  19.107 -0.1383 -0.0354 -0.1017
24152DOPS   D2B30508  10.284   5.356  19.422  0.1742 -0.3580 -0.3990
24152DOPS   C3B30509  10.296   5.329  19.880 -0.1113 -0.1136 -0.2897
24152DOPS   C4B30510  10.161   5.403  20.399  0.0557  0.0423 -0.2677
24153DOPS   CNO30511  17.218   0.281  11.388  0.2871  0.0173  0.0008
24153DOPS   PO430512  17.365   0.387  11.712  0.0914  0.0195 -0.0536
24153DOPS   GL130513  17.641   0.252  11.955 -0.1675  0.0238  0.0248
24153DOPS   GL230514  17.464   0.212  12.163 -0.0980  0.3432  0.2123
24153DOPS   C1A30515  17.992   0.110  12.120 -0.1264  0.0613  0.1482
24153DOPS   D2A30516  18.408   0.297  12.324 -0.0400 -0.0894 -0.0942
24153DOPS   C3A30517  18.644   0.053  12.693 -0.0116 -0.1674 -0.1835
24153DOPS   C4A30518  18.802  -0.182  13.104  0.1904  0.2571  0.1388
24153DOPS   C1B30519  17.571   0.354  12.545  0.0472  0.0803  0.5380
24153DOPS   D2B30520  17.599   0.709  12.843 -0.0617  0.1550  0.0870
24153DOPS   C3B30521  17.761   1.102  12.865 -0.1339 -0.2464 -0.1430
24153DOPS   C4B30522  17.994   1.453  12.957  0.1258 -0.0314  0.0469
24154DOPS   CNO30523  12.112   6.410  15.736 -0.2463 -0.0920 -0.0111
24154DOPS   PO430524  12.052   6.352  16.104 -0.2300 -0.0213 -0.1610
24154DOPS   GL130525  12.420   6.073  16.327  0.0566 -0.0103 -0.2211
24154DOPS   GL230526  12.572   6.259  16.126  0.0168 -0.2805 -0.0194
24154DOPS   C1A30527  12.698   5.899  16.567 -0.0257  0.1443 -0.2954
24154DOPS   D2A30528  13.088   5.967  16.872  0.2625 -0.0959  0.1357
24154DOPS   C3A30529  13.475   5.795  17.016 -0.1139 -0.1950 -0.3606
24154DOPS   C4A30530  13.662   5.602  17.458  0.0098  0.0469 -0.0666
24154DOPS   C1B30531  13.020   6.336  16.228  0.0853  0.3336 -0.1982
24154DOPS   D2B30532  13.430   6.342  16.569 -0.0751  0.1049  0.0006
24154DOPS   C3B30533  13.783   6.198  16.790 -0.2304 -0.1629  0.0919
24154DOPS   C4B30534  14.253   6.027  16.933  0.0935  0.0322 -0.0206
24155DOPS   CNO30535   2.969   6.467  12.889  0.0130  0.2306  0.1891
24155DOPS   PO430536   2.711   6.294  13.132 -0.3101 -0.0518 -0.1801
24155DOPS   GL130537   2.495   6.499  13.445  0.1170 -0.1316  0.0071
24155DOPS   GL230538   2.219   6.352  13.377 -0.2140  0.0202 -0.2048
24155DOPS   C1A30539   2.320   6.459  13.858  0.2770  0.0709 -0.0159
24155DOPS   D2A30540   2.173   6.373  14.310 -0.0699 -0.0101 -0.1198
24155DOPS   C3A30541   1.828   6.485  14.628 -0.2093 -0.3262 -0.1073
24155DOPS   C4A30542   1.549   6.363  14.987  0.1164 -0.1298  0.2087
24155DOPS   C1B30543   2.242   5.882  13.492 -0.1933  0.0515  0.1037
24155DOPS   D2B30544   2.170   5.493  13.797  0.2549  0.0360 -0.0683
24155DOPS   C3B30545   1.766   5.147  13.814 -0.0292 -0.1318  0.0435
24155DOPS   C4B30546   1.275   5.043  13.909 -0.3890  0.2630 -0.1091
24156DOPS   CNO30547   9.315   3.619  18.481  0.5685 -0.2002  0.0827
24156DOPS   PO430548   9.002   3.671  18.687  0.0201 -0.1101 -0.0201
24156DOPS   GL130549   8.937   3.468  19.110  0.0326  0.3965  0.3418
24156DOPS   GL230550   9.253   3.413  18.999  0.2565 -0.2112  0.0493
24156DOPS   C1A30551   9.121   3.598  19.524 -0.1830  0.2161  0.0909
24156DOPS   D2A30552   9.187   3.518  19.978 -0.2210  0.0697 -0.1613
24156DOPS   C3A30553   8.907   3.495  20.302  0.2173 -0.0447 -0.0449
24156DOPS   C4A30554   8.913   3.617  20.754  0.1548 -0.0346 -0.1126
24156DOPS   C1B30555   9.422   3.256  19.326  0.3503  0.2378 -0.0353
24156DOPS   D2B30556   9.429   3.123  19.783 -0.0257 -0.0806  0.0382
24156DOPS   C3B30557   9.257   3.072  20.229  0.1124  0.3550 -0.1897
24156DOPS   C4B30558   8.811   3.013  20.321  0.1177  0.0592  0.1364
24157DOPS   CNO30559   5.082   0.129  16.741 -0.0413 -0.1225 -0.1373
24157DOPS   PO430560   5.083   0.093  17.122 -0.0588 -0.0908  0.1798
24157DOPS   GL130561   4.730   0.095  17.358 -0.3308  0.0660 -0.0359
24157DOPS   GL230562   4.797   0.338  17.314  0.2186  0.0259  0.2518
24157DOPS   C1A30563   4.339   0.173  17.074 -0.0705 -0.3219  0.0698
24157DOPS   D2A30564   3.990   0.057  17.403  0.3529  0.1600 -0.1073
24157DOPS   C3A30565   3.594   0.176  17.505  0.3449  0.0773  0.1465
24157DOPS   C4A30566   3.136   0.037  17.599  0.0188  0.0594  0.4785
24157DOPS   C1B30567   4.483   0.674  17.231  0.0026 -0.0521 -0.1761
24157DOPS   D2B30568   4.075   1.008  17.173  0.2144 -0.0573 -0.1445
24157DOPS   C3B30569   3.677   1.312  17.223  0.0647  0.0354  0.0775
24157DOPS   C4B30570   3.232   1.601  17.066 -0.0196 -0.1395 -0.2795
24158DOPS   CNO30571   4.196   0.400  14.400  0.4268  0.0795  0.1723
24158DOPS   PO430572   4.036   0.281  14.734 -0.1381  0.2095  0.0147
24158DOPS   GL130573   3.639   0.345  14.902 -0.1522  0.0941 -0.1654
24158DOPS   GL230574   3.596   0.075  14.980  0.4855 -0.0915 -0.1170
24158DOPS   C1A30575   3.532   0.512  15.282 -0.1973  0.1385  0.0161
24158DOPS   D2A30576   3.295   0.563  15.706  0.1160 -0.0089 -0.0240
24158DOPS   C3A30577   3.044   0.805  16.061 -0.2616 -0.1837  0.3433
24158DOPS   C4A30578   2.767   1.200  16.113  0.1146 -0.1093  0.1860
24158DOPS   C1B30579   3.194   0.213  14.988  0.1021  0.1274  0.1319
24158DOPS   D2B30580   2.711   0.344  14.986 -0.0333 -0.1914 -0.0569
24158DOPS   C3B30581   2.580   0.601  15.297 -0.0009  0.3126  0.1408
24158DOPS   C4B30582   2.726   0.975  15.641  0.2071  0.0586 -0.1012
24159DOPS   CNO30583   9.864   6.112  18.537  0.2374  0.0563  0.1280
24159DOPS   PO430584   9.920   5.849  18.787  0.0042  0.0250  0.0678
24159DOPS   GL130585  10.087   5.671  19.094 -0.1816 -0.2786 -0.1426
24159DOPS   GL230586   9.913   5.460  19.178  0.0938 -0.0130 -0.1236
24159DOPS   C1A30587  10.277   5.852  19.465 -0.0225 -0.4601  0.1008
24159DOPS   D2A30588  10.558   6.174  19.699 -0.1247 -0.4864  0.5300
24159DOPS   C3A30589  10.794   6.208  20.062  0.0129 -0.2314 -0.0617
24159DOPS   C4A30590  11.280   6.144  20.183 -0.2242  0.2131  0.1753
24159DOPS   C1B30591   9.852   5.574  19.596  0.3511  0.0232  0.1691
24159DOPS   D2B30592   9.975   5.686  20.042  0.0939 -0.2255 -0.0699
24159DOPS   C3B30593  10.079   5.872  20.431  0.1317 -0.0517 -0.0894
24159DOPS   C4B30594  10.143   6.102  20.825 -0.0264  0.0036 -0.0278
24160DOPS   CNO30595   1.649   1.876  11.722  0.0258  0.1102  0.0021
24160DOPS   PO430596   1.532   2.213  11.692 -0.0292  0.3671 -0.0543
24160DOPS   GL130597   1.443   2.400  12.025 -0.1040 -0.1599  0.1044
24160DOPS   GL230598   1.401   2.610  11.950  0.0011  0.0964 -0.0858
24160DOPS   C1A30599   1.060   2.308  12.192  0.2682  0.2535 -0.0233
24160DOPS   D2A30600   0.937   2.263  12.702  0.0491  0.1652 -0.1246
24160DOPS   C3A30601   0.748   2.008  13.070  0.0636  0.1310 -0.1227
24160DOPS   C4A30602   0.423   1.741  13.292 -0.2446  0.0362 -0.0903
24160DOPS   C1B30603   1.167   2.802  12.278  0.1244  0.0710  0.0843
24160DOPS   D2B30604   0.996   2.809  12.731  0.2601 -0.0642  0.2917
24160DOPS   C3B30605   0.613   2.612  12.869  0.1813 -0.0528 -0.0316
24160DOPS   C4B30606   0.271   2.527  13.167  0.0843  0.0431  0.0238
24161DOPS   CNO30607   1.074   6.259  11.265  0.5705  0.2014  0.1739
24161DOPS   PO430608   1.038   6.000  11.520  0.1050  0.0881  0.0053
24161DOPS   GL130609   0.693   5.945  11.807 -0.0292 -0.2895  0.1395
24161DOPS   GL230610   0.524   6.100  11.700 -0.3093 -0.3424 -0.1798
24161DOPS   C1A30611   0.680   5.985  12.331  0.1955 -0.0413 -0.0319
24161DOPS   D2A30612   0.806   5.541  12.439 -0.0806 -0.0132 -0.0905
24161DOPS   C3A30613   0.602   5.240  12.752  0.2289 -0.1019  0.0709
24161DOPS   C4A30614   0.095   5.120  12.792  0.1309  0.3519 -0.1233
24161DOPS   C1B30615   0.440   6.418  12.052 -0.5993 -0.1432  0.4828
24161DOPS   D2B30616   0.649   6.550  12.450  0.0555 -0.1647  0.2873
24161DOPS   C3B30617   0.673   6.305  12.861  0.0972 -0.1740 -0.1911
24161DOPS   C4B30618   0.758   6.006  13.221 -0.1413  0.0916  0.0006
24162DOPS   CNO30619   8.096   5.160  18.239 -0.5214 -0.1058  0.1312
24162DOPS   PO430620   7.752   5.308  18.125 -0.0884 -0.0582 -0.3091
24162DOPS   GL130621   7.618   5.471  18.555 -0.2713 -0.1981 -0.0709
24162DOPS   GL230622   7.722   5.242  18.625 -0.2213  0.0260 -0.0834
24162DOPS   C1A30623   7.364   5.634  18.856  0.0322  0.1511  0.3577
24162DOPS   D2A30624   6.920   5.829  19.011 -0.3643  0.0793  0.0433
24162DOPS   C3A30625   6.850   5.728  19.498 -0.0164 -0.4578  0.1437
24162DOPS   C4A30626   6.769   5.511  19.931  0.0012  0.0269  0.2099
24162DOPS   C1B30627   7.572   5.152  19.017  0.1510  0.0504  0.4184
24162DOPS   D2B30628   7.543   5.235  19.522 -0.0727 -0.1165  0.0945
24162DOPS   C3B30629   7.243   5.224  19.902 -0.0790  0.4554  0.0626
24162DOPS   C4B30630   6.916   5.135  20.254  0.3555 -0.1148  0.0539
24163DOPS   CNO30631  23.644   3.383  10.157 -0.0466  0.1902  0.2853
24163DOPS   PO430632  23.450   3.721  10.157  0.2860  0.1394 -0.0252
24163DOPS   GL130633  23.295   3.776  10.574  0.0435  0.1332 -0.0826
24163DOPS   GL230634  23.391   3.534  10.666 -0.1577 -0.2087 -0.2091
24163DOPS   C1A30635  23.333   4.155  10.790  0.0294  0.1856 -0.1198
24163DOPS   D2A30636  23.086   4.473  11.174 -0.1004 -0.1978 -0.1721
24163DOPS   C3A30637  22.729   4.825  11.126  0.0550 -0.1052  0.0127
24163DOPS   C4A30638  22.392   5.172  11.219 -0.1303 -0.6653  0.1464
24163DOPS   C1B30639  23.490   3.663  11.002 -0.0706  0.1891  0.2228
24163DOPS   D2B30640  23.633   3.882  11.426 -0.0651 -0.0448  0.0471
24163DOPS   C3B30641  23.380   3.719  11.834 -0.1203  0.3495 -0.0044
24163DOPS   C4B30642  23.155   3.567  12.238  0.2723  0.1182 -0.0050
24164DOPS   CNO30643   3.174   3.798  13.156 -0.1833  0.0232 -0.1054
24164DOPS   PO430644   3.118   3.913  13.510  0.2559  0.0068  0.2046
24164DOPS   GL130645   2.980   3.769  13.879 -0.4241  0.0115  0.2945
24164DOPS   GL230646   2.658   3.667  13.769  0.1713  0.4305 -0.2652
24164DOPS   C1A30647   2.806   3.655  14.301 -0.1844  0.2169 -0.0451
24164DOPS   D2A30648   2.456   3.560  14.689  0.1247  0.2827 -0.2455
24164DOPS   C3A30649   2.017   3.640  14.760  0.0178  0.1181 -0.1886
24164DOPS   C4A30650   1.649   3.354  14.719 -0.0131  0.0271 -0.1525
24164DOPS   C1B30651   2.334   3.550  14.100 -0.0838  0.0528  0.1549
24164DOPS   D2B30652   1.903   3.471  14.336 -0.2362 -0.0446  0.2071
24164DOPS   C3B30653   1.429   3.672  14.310  0.0887 -0.1337  0.3019
24164DOPS   C4B30654   1.070   3.907  14.121  0.0160  0.1429 -0.1752
24165DOPS   CNO30655   9.647   6.367  18.911  0.2277  0.0532 -0.1795
24165DOPS   PO430656   9.341   6.270  19.099 -0.1352 -0.3404  0.0818
24165DOPS   GL130657   9.303   6.348  19.457  0.0006 -0.0120  0.1104
24165DOPS   GL230658   9.072   6.322  19.492 -0.1780 -0.0286  0.2251
24165DOPS   C1A30659   9.421   6.586  19.782 -0.2558 -0.4533 -0.0150
24165DOPS   D2A30660   9.821   6.753  20.049 -0.3257 -0.2012  0.1679
24165DOPS   C3A30661   9.789   6.431  20.353 -0.0353 -0.1969  0.1334
24165DOPS   C4A30662   9.666   6.101  20.706 -0.1632  0.1158  0.1408
24165DOPS   C1B30663   9.136   6.167  19.928 -0.1496 -0.1349 -0.1665
24165DOPS   D2B30664   9.228   6.369  20.407  0.2040  0.1314  0.4219
24165DOPS   C3B30665   9.459   6.593  20.707 -0.0298  0.0318 -0.2403
24165DOPS   C4B30666   9.741   6.906  21.049  0.1988 -0.1191 -0.1782
24166DOPS   CNO30667  12.276   1.771  16.065 -0.0045  0.1249  0.1671
24166DOPS   PO430668  12.444   2.120  16.082 -0.0846 -0.3259 -0.1838
24166DOPS   GL130669  12.620   2.036  16.508  0.0386  0.1066 -0.0591
24166DOPS   GL230670  12.694   2.351  16.467 -0.2898  0.1972  0.3255
24166DOPS   C1A30671  12.945   1.825  16.740  0.0106  0.0542  0.0324
24166DOPS   D2A30672  13.146   1.646  17.089  0.4047 -0.1328  0.1420
24166DOPS   C3A30673  13.130   1.546  17.549  0.0741  0.0263 -0.0415
24166DOPS   C4A30674  13.148   1.478  18.044  0.0061 -0.2888  0.1904
24166DOPS   C1B30675  13.008   2.613  16.272 -0.0838 -0.2776  0.0205
24166DOPS   D2B30676  13.315   2.948  16.222  0.1185  0.0295  0.0243
24166DOPS   C3B30677  13.692   2.972  16.494 -0.1517  0.0648  0.0012
24166DOPS   C4B30678  13.854   2.763  16.949 -0.1177  0.2628 -0.5613
24167DOPS   CNO30679  14.396   7.188  13.401 -0.1372 -0.1293 -0.0462
24167DOPS   PO430680  14.474   6.890  13.618 -0.1266 -0.2894  0.1531
24167DOPS   GL130681  14.618   6.893  14.086  0.0700  0.3483  0.0590
24167DOPS   GL230682  14.748   7.149  14.090 -0.0474 -0.1357  0.1426
24167DOPS   C1A30683  14.542   6.731  14.508 -0.0963  0.1277  0.1826
24167DOPS   D2A30684  14.728   6.524  14.930 -0.0779 -0.0183  0.5418
24167DOPS   C3A30685  15.129   6.529  15.188 -0.1813  0.2278  0.0237
24167DOPS   C4A30686  15.462   6.507  15.551  0.0363 -0.2882  0.3250
24167DOPS   C1B30687  15.272   7.212  14.137  0.0186 -0.1564 -0.0652
24167DOPS   D2B30688  15.742   7.386  14.121 -0.3480  0.1727  0.3765
24167DOPS   C3B30689  16.125   7.612  14.361  0.2169  0.1614 -0.0005
24167DOPS   C4B30690  16.485   7.771  14.680  0.0702 -0.1496 -0.2416
24168DOPS   CNO30691  15.066   3.219  12.356  0.1768 -0.1070  0.0283
24168DOPS   PO430692  15.093   3.043  12.702  0.2654  0.0111 -0.1430
24168DOPS   GL130693  15.503   2.842  12.648  0.3415 -0.3479  0.1524
24168DOPS   GL230694  15.538   2.993  12.411  0.1298  0.4513 -0.0694
24168DOPS   C1A30695  15.695   2.539  12.908 -0.1047 -0.2924 -0.1155
24168DOPS   D2A30696  15.603   2.299  13.327  0.0151 -0.2102  0.0806
24168DOPS   C3A30697  15.854   2.374  13.743 -0.0265 -0.2266  0.0413
24168DOPS   C4A30698  16.355   2.392  13.787 -0.1167 -0.2243 -0.1645
24168DOPS   C1B30699  15.867   3.153  12.518 -0.2581 -0.0614 -0.1132
24168DOPS   D2B30700  16.244   3.417  12.388 -0.4843  0.0422  0.0433
24168DOPS   C3B30701  16.688   3.500  12.403 -0.1705 -0.1829 -0.0719
24168DOPS   C4B30702  17.080   3.353  12.557 -0.0219  0.2038 -0.0402
24169DOPS   CNO30703   5.243   6.743  16.620  0.0708 -0.0894 -0.3924
24169DOPS   PO430704   4.991   6.810  16.917  0.0181  0.0638 -0.1676
24169DOPS   GL130705   4.582   6.827  17.019  0.0712 -0.0361  0.1536
24169DOPS   GL230706   4.615   7.122  17.025 -0.0272  0.0985  0.0506
24169DOPS   C1A30707   4.170   7.032  17.005  0.1706 -0.1265 -0.0680
24169DOPS   D2A30708   3.832   7.493  17.120  0.2780  0.0067 -0.0995
24169DOPS   C3A30709   3.582   7.098  17.269  0.0158  0.0381  0.1067
24169DOPS   C4A30710   3.134   7.092  17.551  0.0573  0.1052 -0.2279
24169DOPS   C1B30711   4.552   7.079  17.454  0.0857  0.0098 -0.0491
24169DOPS   D2B30712   4.335   7.083  17.929 -0.0136  0.1490  0.4294
24169DOPS   C3B30713   4.172   7.385  18.198  0.0016  0.0067 -0.0144
24169DOPS   C4B30714   3.797   7.593  18.425 -0.0312  0.1369 -0.1092
24170DOPS   CNO30715   6.006   4.068  17.410  0.1568  0.1613  0.0331
24170DOPS   PO430716   5.683   4.147  17.314  0.1191 -0.1403  0.2075
24170DOPS   GL130717   5.303   4.293  17.488  0.0328 -0.2164 -0.0770
24170DOPS   GL230718   5.267   4.332  17.261  0.0108 -0.4242  0.0619
24170DOPS   C1A30719   4.951   4.093  17.764 -0.0618  0.2613 -0.0222
24170DOPS   D2A30720   4.508   4.323  17.884 -0.2960  0.2531 -0.1244
24170DOPS   C3A30721   4.084   4.334  18.060  0.3656  0.3377  0.3300
24170DOPS   C4A30722   3.628   4.180  18.180  0.0681 -0.0511  0.1638
24170DOPS   C1B30723   4.847   4.186  17.248  0.1117 -0.0078 -0.1544
24170DOPS   D2B30724   4.477   3.926  17.478  0.0298 -0.0612 -0.0457
24170DOPS   C3B30725   4.209   3.869  17.832  0.0127 -0.1403 -0.2576
24170DOPS   C4B30726   4.216   3.890  18.302 -0.1091 -0.0014 -0.0047
24171DOPS   CNO30727   1.051   2.448  11.634  0.1383 -0.1279 -0.2147
24171DOPS   PO430728   0.679   2.481  11.593 -0.0887  0.0835 -0.2209
24171DOPS   GL130729   0.278   2.448  11.868 -0.1015  0.0794  0.0892
24171DOPS   GL230730   0.415   2.664  11.978  0.0974 -0.1407 -0.1420
24171DOPS   C1A30731   0.090   2.241  12.156  0.2325 -0.3441  0.2890
24171DOPS   D2A30732  -0.256   2.140  12.522 -0.2202 -0.1350  0.1575
24171DOPS   C3A30733  -0.108   1.804  12.838 -0.1120 -0.4490 -0.2956
24171DOPS   C4A30734   0.015   1.426  13.177  0.0438 -0.0524 -0.1150
24171DOPS   C1B30735   0.211   3.089  12.123  0.2953 -0.1936  0.2280
24171DOPS   D2B30736  -0.070   3.344  12.421  0.0008 -0.1339 -0.0376
24171DOPS   C3B30737  -0.433   3.367  12.722  0.2613 -0.0825 -0.2194
24171DOPS   C4B30738  -0.799   3.334  13.058  0.3462  0.0485 -0.1327
24172DOPS   CNO30739   6.486   0.038  17.747  0.1970  0.0962  0.2732
24172DOPS   PO430740   6.142  -0.080  17.812  0.0044 -0.2345 -0.1452
24172DOPS   GL130741   5.975  -0.105  18.107  0.2073  0.0697 -0.0598
24172DOPS   GL230742   6.118  -0.155  18.333  0.1223  0.2116  0.2095
24172DOPS   C1A30743   5.585  -0.199  18.346 -0.4195  0.0412  0.2541
24172DOPS   D2A30744   5.129  -0.392  18.524 -0.2100  0.0533  0.0690
24172DOPS   C3A30745   4.746  -0.685  18.763  0.0358  0.2364  0.1235
24172DOPS   C4A30746   4.272  -0.843  18.881  0.1246 -0.0677  0.1006
24172DOPS   C1B30747   6.101   0.032  18.732 -0.1144  0.0222  0.3060
24172DOPS   D2B30748   5.877  -0.138  19.167  0.1938  0.1530 -0.1607
24172DOPS   C3B30749   6.090  -0.321  19.521 -0.2723  0.1302  0.3236
24172DOPS   C4B30750   6.461  -0.478  19.799 -0.2376  0.1052  0.4062
24173DOPS   CNO30751  22.303   2.479  10.412  0.1781  0.2229  0.1612
24173DOPS   PO430752  22.643   2.580  10.476 -0.0233  0.2217  0.0068
24173DOPS   GL130753  22.728   2.826  10.835  0.1801  0.0882 -0.3063
24173DOPS   GL230754  22.547   3.073  10.755 -0.0620  0.1255 -0.0068
24173DOPS   C1A30755  22.944   2.636  11.207 -0.0088 -0.0937 -0.1827
24173DOPS   D2A30756  23.192   2.323  11.448  0.1625  0.0725 -0.0443
24173DOPS   C3A30757  23.272   2.082  11.853 -0.1562  0.2628  0.0453
24173DOPS   C4A30758  23.494   2.051  12.297 -0.1665 -0.1654  0.1217
24173DOPS   C1B30759  22.292   3.237  11.063 -0.1900  0.1766  0.0973
24173DOPS   D2B30760  21.909   3.215  11.338  0.4377 -0.1016 -0.1528
24173DOPS   C3B30761  22.030   3.252  11.819  0.1706  0.3123 -0.2224
24173DOPS   C4B30762  21.872   3.612  12.154 -0.5232  0.0121 -0.0619
24174DOPS   CNO30763   4.389   7.500  15.096 -0.1833 -0.0506 -0.1063
24174DOPS   PO430764   4.200   7.483  15.408 -0.2449 -0.2378 -0.2441
24174DOPS   GL130765   3.796   7.573  15.414  0.2846 -0.0478  0.1690
24174DOPS   GL230766   3.979   7.715  15.674  0.1116  0.3908  0.0003
24174DOPS   C1A30767   3.425   7.660  15.461  0.0799 -0.1872  0.0114
24174DOPS   D2A30768   3.069   8.056  15.441  0.0876  0.0911 -0.4971
24174DOPS   C3A30769   2.791   8.274  15.756 -0.0549 -0.1951  0.1332
24174DOPS   C4A30770   2.572   8.458  16.181  0.0578  0.1977  0.1070
24174DOPS   C1B30771   3.629   7.891  15.856  0.0517  0.1425  0.1240
24174DOPS   D2B30772   3.305   8.132  16.168 -0.1000  0.3822 -0.1025
24174DOPS   C3B30773   2.939   8.323  16.432 -0.2940  0.2654 -0.0564
24174DOPS   C4B30774   2.711   8.686  16.598  0.1971 -0.1679 -0.0925
24175W        W30775  16.466   1.631  25.627  0.1970 -0.0700 -0.0515
24176W        W30776  14.238   1.825  32.497  0.0106 -0.2345  0.4730
24177W        W30777   0.438   7.760   9.666 -0.0635 -0.2138 -0.3020
24178W        W30778  16.726   7.680  30.037 -0.1374 -0.0601 -0.3670
24179W        W30779  23.936   4.907  31.096  0.2243  0.0991  0.0203
24180W        W30780  17.267   5.624   6.792  0.1118 -0.3595 -0.2789
24181W        W30781  18.270   6.358   5.167  0.3207  0.2685 -0.3789
24182W        W30782   4.657   3.474  22.066  0.2160  0.1018  0.1488
24183W        W30783  21.676   0.726  18.019  0.1634  0.1405  0.0874
24184W        W30784   3.204   1.238  14.288  0.1518  0.0473 -0.0866
24185W        W30785   9.687   5.142   9.010  0.0478  0.1630 -0.0668
24186W        W30786  15.805   2.575   0.828  0.0280 -0.1564  0.0754
24187W        W30787  16.687   6.013  28.297  0.0892  0.1434 -0.0414
24188W        W30788   4.036   5.157  22.350 -0.0900  0.0633  0.0563
24189W        W30789   2.487   3.267   6.881 -0.1111 -0.3048 -0.2132
24190W        W30790   6.529   6.763   0.703 -0.2162  0.0787  0.1021
24191W        W30791  17.466   3.840  25.359 -0.1043  0.3216 -0.3675
24192W        W30792  17.225   3.460   9.219 -0.0650 -0.0030  0.2970
24193W        W30793  18.507   4.587  20.731 -0.1419 -0.1874 -0.3406
24194W        W30794  20.027   2.415   3.291  0.0318  0.0278 -0.2024
24195W        W30795   5.635   4.200   6.930 -0.0888  0.0276  0.3052
24196W        W30796  21.549   2.888  25.384 -0.0963  0.1285 -0.3917
24197W        W30797  21.599   0.700   6.687  0.1009  0.3064  0.0791
24198W        W30798  15.896   7.708  30.697  0.3667 -0.2521  0.5584
24199W        W30799   0.508   3.784  24.829 -0.1448  0.0087 -0.1801
24200W        W30800   9.533   2.952   0.781 -0.1086 -0.0849  0.0623
24201W        W30801  22.333   2.703  24.327  0.0755  0.1256 -0.2069
24202W        W30802   5.776   3.098  18.173 -0.0322  0.0336  0.1635
24203W        W30803   6.584   1.442  15.328 -0.1250  0.3357 -0.1427
24204W        W30804   4.521   2.072  13.478  0.0093 -0.1501 -0.1178
24205W        W30805   9.745   4.927  23.182  0.1279 -0.0868 -0.1644
24206W        W30806   1.628   7.090   2.373  0.2590 -0.3594 -0.0765
24207W        W30807   9.013   4.427  31.649  0.0238 -0.0344 -0.3110
24208W        W30808  12.460   7.787  24.089 -0.0024  0.1665 -0.1837
24209W        W30809  17.719   5.794   4.635  0.2609  0.1004  0.0342
24210W        W30810  16.289   6.086   6.796 -0.0297 -0.0863  0.1066
24211W        W30811  23.870   4.306  31.825  0.0331 -0.0796 -0.0413
24212W        W30812  10.956   7.703   9.153  0.3256 -0.2367  0.1365
24213W        W30813  19.421   1.881  29.569 -0.1369  0.1205  0.0648
24214W        W30814   2.808   2.623  28.552 -0.1198 -0.0281 -0.0045
24215W        W30815  10.735   1.021   5.046 -0.2737 -0.1274 -0.0378
24216W        W30816   1.382   7.567  31.827 -0.1139 -0.1161  0.4202
24217W        W30817  11.402   5.569   8.586  0.1528 -0.2771  0.3053
24218W        W30818   8.087   2.755   9.702  0.0206  0.0745  0.0879
24219W        W30819  22.460   4.408  21.101 -0.0712  0.1132 -0.1943
24220W        W30820  23.013   2.645   1.329  0.2237 -0.0047 -0.0432
24221W        W30821  11.799   0.722  26.279 -0.0719 -0.1028 -0.4012
24222W        W30822   7.811   7.506   1.320 -0.4394 -0.1390  0.1618
24223W        W30823   9.021   2.910   0.033  0.2368  0.0422  0.4174
24224W        W30824  10.579   1.214   4.620  0.1125  0.1627 -0.0916
24225W        W30825  22.821   1.655   5.569 -0.1374  0.1909 -0.0120
24226W        W30826  15.974   5.963  21.821  0.2120 -0.1132 -0.1080
24227W        W30827  23.695   5.061   3.031  0.3471  0.2162  0.0117
24228W        W30828  22.703   5.365   4.061 -0.2024 -0.0387 -0.0758
24229W        W30829  14.239   0.300   2.092  0.1017  0.2155 -0.2688
24230W        W30830   1.355   6.118   2.823 -0.0028 -0.0472  0.1646
24231W        W30831  18.045   3.933  28.811  0.0959  0.0311  0.2619
24232W        W30832   7.065   4.334  32.695  0.0695  0.0141  0.0585
24233W        W30833   4.718   6.735  11.762  0.2017 -0.4148 -0.1009
24234W        W30834  24.617   7.705   4.731  0.1333  0.1298  0.2316
24235W        W30835  17.340   7.186  16.363 -0.0851 -0.0464 -0.2094
24236W        W30836  19.412   1.502  29.960  0.0835  0.0307 -0.3379
24237W        W30837   6.938   0.689  27.232  0.1626 -0.1692  0.2112
24238W        W30838  12.197   4.449  29.254  0.2678  0.1180 -0.0537
24239W        W30839  10.210   3.459  25.964 -0.0614 -0.0850  0.0962
24240W        W30840   4.131   7.765  30.396 -0.0232 -0.1563 -0.1710
24241W        W30841  21.607   3.423  15.217  0.0721 -0.3169 -0.3098
24242W        W30842   1.844   6.452   9.629  0.3625 -0.0490  0.0224
24243W        W30843   7.491   4.750  12.068  0.0025  0.3410  0.3669
24244W        W30844  23.504   0.931  21.065  0.0223  0.0155 -0.0658
24245W        W30845  10.548   5.878   3.464 -0.0248  0.1945 -0.0200
24246W        W30846  15.453   0.715   8.810 -0.1573  0.1022 -0.4617
24247W        W30847  10.108   2.361  12.904 -0.1001  0.2577  0.0281
24248W        W30848   5.639   2.602  10.239  0.0372 -0.1419  0.1408
24249W        W30849   6.540   5.360   2.328  0.0557  0.1033  0.0136
24250W        W30850  18.438   6.834  27.836  0.1938  0.0263 -0.0574
24251W        W30851   3.337   1.237   3.788  0.1377  0.0563 -0.2636
24252W        W30852  11.671   4.461   3.267 -0.1328  0.1210 -0.0616
24253W        W30853  23.797   5.879   1.109 -0.1400 -0.1896  0.1649
24254W        W30854  24.478   5.501  29.056 -0.2855  0.1959 -0.2351
24255W        W30855  12.598   2.178  13.359 -0.3228 -0.1610  0.2873
24256W        W30856  13.178   2.635   1.942  0.1453  0.1394  0.1858
24257W        W30857  16.372   1.809  22.619 -0.1388 -0.2575 -0.1326
24258W        W30858  19.333   4.398   8.902 -0.0512 -0.1832  0.3098
24259W        W30859  12.799   1.762  13.806  0.1575  0.0083  0.2329
24260W        W30860  21.105   6.942  24.431 -0.0467 -0.1505  0.0069
24261W        W30861   9.608   1.557  15.334  0.2366  0.0225 -0.0636
24262W        W30862  14.135   0.419  12.310 -0.1174 -0.1087  0.0897
24263W        W30863   6.501   2.522  28.533 -0.0233  0.0087 -0.1143
24264W        W30864  15.213   1.800  22.799 -0.1518  0.0805 -0.1552
24265W        W30865  16.941   2.077  10.997 -0.0251  0.0517 -0.3216
24266W        W30866  16.395   7.305  32.017 -0.0824  0.3423  0.1922
24267W        W30867  20.509   0.986   4.995 -0.1247 -0.1792  0.1850
24268W        W30868  11.203   1.540  31.125  0.0953 -0.1177  0.3767
24269W        W30869   0.666   2.748  20.009 -0.0551 -0.1608 -0.0125
24270W        W30870  12.327   5.361   5.730 -0.0646 -0.1437  0.4668
24271W        W30871  11.018   2.720  24.471  0.2249  0.1452  0.0632
24272W        W30872   4.104   0.458  13.543  0.0876 -0.0963  0.2005
24273W        W30873  11.184   6.891  13.310 -0.1419 -0.0332  0.0628
24274W        W30874   4.819   3.115  28.596 -0.2639 -0.2797  0.2698
24275W        W30875  13.541   3.311  31.700  0.0935 -0.0189  0.0124
24276W        W30876  11.916   2.825   0.576 -0.1270 -0.3263 -0.0922
24277W        W30877  19.574   5.728  28.991  0.1232  0.1331 -0.0893
24278W        W30878   1.194   7.310   3.358  0.0384  0.2114  0.1993
24279W        W30879   7.287   2.926  26.436 -0.0245 -0.0437  0.0262
24280W        W30880  22.381   4.010  21.408  0.1869  0.0374  0.0450
24281W        W30881   1.855   4.083  10.561  0.1421  0.2811 -0.1798
24282W        W30882  15.702   1.705  22.068 -0.4550  0.0629 -0.1708
24283W        W30883   9.775   4.993   8.141 -0.1370 -0.2357  0.2104
24284W        W30884  23.924   7.519   9.276  0.1177  0.1230  0.1485
24285W        W30885  12.758   3.110  10.791  0.0198  0.4411 -0.0593
24286W        W30886  18.623   5.062  15.739 -0.0736 -0.2205 -0.1041
24287W        W30887   0.967   2.748  24.804  0.0336  0.2535 -0.1387
24288W        W30888   3.002   3.784   0.504  0.3996  0.0052  0.1291
24289W        W30889  21.861   5.065   0.983 -0.3887 -0.2645  0.0246
24290W        W30890  16.910   0.676  30.480  0.0677 -0.0523 -0.2786
24291W        W30891   8.735   5.641  24.504  0.1531 -0.1067 -0.1408
24292W        W30892   7.214   1.964  10.510  0.1830  0.2281 -0.2802
24293W        W30893  12.359   7.780   3.129  0.3403 -0.0525 -0.3944
24294W        W30894   3.443   2.245   3.901  0.0397 -0.0493 -0.1610
24295W        W30895  17.908   4.096   3.328  0.1794  0.2413 -0.1778
24296W        W30896   1.225   3.781   5.799  0.2858 -0.0863 -0.1165
24297W        W30897   5.701   1.583  14.708 -0.1123  0.0814 -0.2178
24298W        W30898   6.664   5.811  16.387 -0.1711  0.1585  0.0889
24299W        W30899   8.612   6.768  28.501  0.1298 -0.1217 -0.0908
24300W        W30900  16.233   6.407  21.727 -0.3079  0.0256  0.1629
24301W        W30901  16.674   4.369  10.768  0.2678  0.0384  0.0410
24302W        W30902   6.132   1.171   1.003  0.0064 -0.0504  0.0312
24303W        W30903  14.230   6.110  22.665  0.1840 -0.0131  0.0952
24304W        W30904  20.993   7.041  15.184  0.3911  0.3469  0.0723
24305W        W30905  21.339   7.338  21.350  0.0022 -0.1293  0.2721
24306W        W30906  11.894   3.287  10.015  0.3030 -0.1765 -0.2310
24307W        W30907  23.082   2.902  25.610 -0.0304  0.2544 -0.1388
24308W        W30908  15.377   2.768   2.040  0.2363 -0.3715 -0.2590
24309W        W30909   2.918   1.081  24.712 -0.1651 -0.4155  0.1457
24310W        W30910  20.926   3.667   4.542 -0.2256 -0.0238  0.0733
24311W        W30911  22.574   5.245  20.636 -0.1658  0.1499  0.0608
24312W        W30912   5.682   3.257   3.185 -0.0809  0.1283  0.3985
24313W        W30913  13.111   7.072   3.868  0.2055 -0.1645 -0.1123
24314W        W30914   4.718   4.288   0.232  0.2334 -0.2751  0.0492
24315W        W30915  22.699   0.375  28.810 -0.1545 -0.0902  0.0655
24316W        W30916  19.649   3.646   2.902 -0.1394 -0.1102  0.1336
24317W        W30917   6.848   7.240  13.980 -0.1414 -0.2126  0.1026
24318W        W30918  21.864   2.335   6.965  0.0892 -0.0260 -0.1323
24319W        W30919  11.604   0.766  24.289 -0.0283 -0.0646  0.1878
24320W        W30920   6.760   0.118  27.435 -0.2139  0.0791 -0.0519
24321W        W30921  18.288   7.427  29.145 -0.0282 -0.0465  0.2003
24322W        W30922   7.428   1.826  15.236  0.0527 -0.1908 -0.0878
24323W        W30923  20.153   0.255   1.816  0.1448  0.2020 -0.1992
24324W        W30924   5.067   1.745  11.983 -0.0883  0.0479 -0.1198
24325W        W30925  21.039   2.279  24.974  0.0767 -0.3487  0.3446
24326W        W30926   7.170   6.729  23.189  0.0648  0.0966  0.0799
24327W        W30927   5.913   3.664  15.024  0.0578 -0.0776  0.0504
24328W        W30928  21.981   3.214  17.998 -0.0502  0.0581  0.2939
24329W        W30929  22.920   5.371  24.024 -0.0638  0.1857 -0.0406
24330W        W30930  23.135   5.766  22.289  0.1421  0.1551  0.3399
24331W        W30931  13.458   6.862  10.676  0.3651  0.0824  0.0638
24332W        W30932  14.148   6.729   0.325 -0.2353  0.0563  0.1494
24333W        W30933  24.082   1.360   2.391  0.0579  0.1120  0.0107
24334W        W30934   5.662   1.387  27.742  0.0329  0.0427 -0.2633
24335W        W30935  20.835   2.402  20.956 -0.2305 -0.1335 -0.2817
24336W        W30936  13.356   2.054  30.086  0.0877 -0.2526  0.1168
24337W        W30937   2.002   7.678  20.273 -0.2642 -0.0614 -0.2487
24338W        W30938  15.075   1.901  32.686  0.4558 -0.3497  0.1246
24339W        W30939  15.100   3.620   4.327  0.3907 -0.0272 -0.4127
24340W        W30940  22.308   2.809   5.180  0.0169 -0.0773  0.1430
24341W        W30941  12.423   5.911  32.452 -0.3789 -0.0050  0.1442
24342W        W30942  17.638   1.895   6.562 -0.0300  0.2721  0.2013
24343W        W30943  13.492   2.226   7.379  0.2918 -0.0937 -0.1363
24344W        W30944  14.610   0.622  31.512 -0.2696 -0.1427  0.3261
24345W        W30945   5.890   0.666  31.784 -0.1466  0.0393  0.0638
24346W        W30946   2.705   6.842  21.176  0.0384  0.3136  0.1964
24347W        W30947  23.467   4.936   5.595 -0.0054 -0.0796  0.1537
24348W        W30948  18.432   2.303  22.700  0.1687  0.0337 -0.1379
24349W        W30949  23.861   6.552   3.719  0.0707  0.0950 -0.0092
24350W        W30950  19.690   5.594  20.139  0.0423  0.1048 -0.1569
24351W        W30951   0.038   3.890  25.273  0.1452  0.0207 -0.2583
24352W        W30952  14.292   0.833   6.388 -0.0915  0.1603 -0.3920
24353W        W30953  20.959   7.756   8.944 -0.1368  0.0413  0.1283
24354W        W30954  13.536   7.165   1.988  0.1777  0.1638  0.3282
24355W        W30955  16.881   1.782  31.895 -0.1735  0.3741 -0.0068
24356W        W30956   8.854   5.806   3.361  0.2213  0.2670  0.1567
24357W        W30957   3.837   5.597  22.261  0.1982 -0.3055 -0.1658
24358W        W30958   8.294   4.374  13.424  0.1267 -0.3470  0.0296
24359W        W30959   2.486   7.782  27.388  0.2167  0.0868  0.0832
24360W        W30960  24.557   1.607   8.453 -0.1235 -0.0111 -0.0973
24361W        W30961  21.606   1.736   2.672 -0.0123  0.0853 -0.1140
24362W        W30962  11.568   1.031  28.720 -0.1327  0.2425 -0.0384
24363W        W30963  20.017   5.542   2.928 -0.1769  0.0483 -0.0356
24364W        W30964  18.104   1.132  30.978 -0.0951 -0.0701  0.0585
24365W        W30965   8.288   3.410   0.975 -0.0098 -0.1661 -0.1068
24366W        W30966  20.568   1.923   6.736  0.1420 -0.1944  0.1596
24367W        W30967   0.416   4.853   9.662 -0.0866  0.0033 -0.0009
24368W        W30968  22.577   7.271   3.962 -0.1392 -0.1471  0.1118
24369W        W30969  11.464   4.794   1.982 -0.1991 -0.4086  0.1789
24370W        W30970  24.196   2.323  29.988 -0.0084  0.3132  0.2539
24371W        W30971   6.113   3.701  12.066  0.0179 -0.2412  0.0027
24372W        W30972  14.957   2.319  32.387  0.0341 -0.0099 -0.0655
24373W        W30973  20.129   1.349  13.796  0.1298 -0.0826  0.0936
24374W        W30974  23.179   1.429  31.575  0.0826 -0.0724 -0.1435
24375W        W30975   2.674   6.774   1.166  0.2512  0.0075  0.1472
24376W        W30976   4.978   3.146   0.920 -0.1347  0.1350 -0.4476
24377W        W30977  15.563   4.760   5.254 -0.2688 -0.0158  0.3051
24378W        W30978  24.345   0.521  30.117  0.0985 -0.1190  0.0323
24379W        W30979   1.979   6.804   3.210  0.2262 -0.4998 -0.0817
24380W        W30980   5.712   2.177   7.828 -0.0139 -0.2702 -0.0198
24381W        W30981  20.269   4.132   8.669 -0.1169 -0.3064 -0.0585
24382W        W30982  24.542   7.406   3.558  0.0947 -0.3091  0.4842
24383W        W30983   2.031   4.876  31.254  0.1466 -0.0402 -0.5219
24384W        W30984  16.679   6.833   6.696  0.4066 -0.3018  0.3517
24385W        W30985  20.045   0.871   6.801 -0.0315 -0.2542 -0.0516
24386W        W30986  11.120   5.795  27.475 -0.1778  0.1962  0.3422
24387W        W30987   5.678   3.589   9.321  0.2290 -0.0920 -0.0084
24388W        W30988   6.368   7.756   6.259  0.1143 -0.2360  0.1290
24389W        W30989   1.400   0.059  19.550  0.0167  0.0576 -0.0498
24390W        W30990  23.115   5.809  27.065  0.1528 -0.1397 -0.1609
24391W        W30991   5.606   2.242   9.311  0.1827 -0.3591  0.0924
24392W        W30992   5.680   6.564   0.176 -0.2428 -0.2150 -0.0794
24393W        W30993  17.643   5.756  26.248 -0.2606 -0.0771 -0.1656
24394W        W30994  22.385   7.116  16.746  0.0834 -0.1445 -0.0744
24395W        W30995  24.986   4.230  24.796  0.1170  0.0777  0.1847
24396W        W30996   5.007   0.333   8.318  0.3191  0.0986  0.1383
24397W        W30997  24.159   5.997  31.816 -0.1633  0.0806 -0.1591
24398W        W30998  20.834   0.435  28.198  0.0943 -0.1027 -0.1064
24399W        W30999  23.377   4.215  15.689  0.3249 -0.1190  0.2566
24400W        W31000  12.495   7.701  27.802 -0.1436 -0.1812  0.0362
24401W        W31001   2.816   5.820  13.312  0.4935  0.2751 -0.0498
24402W        W31002  18.291   0.316  16.828 -0.2950  0.3597 -0.0280
24403W        W31003  10.134   2.798  26.646 -0.1408  0.2556 -0.3221
24404W        W31004  24.443   3.553  28.728 -0.0999 -0.0289  0.1753
24405W        W31005   0.182   2.305  17.615  0.1790  0.1620 -0.0482
24406W        W31006   0.397   3.693   6.118 -0.1372 -0.0285  0.1626
24407W        W31007  12.528   2.025   7.773 -0.0021 -0.0756  0.1246
24408W        W31008   3.036   6.257  31.006  0.3109  0.2849  0.0485
24409W        W31009  21.575   1.677  29.556  0.1002  0.2559 -0.0369
24410W        W31010  22.898   7.671   3.752  0.1333  0.1967  0.1252
24411W        W31011   3.872   6.216  24.161  0.2897 -0.0003  0.1813
24412W        W31012  22.120   4.325   2.677 -0.2533  0.4198 -0.0296
24413W        W31013   5.349   1.947  12.947 -0.0351 -0.3993 -0.3242
24414W        W31014  16.491   7.473  29.661 -0.1438  0.2985 -0.0628
24415W        W31015   2.234   0.674  12.946 -0.1990  0.3143 -0.0765
24416W        W31016   3.721   3.475  12.656 -0.3226  0.1447  0.0513
24417W        W31017  19.278   2.553  18.457 -0.2913 -0.1330 -0.2393
24418W        W31018   5.309   1.785  30.310 -0.0562 -0.1959 -0.0087
24419W        W31019  23.218   0.653  14.612  0.0741 -0.1778 -0.1409
24420W        W31020  12.939   3.054  28.606  0.0465 -0.0428 -0.1588
24421W        W31021   4.446   4.612  30.248  0.2385  0.2574 -0.0098
24422W        W31022  20.339   2.552  19.280  0.1056 -0.1326  0.2080
24423W        W31023  23.059   5.361  25.010  0.2210  0.1793  0.0680
24424W        W31024   7.978   1.048  15.742  0.3062 -0.2181 -0.0641
24425W        W31025   6.423   3.978  32.037 -0.0850  0.1883 -0.0366
24426W        W31026   2.123   7.773  10.712  0.0559 -0.2747 -0.1821
24427W        W31027   2.008   3.473   8.060  0.0639 -0.0640  0.4210
24428W        W31028   4.371   1.599  25.903  0.0120  0.1140 -0.0340
24429W        W31029  18.806   6.697   7.227 -0.2195 -0.3049  0.0697
24430W        W31030  14.712   1.486  21.105 -0.0841  0.0007 -0.0729
24431W        W31031   7.981   0.421  26.214  0.0929 -0.0052 -0.2871
24432W        W31032  13.359   1.848  10.286  0.1040  0.1748  0.2325
24433W        W31033   8.595   5.235  28.150  0.0662  0.0552 -0.1378
24434W        W31034  23.110   7.451  26.406 -0.2553  0.0153 -0.1401
24435W        W31035  14.993   5.472  31.339  0.3793  0.0971 -0.0592
24436W        W31036  19.554   5.190  19.383  0.2226  0.2069  0.1017
24437W        W31037   0.812   3.264   3.866 -0.0673 -0.1677 -0.0846
24438W        W31038   4.306   6.872  12.219  0.1689 -0.0161 -0.2875
24439W        W31039  21.737   4.885   8.041  0.0386  0.0642  0.0981
24440W        W31040  23.047   6.994  22.526 -0.1636  0.0768 -0.1923
24441W        W31041  13.590   5.606  25.645 -0.2511 -0.1848 -0.1827
24442W        W31042  15.155   4.854  26.109 -0.0774 -0.3859 -0.0222
24443W        W31043  11.818   2.976   3.660 -0.1499 -0.1939 -0.0287
24444W        W31044  19.437   0.129   2.876  0.0297  0.1083 -0.1769
24445W        W31045   0.734   3.724   7.311 -0.0102  0.3016  0.2399
24446W        W31046   6.855   3.480  13.909  0.2136  0.0473  0.1683
24447W        W31047   6.433   2.013   4.897  0.0851  0.1518 -0.3422
24448W        W31048  10.838   3.303   5.145 -0.0323  0.0991 -0.1606
24449W        W31049  22.722   5.382  22.221 -0.1601 -0.1984  0.0905
24450W        W31050  21.037   5.662   8.274 -0.1954 -0.0068  0.0796
24451W        W31051  20.398   4.790  22.552  0.0955 -0.2990 -0.0684
24452W        W31052  16.847   5.300  24.758  0.1614  0.1251 -0.2738
24453W        W31053  23.969   0.507  28.623 -0.1976  0.1020  0.0689
24454W        W31054   4.414   5.476   1.983 -0.0937 -0.1663  0.3464
24455W        W31055  12.342   3.449  14.796 -0.4879 -0.2390  0.1407
24456W        W31056   0.701   0.090   2.814  0.1138 -0.0414 -0.2014
24457W        W31057  18.961   2.957   6.066 -0.0319 -0.0307  0.0980
24458W        W31058   8.441   1.410   1.778 -0.0803  0.1541  0.0141
24459W        W31059  15.171   3.344  19.992  0.1278  0.1183 -0.2519
24460W        W31060   5.903   3.110  28.696  0.2581  0.1612 -0.1976
24461W        W31061  19.600   4.589   3.249  0.0482  0.0070  0.0059
24462W        W31062  15.025   1.110  30.732 -0.0474 -0.0331 -0.1671
24463W        W31063  10.378   6.173   8.080 -0.2117  0.0008  0.0923
24464W        W31064   9.219   3.008  10.449  0.2232  0.0665  0.2419
24465W        W31065   0.468   2.545   5.323  0.0949  0.1078  0.2257
24466W        W31066   5.672   2.611   5.152  0.0459  0.1421 -0.1320
24467W        W31067   7.651   7.469   6.167  0.0672  0.0165  0.1105
24468W        W31068  18.057   6.947  23.953 -0.0058  0.1747 -0.1277
24469W        W31069   8.004   4.976  10.767 -0.1774 -0.0536 -0.3449
24470W        W31070  12.669   7.777   2.266 -0.3596  0.2521  0.0595
24471W        W31071  20.290   2.706  18.345 -0.0774 -0.1606  0.1083
24472W        W31072   6.556   6.123  10.495  0.0165  0.2165 -0.1331
24473W        W31073   8.897   1.082   1.032  0.1262 -0.1329  0.0889
24474W        W31074  15.698   3.695  28.533  0.0491  0.1755 -0.4088
24475W        W31075   1.753   1.738  27.389 -0.1158  0.0814  0.1334
24476W        W31076  22.438   2.672   8.084  0.3352  0.1606 -0.1451
24477W        W31077  17.948   1.639   6.215  0.0855  0.1373  0.0323
24478W        W31078   4.898   3.414  26.133  0.0015 -0.1914 -0.1013
24479W        W31079  10.742   4.363   7.734  0.1481 -0.0145  0.0002
24480W        W31080   2.526   4.925   6.769  0.0038 -0.2378 -0.1551
24481W        W31081   3.065   1.481  32.015  0.3050 -0.1275  0.0114
24482W        W31082  12.135   0.000  13.927 -0.5148  0.0295 -0.1591
24483W        W31083   7.947   2.257   9.870 -0.2567 -0.0074  0.0004
24484W        W31084  15.060   5.104   3.990 -0.1269 -0.1128 -0.2517
24485W        W31085  20.537   1.005   9.991 -0.2885 -0.0189 -0.1681
24486W        W31086   7.636   0.465  13.180  0.2723  0.2391 -0.1906
24487W        W31087   4.208   1.818  27.157 -0.2769  0.4622 -0.0250
24488W        W31088  24.303   1.382   6.450 -0.1619 -0.0423 -0.0679
24489W        W31089  23.690   4.318  28.562  0.0992  0.1139  0.1242
24490W        W31090  18.249   0.962   7.575  0.2150 -0.0439  0.1136
24491W        W31091   7.873   2.460   3.847  0.1369 -0.1398 -0.1010
24492W        W31092   3.291   7.448  12.721 -0.2891 -0.0980  0.1559
24493W        W31093  21.264   7.227   5.367  0.0264 -0.0491  0.2415
24494W        W31094  11.300   1.822  16.739  0.0627 -0.2257  0.2397
24495W        W31095  24.838   0.593   6.822 -0.0866 -0.2968 -0.2606
24496W        W31096  14.108   1.412   3.829 -0.0225 -0.0138 -0.2369
24497W        W31097  16.238   5.682  22.709 -0.2439 -0.2710 -0.2874
24498W        W31098   9.331   0.217   7.009  0.0925 -0.1124  0.0260
24499W        W31099   2.425   1.022  21.165  0.0321  0.0682  0.0016
24500W        W31100  20.208   5.748  31.105 -0.2199  0.1707 -0.0904
24501W        W31101  19.703   6.544  15.601 -0.0560 -0.1284  0.0788
24502W        W31102   9.667   2.708   6.492  0.1148  0.0760  0.0375
24503W        W31103  23.055   0.893   1.263 -0.0483  0.2334  0.0834
24504W        W31104   2.724   4.002   9.021  0.1561  0.2882  0.0526
24505W        W31105   9.428   7.621   0.099  0.2601 -0.0499 -0.1282
24506W        W31106  11.191   0.132  27.438  0.1355 -0.0531  0.2494
24507W        W31107  12.734   6.468   4.911  0.1222 -0.1483 -0.2581
24508W        W31108   3.477   5.814  26.230  0.2254  0.0847  0.2256
24509W        W31109  10.134   4.747  29.704  0.1658  0.0371 -0.0982
24510W        W31110   0.839   4.269  16.469 -0.3109 -0.3468  0.0377
24511W        W31111  19.592   5.783  24.728 -0.0553 -0.3114  0.1525
24512W        W31112   4.089   7.765   4.130  0.2010  0.1427 -0.0349
24513W        W31113  17.524   6.223  29.239 -0.0557  0.3012  0.0858
24514W        W31114  13.159   6.197  30.915 -0.2952  0.0034 -0.1335
24515W        W31115   7.860   1.725  10.351  0.0250  0.2613  0.1352
24516W        W31116   0.045   6.430   7.668  0.3599 -0.1884  0.3661
24517W        W31117  14.559   7.318  31.822  0.3316  0.1926 -0.0692
24518W        W31118  24.622   2.332  24.811 -0.4897 -0.2856  0.2318
24519W        W31119   4.235   7.561   9.750  0.0410  0.2421  0.0119
24520W        W31120  16.385   2.216  28.392  0.2624  0.0817  0.1840
24521W        W31121  16.847   7.654   5.294  0.1082 -0.0188  0.1727
24522W        W31122  17.409   7.477  18.376 -0.1935  0.0073 -0.0381
24523W        W31123  21.377   1.432  20.080  0.2498  0.0502  0.1774
24524W        W31124   7.840   3.215  26.060  0.2569  0.0586  0.1523
24525W        W31125   0.275   2.252  29.862 -0.1558 -0.0924  0.2466
24526W        W31126   2.983   2.211  28.706  0.0039  0.0004 -0.0784
24527W        W31127   9.175   1.594  28.983 -0.3112  0.2648  0.0851
24528W        W31128  23.575   6.485  24.311  0.1351 -0.0530  0.0100
24529W        W31129   1.250   4.922  11.409 -0.1428  0.1669  0.1202
24530W        W31130   8.579   2.737  28.057 -0.1201 -0.1708  0.1343
24531W        W31131   9.982   5.977   9.681 -0.2712 -0.1211  0.3064
24532W        W31132  11.317   0.214  23.122 -0.1424  0.3056  0.0193
24533W        W31133  14.383   5.467  28.273  0.0258  0.0196  0.1174
24534W        W31134  22.839   0.281  29.425  0.0034 -0.0083  0.0359
24535W        W31135   7.008   4.452  31.167  0.2893  0.1011  0.0859
24536W        W31136  18.918   2.035  15.557  0.0427 -0.1230 -0.4309
24537W        W31137  18.118   1.276  30.003 -0.4039  0.1871  0.0656
24538W        W31138  13.539   6.670  11.582 -0.0241  0.0931 -0.1294
24539W        W31139  14.319   0.794   1.331  0.1717  0.0183  0.0263
24540W        W31140  21.616   1.175  28.110  0.1863 -0.1712 -0.2624
24541W        W31141  22.401   6.769   9.068 -0.0706 -0.0393  0.2567
24542W        W31142  13.294   5.202  10.387 -0.0606  0.2311 -0.2263
24543W        W31143  13.919   0.829  26.084 -0.2231  0.1906  0.2126
24544W        W31144  23.087   2.718  17.015 -0.1960  0.2456  0.2219
24545W        W31145  10.377   6.529  17.171 -0.0388  0.1443 -0.2443
24546W        W31146  23.441   3.556  23.358  0.0625 -0.0128  0.0243
24547W        W31147   9.824   4.178  25.743 -0.1731 -0.2938 -0.1787
24548W        W31148  23.113   7.244  21.933  0.1631 -0.1632 -0.0860
24549W        W31149  19.344   3.160  20.172  0.0688  0.0280  0.0838
24550W        W31150  13.704   3.850  23.531 -0.1687  0.2335 -0.2095
24551W        W31151   5.560   2.734  32.512  0.1272 -0.0918 -0.1627
24552W        W31152  22.226   0.731   3.410 -0.0986 -0.0601 -0.2916
24553W        W31153  24.561   4.120  20.381 -0.1563 -0.1872 -0.3162
24554W        W31154   9.595   6.842  12.624  0.3168 -0.0322  0.2313
24555W        W31155  23.436   6.235  24.870 -0.0891 -0.0026 -0.0764
24556W        W31156  19.797   4.295  26.685 -0.3556 -0.2494 -0.0019
24557W        W31157  16.711   2.127  27.323 -0.0052  0.1236  0.3011
24558W        W31158   7.538   2.133  27.373 -0.2976  0.0730 -0.1655
24559W        W31159  14.542   6.649   0.092 -0.2489  0.0225  0.2149
24560W        W31160  11.683   6.977  25.531 -0.0762 -0.0023  0.0722
24561W        W31161  21.245   3.286   4.409 -0.3881  0.4949 -0.0574
24562W        W31162   6.978   1.126  28.286  0.2663  0.1158  0.2186
24563W        W31163  20.209   1.643   4.353 -0.2119  0.2321  0.2020
24564W        W31164   6.871   2.989  22.453 -0.0341  0.3170 -0.1177
24565W        W31165   6.004   0.804  11.765 -0.2282 -0.0254 -0.3155
24566W        W31166  21.681   6.280  17.700  0.1988  0.0384  0.1196
24567W        W31167  13.991   5.999  13.006 -0.2730 -0.0285 -0.0441
24568W        W31168   0.834   1.043  21.574 -0.2450  0.2505 -0.1014
24569W        W31169  12.427   7.740  26.276 -0.0135  0.2956 -0.0563
24570W        W31170   8.659   2.219   6.939 -0.2232 -0.0918  0.2196
24571W        W31171  12.940   1.789  13.306 -0.0372 -0.1595 -0.0133
24572W        W31172  15.724   4.101   0.452  0.3453  0.0187  0.0209
24573W        W31173  22.178   5.548  27.211  0.2671  0.0259  0.0038
24574W        W31174   9.465   1.904   0.812  0.0261 -0.1776  0.0889
24575W        W31175  12.553   4.044  15.595 -0.0569 -0.0569  0.0277
24576W        W31176   9.208   5.749   0.225 -0.1057  0.2184 -0.0818
24577W        W31177  15.644   7.474  19.162  0.4416 -0.0578  0.0169
24578W        W31178  20.231   6.027  28.442  0.0330 -0.0875  0.0726
24579W        W31179  22.275   6.843   3.993  0.2066  0.1501  0.2199
24580W        W31180   3.274   3.293   4.787  0.1657  0.0547  0.0021
24581W        W31181   1.685   4.647   6.260  0.2198  0.1375 -0.3777
24582W        W31182   9.295   1.098   9.660 -0.0902  0.0065  0.2459
24583W        W31183   4.125   0.354   3.866  0.1313  0.3658 -0.0284
24584W        W31184  18.647   4.187  31.212  0.0170  0.0854  0.0354
24585W        W31185  22.233   2.060  18.404  0.0725  0.2526  0.0027
24586W        W31186   8.327   0.213  24.178 -0.1456 -0.2151  0.0884
24587W        W31187  16.341   2.653   2.356 -0.1967 -0.1609 -0.0662
24588W        W31188  24.865   4.947  31.258  0.0546  0.0713 -0.0346
24589W        W31189  14.083   2.770  25.784 -0.1467 -0.0618  0.3365
24590W        W31190   8.416   3.577   8.157 -0.0215  0.0607 -0.0340
24591W        W31191  22.504   7.614   0.879  0.0524 -0.1208  0.0138
24592W        W31192   8.997   3.246  12.222 -0.0103 -0.2420 -0.0129
24593W        W31193  10.376   2.210   4.758  0.0705 -0.0657  0.2089
24594W        W31194  18.302   2.761  24.599 -0.2328  0.3466 -0.0226
24595W        W31195  17.900   4.301  20.650  0.1347 -0.0806 -0.0346
24596W        W31196  21.783   3.405  24.341 -0.0125  0.0742  0.1825
24597W        W31197  16.673   0.225  26.923 -0.1282 -0.1144 -0.0175
24598W        W31198   5.513   5.031   9.852  0.0573  0.0753  0.0319
24599W        W31199   6.715   5.244  13.828 -0.0487  0.0217 -0.0264
24600W        W31200  16.329   3.211  10.075  0.0954  0.2605  0.4545
24601W        W31201  13.966   2.228   3.107  0.3837  0.0742 -0.1291
24602W        W31202  10.454   7.588   9.923 -0.0190  0.1702  0.1176
24603W        W31203  20.065   6.275   1.788  0.1217 -0.0495 -0.0824
24604W        W31204   9.361   5.212  18.924  0.3108 -0.2196 -0.0451
24605W        W31205  11.297   2.416   5.194  0.2379 -0.0707 -0.0100
24606W        W31206  23.359   7.630   6.765  0.0286 -0.2072  0.0675
24607W        W31207   6.970   0.976   5.476  0.0140  0.0678 -0.3805
24608W        W31208  24.188   4.485   6.068 -0.0532 -0.0745 -0.4016
24609W        W31209  14.106   0.933   5.597 -0.1944  0.1449 -0.1830
24610W        W31210  19.088   0.483  31.989  0.2273 -0.1339  0.1735
24611W        W31211  24.490   6.540  20.032 -0.0606  0.2234 -0.0564
24612W        W31212  17.559   5.790   5.146  0.1176  0.0656  0.1813
24613W        W31213  10.661   1.835   7.634 -0.0534 -0.1570 -0.0698
24614W        W31214  24.923   7.034  15.693 -0.3030  0.2217 -0.0763
24615W        W31215  18.110   5.332  25.648 -0.2083 -0.3850 -0.1768
24616W        W31216  20.478   3.574   0.751  0.4778 -0.1580 -0.1508
24617W        W31217   5.983   3.918  25.783 -0.1192  0.0609  0.2125
24618W        W31218   0.656   6.941  21.645  0.0351 -0.2401  0.1272
24619W        W31219   9.947   3.434  25.112 -0.5527  0.1235 -0.3287
24620W        W31220   7.474   6.816  26.941  0.2341  0.3461 -0.0952
24621W        W31221  13.458   0.781  22.421  0.3100 -0.1752  0.3810
24622W        W31222  12.965   4.787   0.963  0.0584 -0.0032  0.0892
24623W        W31223  10.257   6.403   3.386 -0.1509  0.0982  0.0099
24624W        W31224  21.850   7.564   8.807  0.0270 -0.0373  0.2199
24625W        W31225  15.445   1.122  30.425 -0.2657  0.1089  0.1630
24626W        W31226  21.413   1.165  32.346  0.0052 -0.0028 -0.0706
24627W        W31227  16.880   4.601  25.608  0.0006  0.0540  0.2804
24628W        W31228   1.074   1.046  11.379  0.1462  0.1706 -0.1503
24629W        W31229  10.704   3.622  16.634 -0.0178  0.2519 -0.3572
24630W        W31230  11.655   2.321  29.158  0.2317 -0.2566 -0.2867
24631W        W31231   0.610   0.411   8.810  0.1642  0.1172 -0.1008
24632W        W31232  16.092   2.226   4.035  0.0362 -0.0468 -0.1352
24633W        W31233   4.473   7.414  10.634  0.0066 -0.0276  0.0386
24634W        W31234  19.752   5.729  16.812 -0.0218 -0.0849 -0.1508
24635W        W31235   6.361   2.431   1.965  0.2652 -0.1959 -0.1679
24636W        W31236  10.664   7.298  27.682  0.2278  0.1651  0.4265
24637W        W31237  15.489   7.591  32.291  0.0875  0.0105  0.2278
24638W        W31238   1.654   2.177  26.080 -0.0575 -0.0432 -0.0264
24639W        W31239   1.729   3.723  19.830  0.0387 -0.4033  0.2233
24640W        W31240  12.146   4.969   9.802 -0.3433 -0.1390  0.2581
24641W        W31241   1.942   3.242   1.292 -0.1328  0.1316 -0.1360
24642W        W31242   6.065   1.438   6.412  0.0562 -0.1235  0.1128
24643W        W31243  21.557   0.811  14.933  0.0572  0.0145 -0.0890
24644W        W31244   8.441   7.131   6.516  0.1536  0.1748  0.0415
24645W        W31245  19.377   4.150  31.002  0.1200  0.0393  0.2111
24646W        W31246  13.167   7.389  26.390 -0.3025 -0.1276 -0.1039
24647W        W31247   3.635   7.648  30.239 -0.1200 -0.3134  0.0963
24648W        W31248  12.007   0.798   0.564  0.0584  0.1502 -0.1562
24649W        W31249  18.611   1.576  20.162 -0.2094 -0.0408 -0.2517
24650W        W31250  14.449   6.197   8.444 -0.0546 -0.2446  0.0006
24651W        W31251  18.665   1.562  17.619 -0.3981 -0.1182 -0.3611
24652W        W31252  23.447   7.308   1.091  0.0038  0.0409  0.0537
24653W        W31253  17.676   1.235  29.752  0.0729  0.5003  0.2555
24654W        W31254   4.752   6.819  28.934  0.2555  0.0340 -0.0882
24655W        W31255   4.950   7.743  11.912 -0.1157 -0.0255  0.3441
24656W        W31256  15.420   3.631  26.221  0.1877  0.1210  0.0360
24657W        W31257  12.666   5.008  15.449 -0.2337 -0.0064 -0.0523
24658W        W31258  24.227   6.934   3.663 -0.0500  0.1445  0.4535
24659W        W31259   3.710   0.179   4.136  0.2719 -0.2014 -0.2478
24660W        W31260  14.052   2.054  10.551  0.1256  0.1798  0.1672
24661W        W31261  24.647   4.386  23.531  0.0438  0.0416  0.0375
24662W        W31262   9.246   6.354  24.730  0.1397  0.1347 -0.1747
24663W        W31263  14.778   0.986  12.807 -0.1314  0.0835  0.3471
24664W        W31264  20.294   6.959  20.977 -0.2384  0.0410 -0.1091
24665W        W31265  14.364   1.858  30.885  0.1122 -0.2543 -0.0105
24666W        W31266  15.618   6.303  31.911 -0.0766 -0.1671  0.0927
24667W        W31267  20.847   6.304   5.043  0.1163  0.2181  0.1173
24668W        W31268   9.430   0.009   8.055  0.1540 -0.0704  0.0201
24669W        W31269  24.417   6.713  24.833  0.2066 -0.3312  0.0095
24670W        W31270  13.157   1.212   3.297  0.2917 -0.1950  0.0134
24671W        W31271  19.331   0.130   7.860  0.2601  0.0913 -0.2272
24672W        W31272   4.960   5.242  13.705 -0.0573 -0.1173 -0.2612
24673W        W31273  16.318   3.461   3.232  0.1799 -0.0643  0.4150
24674W        W31274  10.168   6.481  22.254 -0.1390 -0.1795 -0.2094
24675W        W31275   6.734   5.367  27.867  0.1816 -0.0172  0.0785
24676W        W31276  13.645   5.988  32.539 -0.0676 -0.1123  0.0498
24677W        W31277   4.311   4.000   1.247 -0.0441  0.2131 -0.1308
24678W        W31278   6.935   1.566   6.477  0.0131  0.4987  0.1642
24679W        W31279  18.662   0.325  26.772 -0.1156 -0.0791  0.0913
24680W        W31280  22.836   1.870  22.345 -0.1450 -0.2210  0.0667
24681W        W31281  12.132   6.565  12.462 -0.0199  0.3829 -0.1120
24682W        W31282  13.265   6.905  11.128 -0.1861 -0.1022 -0.1142
24683W        W31283  18.637   7.008  27.408  0.0708  0.1143  0.1051
24684W        W31284  11.635   4.361  12.151 -0.2487 -0.0280 -0.1690
24685W        W31285  18.805   4.477   7.899  0.0458  0.1380 -0.0174
24686W        W31286  10.108   5.711   4.970  0.1986  0.5427 -0.4594
24687W        W31287  15.107   0.522   7.497  0.0284 -0.2134  0.2870
24688W        W31288  21.754   7.426  30.631  0.0792  0.1498 -0.2646
24689W        W31289  22.700   6.942  25.334  0.0268 -0.1060 -0.3967
24690W        W31290  18.883   0.162   2.895  0.4278  0.1087  0.0225
24691W        W31291  19.051   3.925  32.074 -0.0129  0.1747  0.1549
24692W        W31292   6.653   1.477  15.824 -0.1753 -0.0060  0.0514
24693W        W31293   4.685   0.331  11.870  0.1364 -0.0269 -0.1207
24694W        W31294   6.795   0.655  25.272  0.0068 -0.1259  0.0249
24695W        W31295   8.257   6.871   2.030 -0.1609 -0.0883  0.0202
24696W        W31296  12.868   0.188  30.780 -0.0258  0.3189  0.1186
24697W        W31297   8.522   3.984  26.435  0.2571 -0.0698 -0.1503
24698W        W31298  24.369   4.852  29.058 -0.0986  0.1149 -0.2509
24699W        W31299  13.878   6.154  11.286  0.2287  0.1931  0.2472
24700W        W31300  16.291   6.581  32.113  0.3768 -0.1317 -0.0040
24701W        W31301   4.638   2.057  32.242 -0.1351  0.1286 -0.0042
24702W        W31302  10.358   3.428  27.747  0.1439  0.2568  0.0675
24703W        W31303   7.324   2.379  25.799 -0.1877 -0.1433  0.0446
24704W        W31304   9.022   1.833   4.682  0.1367  0.0735 -0.0683
24705W        W31305  24.014   6.552  18.577  0.0295  0.0634 -0.1578
24706W        W31306  15.987   2.569  19.093 -0.1120 -0.1685 -0.2251
24707W        W31307   2.958   6.212  10.497 -0.2525  0.0749  0.2012
24708W        W31308  10.172   2.661  24.070  0.0265  0.1460  0.1844
24709W        W31309   4.613   1.085  25.225  0.1502 -0.0624  0.0026
24710W        W31310  18.963   4.488  17.140 -0.1656 -0.2090 -0.0115
24711W        W31311  18.596   1.710   1.990  0.0662 -0.2873  0.0967
24712W        W31312   8.123   6.976  18.819  0.0483 -0.0670 -0.0706
24713W        W31313   2.616   7.540  19.037 -0.2438 -0.1869  0.0030
24714W        W31314  14.398   6.700   3.237  0.2764 -0.2765 -0.2041
24715W        W31315   3.919   6.824  15.849 -0.2115  0.1679  0.1273
24716W        W31316  14.639   6.216  23.993  0.3210 -0.4343 -0.3048
24717W        W31317   2.254   1.106  30.890  0.1846 -0.3506 -0.2005
24718W        W31318   4.212   0.130  23.148 -0.0085  0.0826  0.2554
24719W        W31319   5.469   4.331  26.906 -0.0957 -0.1568 -0.0015
24720W        W31320  15.563   6.662  25.527  0.1502 -0.2991  0.0315
24721W        W31321   1.645   0.129  28.653 -0.1703 -0.0292 -0.1605
24722W        W31322  11.432   4.245  14.091  0.0524 -0.0615 -0.1717
24723W        W31323   0.716   6.007   1.697  0.1548 -0.2138 -0.0878
24724W        W31324  16.605   2.340  25.171  0.0849 -0.0148  0.3581
24725W        W31325  24.354   4.666  22.600  0.2943 -0.4438  0.2199
24726W        W31326  22.268   3.128   2.780  0.0264 -0.2084  0.0645
24727W        W31327   8.935   5.057  25.582  0.2238 -0.0818 -0.0822
24728W        W31328  22.989   2.613  29.317 -0.0463 -0.1640 -0.1802
24729W        W31329  19.037   2.415   5.842 -0.1390  0.0592  0.0314
24730W        W31330   6.738   2.628  27.204  0.3242  0.0790  0.2210
24731W        W31331   9.371   0.325   4.759 -0.0124 -0.3063 -0.2407
24732W        W31332   8.845   1.165  30.695  0.1615 -0.0256 -0.2639
24733W        W31333   0.553   6.976  18.774 -0.0082  0.0801  0.0428
24734W        W31334  10.157   3.880   6.013 -0.0785 -0.0200 -0.0366
24735W        W31335   2.430   6.372  29.197 -0.1742 -0.1219 -0.0242
24736W        W31336   4.977   1.039  16.523 -0.4515  0.1591 -0.0014
24737W        W31337   0.400   2.957  19.214 -0.1077  0.0130  0.3827
24738W        W31338  11.739   4.344  13.736  0.1622 -0.0202  0.0334
24739W        W31339  12.593   0.111   4.943  0.1569 -0.2538 -0.0429
24740W        W31340  22.506   6.918  28.582  0.0586  0.2396  0.3500
24741W        W31341   5.967   4.452  10.372  0.0925  0.0287  0.2665
24742W        W31342  23.028   5.517  27.856  0.0445  0.1860 -0.0180
24743W        W31343  15.759   6.024  32.477  0.0221 -0.2200  0.1843
24744W        W31344  13.405   5.438  12.466 -0.3965 -0.0776 -0.0963
24745W        W31345   6.835   2.485  30.284  0.0152 -0.0750  0.1511
24746W        W31346   6.300   7.549   8.201 -0.4086  0.2692 -0.1627
24747W        W31347  13.515   0.073  30.456 -0.0293 -0.1073  0.3741
24748W        W31348  22.217   6.978  25.623  0.0132  0.1201  0.2607
24749W        W31349  21.022   3.297   3.043  0.2044  0.2385 -0.0538
24750W        W31350  13.827   2.517   4.344  0.2069 -0.0199  0.1814
24751W        W31351  16.878   6.008  25.776 -0.0197 -0.0393 -0.0100
24752W        W31352  13.517   0.668   6.662 -0.2261 -0.1150 -0.2304
24753W        W31353   3.861   4.003  12.385  0.1074 -0.1746  0.0445
24754W        W31354  15.517   2.895  11.986 -0.3882 -0.1630 -0.0192
24755W        W31355   2.065   6.906   8.377  0.3284 -0.2423  0.0448
24756W        W31356  12.091   7.056  10.668  0.1556 -0.0215  0.1584
24757W        W31357  18.449   0.939   6.244 -0.2141 -0.1617  0.0583
24758W        W31358  13.910   2.708   5.432 -0.0354 -0.0602 -0.2424
24759W        W31359   8.972   5.581  30.852 -0.1050 -0.2994 -0.1072
24760W        W31360   4.800   1.741  25.157  0.0442  0.2673 -0.0711
24761W        W31361  10.326   3.892  31.122  0.0522  0.0808  0.0364
24762W        W31362  10.868   4.611   6.808 -0.1943  0.0797 -0.5809
24763W        W31363  20.003   5.638   5.385  0.0066  0.3653  0.2644
24764W        W31364  20.586   4.072   0.734 -0.0442  0.1921  0.0818
24765W        W31365   2.559   3.753  20.563  0.0969  0.0052  0.0950
24766W        W31366   0.126   7.064  31.250  0.2777  0.0552  0.0848
24767W        W31367   2.775   5.459   6.869  0.2350 -0.0526  0.1139
24768W        W31368  12.191   6.624   1.498  0.2779  0.2565 -0.1396
24769W        W31369   8.515   0.427   7.458 -0.0510  0.1465  0.1340
24770W        W31370  23.873   4.928   2.129  0.0097  0.0220  0.1270
24771W        W31371   2.237   1.611  25.700 -0.1570 -0.1973 -0.0833
24772W        W31372   1.611   4.120  19.251 -0.1456 -0.3858 -0.1232
24773W        W31373  10.053   4.067  16.658 -0.2062  0.0430 -0.1175
24774W        W31374  23.309   0.784  20.118 -0.1209 -0.2751  0.1889
24775W        W31375  15.953   4.778   8.317  0.2479  0.2731  0.0538
24776W        W31376  19.608   6.301  16.065 -0.1144 -0.2328 -0.1408
24777W        W31377  11.724   7.153  29.741 -0.1389  0.0639 -0.0960
24778W        W31378   6.164   1.845   6.734 -0.1610  0.0192  0.1336
24779W        W31379   0.610   2.885  28.252  0.0365 -0.2503 -0.0284
24780W        W31380   5.786   1.047  15.936 -0.0061 -0.2236  0.2235
24781W        W31381   5.518   6.493  10.355  0.2880  0.0973  0.1757
24782W        W31382   5.435   1.346  12.820 -0.0510  0.1737  0.1362
24783W        W31383  23.491   7.766  21.641 -0.5072 -0.2499  0.0950
24784W        W31384  14.907   4.729  31.756  0.0611  0.1426 -0.3561
24785W        W31385   1.703   1.877  10.496  0.3386  0.1249 -0.2294
24786W        W31386   5.943   1.521   9.737 -0.3969 -0.2424 -0.1379
24787W        W31387   2.364   5.152   6.191 -0.2854  0.1199 -0.1639
24788W        W31388   0.524   2.478  19.516  0.1404 -0.0481 -0.1776
24789W        W31389   8.054   1.574  26.052  0.0738  0.2235  0.1103
24790W        W31390   1.267   5.178   8.014  0.2406  0.2850  0.2106
24791W        W31391  13.763   3.970  30.920  0.2700  0.1067 -0.2301
24792W        W31392   3.446   3.827  30.910 -0.0441  0.1303 -0.1024
24793W        W31393  22.172   7.439  21.779  0.2807  0.0818  0.1166
24794W        W31394   4.201   5.386  12.177  0.0505 -0.1203  0.2727
24795W        W31395   6.930   1.505  21.891 -0.0480  0.2428  0.2345
24796W        W31396  18.667   6.159   2.536  0.0233  0.1162  0.0241
24797W        W31397   0.526   1.026  23.041  0.2223 -0.0330  0.1674
24798W        W31398   3.430   3.552  13.594 -0.0289 -0.0850  0.1674
24799W        W31399  16.000   5.190  22.829  0.0821 -0.1073 -0.1138
24800W        W31400  20.858   6.452   2.422  0.0235  0.0880  0.0958
24801W        W31401   5.592   3.850   8.902  0.1426 -0.1099 -0.0744
24802W        W31402   1.450   6.850  10.523 -0.0621 -0.4142 -0.0533
24803W        W31403  17.640   0.648  21.866 -0.0926 -0.0972  0.4361
24804W        W31404  10.169   1.004   6.535 -0.0198  0.0083 -0.2942
24805W        W31405  14.107   7.511  29.397  0.3026 -0.0404  0.3592
24806W        W31406  18.295   3.273  17.493  0.2653  0.0232 -0.1377
24807W        W31407  12.774   2.143  24.525  0.1536 -0.0574 -0.1088
24808W        W31408   7.243   0.254  31.447 -0.0730  0.2284 -0.1120
24809W        W31409   1.961   3.724  21.677  0.1475 -0.1116  0.1890
24810W        W31410   7.727   1.233  30.592 -0.0735 -0.2169 -0.0085
24811W        W31411  19.854   6.175  25.088  0.2189  0.1632  0.1258
24812W        W31412   3.450   3.585  10.638 -0.0374  0.2771 -0.3348
24813W        W31413  21.401   3.123   2.428 -0.0636  0.1701  0.1190
24814W        W31414   6.964   3.566  28.922 -0.0576  0.0996 -0.1262
24815W        W31415  12.619   6.521   7.786 -0.0376  0.1466 -0.1560
24816W        W31416  24.677   1.076  27.248  0.1786  0.2040  0.0254
24817W        W31417   3.383   4.325  20.948  0.0555  0.0169 -0.0973
24818W        W31418  20.987   7.235  19.570 -0.0526 -0.1463  0.0302
24819W        W31419  21.245   2.767  29.210 -0.1264  0.2687  0.2489
24820W        W31420  12.302   3.747  23.576  0.0487  0.1516 -0.1217
24821W        W31421  16.482   7.359  18.429 -0.2617  0.0178  0.1085
24822W        W31422   5.441   4.318  14.843 -0.2151 -0.1282  0.1234
24823W        W31423   1.592   4.081  28.683 -0.0913  0.0700  0.2959
24824W        W31424   0.781   6.453   3.690  0.0397 -0.2648  0.1458
24825W        W31425   1.971   4.852   9.578 -0.0213  0.0902 -0.3068
24826W        W31426  18.033   2.935  29.574 -0.0618  0.2290 -0.2333
24827W        W31427  19.374   2.183   8.146  0.0487  0.0266  0.0946
24828W        W31428  14.654   1.313  29.595 -0.0404  0.0556  0.2038
24829W        W31429  18.943   0.202  14.982 -0.1007 -0.0442  0.1609
24830W        W31430  11.506   0.866  23.726  0.0892 -0.0749 -0.0815
24831W        W31431  23.600   6.074  16.002  0.1748 -0.0444  0.0206
24832W        W31432  21.661   4.670  21.942  0.0641 -0.2541  0.1656
24833W        W31433   0.558   2.704   3.891  0.2967 -0.1707  0.1077
24834W        W31434  19.229   0.056  19.367 -0.1963 -0.0529 -0.1421
24835W        W31435  13.831   5.545  20.961 -0.0764  0.1999  0.0921
24836W        W31436  15.760   4.866   3.726 -0.1231 -0.0138 -0.0010
24837W        W31437  21.505   0.468  30.750 -0.2255  0.1418 -0.2861
24838W        W31438   9.111   1.724   0.147  0.2266  0.0375 -0.0843
24839W        W31439  10.592   6.226  17.626  0.1303 -0.0337  0.2044
24840W        W31440  13.624   2.564   9.885 -0.0608 -0.0465  0.2549
24841W        W31441  17.188   5.323  10.380  0.0079  0.1514  0.1063
24842W        W31442   4.883   1.461   4.791  0.0298 -0.2927 -0.0077
24843W        W31443  19.061   1.418   7.522 -0.2991 -0.0070 -0.3328
24844W        W31444   1.515   5.472   8.430  0.2568  0.0697 -0.1650
24845W        W31445  17.576   7.427  26.029 -0.1399  0.0751  0.1715
24846W        W31446  22.893   5.550  19.874 -0.0176  0.3039  0.0009
24847W        W31447   3.166   3.206  24.720  0.0922  0.1728 -0.0646
24848W        W31448  11.528   7.118  10.693  0.2150 -0.0997  0.0066
24849W        W31449  21.973   3.703   5.811  0.0122  0.0415  0.0303
24850W        W31450   7.445   1.131  17.869  0.0539  0.0688 -0.1796
24851W        W31451  16.954   4.971  25.039  0.1530  0.2762 -0.4338
24852W        W31452  14.483   2.054  10.825  0.3114 -0.2445 -0.1042
24853W        W31453   0.323   5.652  18.815  0.1679 -0.0748 -0.2563
24854W        W31454  11.002   3.205  22.575 -0.1984 -0.3207 -0.0613
24855W        W31455  22.518   5.667  27.889  0.1032  0.1612  0.2603
24856W        W31456  10.120   7.103  29.055 -0.0798  0.2033  0.1043
24857W        W31457   2.958   3.407  11.488  0.1106 -0.0792 -0.2286
24858W        W31458  18.086   3.400   8.421 -0.1071  0.0026  0.1041
24859W        W31459  18.548   2.023  16.436 -0.3178  0.0869  0.1309
24860W        W31460  14.553   4.486  30.785 -0.0773 -0.2688 -0.1424
24861W        W31461   3.624   6.662   1.136 -0.0285  0.1386 -0.2365
24862W        W31462   2.477   3.450  24.195 -0.1056 -0.0020  0.0279
24863W        W31463   3.576   6.306  13.696 -0.0928  0.2318  0.1144
24864W        W31464  16.891   5.331  27.525  0.2098  0.0356  0.2498
24865W        W31465   0.115   3.062  23.294  0.1751  0.1080 -0.0599
24866W        W31466  15.534   3.193  19.710 -0.0540  0.0225  0.0289
24867W        W31467  12.099   7.535  27.513 -0.0639 -0.0424  0.1493
24868W        W31468  21.355   5.310  20.847  0.3036 -0.0758  0.0107
24869W        W31469   5.468   1.592  30.835 -0.0841  0.1972  0.0479
24870W        W31470  25.025   6.627  30.865  0.0682  0.2747 -0.0384
24871W        W31471  16.841   0.714  23.897  0.0952  0.0075  0.2394
24872W        W31472  23.415   6.583  25.256  0.0914 -0.0014 -0.0538
24873W        W31473   1.880   4.711   0.288  0.1619  0.0617 -0.0344
24874W        W31474  19.488   7.376   9.462  0.0529  0.2128 -0.2065
24875W        W31475  14.605   4.935  11.453 -0.0158 -0.1688  0.0225
24876W        W31476  13.265   5.990  21.741 -0.0984 -0.2668  0.0904
24877W        W31477  23.866   3.311  15.324 -0.3740 -0.1374 -0.2365
24878W        W31478  14.270   6.426  11.326  0.3319  0.0928 -0.1669
24879W        W31479   8.514   7.683  25.203  0.1984 -0.0075 -0.1223
24880W        W31480   0.394   5.962  21.137  0.0213 -0.2258 -0.1387
24881W        W31481  10.480   5.112  25.459  0.0527 -0.0091  0.0175
24882W        W31482   2.349   4.215   7.250  0.0458 -0.2463 -0.2039
24883W        W31483   7.577   7.311  31.078 -0.0029 -0.2083 -0.3872
24884W        W31484   8.179   7.120   7.718  0.1616 -0.0752  0.0902
24885W        W31485   6.526   3.577  16.658 -0.0020  0.3081 -0.2064
24886W        W31486  24.223   2.940  21.725  0.1816 -0.0718 -0.1492
24887W        W31487   9.590   4.376  17.363 -0.1114 -0.2494 -0.1469
24888W        W31488  11.415   6.102   5.228 -0.0384  0.3048 -0.2311
24889W        W31489   8.274   6.286   4.142 -0.1976  0.1033 -0.0359
24890W        W31490  19.077   0.803   1.357 -0.1801 -0.0916  0.0151
24891W        W31491  16.788   2.777  24.711  0.0968 -0.4712  0.1571
24892W        W31492  21.031   7.405   8.144 -0.1108  0.0769 -0.0154
24893W        W31493  10.315   1.351  17.406  0.3821  0.0779 -0.0830
24894W        W31494   2.404   2.592  11.619  0.2097  0.0850  0.1016
24895W        W31495   8.073   1.761  31.914  0.0565  0.0789  0.3865
24896W        W31496   8.670   3.048  10.446 -0.0212  0.0069  0.2776
24897W        W31497   5.460   5.627   3.721  0.1066 -0.0017 -0.0814
24898W        W31498  14.351   6.164  30.879  0.0530 -0.2073  0.0234
24899W        W31499  24.239   6.708  28.001 -0.1846 -0.0147  0.0279
24900W        W31500   5.761   5.013  25.162  0.0654  0.1679 -0.1284
24901W        W31501   5.373   6.463  16.177  0.0997 -0.0640 -0.2401
24902W        W31502  24.347   5.471  28.211 -0.0538 -0.0365  0.0576
24903W        W31503  19.000   5.607   7.535 -0.3149 -0.1155  0.0144
24904W        W31504   1.239   0.997   7.039 -0.1072 -0.0633  0.0053
24905W        W31505   0.337   0.477   0.807  0.0762  0.2749 -0.0137
24906W        W31506  19.885   7.054  29.995 -0.0056 -0.2970 -0.2419
24907W        W31507   1.225   7.179  26.289 -0.0148 -0.3932  0.2322
24908W        W31508  14.751   1.984   6.722  0.2303  0.0804  0.1330
24909W        W31509  23.844   1.409   7.285 -0.0650  0.2255  0.0985
24910W        W31510   1.173   1.901  29.716  0.2288 -0.1288  0.1811
24911W        W31511   9.609   7.542   2.785 -0.0388 -0.1046 -0.1593
24912W        W31512   7.500   3.028  27.374  0.1806 -0.3046 -0.0371
24913W        W31513  21.577   0.867   9.765 -0.1132  0.2154 -0.0096
24914W        W31514  14.132   5.656   3.624 -0.2038 -0.0343 -0.1823
24915W        W31515   9.660   1.500  29.033 -0.2146  0.2307 -0.1133
24916W        W31516  18.138   3.094  18.856 -0.1198  0.3598 -0.3139
24917W        W31517  17.998   6.666  26.326  0.2717 -0.1691 -0.3170
24918W        W31518  17.822   7.739  18.483  0.2717 -0.2528 -0.2111
24919W        W31519  19.451   6.105  24.351  0.2582 -0.0209 -0.0272
24920W        W31520   3.150   5.351   3.275 -0.3069 -0.0449  0.0218
24921W        W31521  21.391   1.527  27.300 -0.0415  0.1393  0.0696
24922W        W31522  10.334   2.981  16.457 -0.2746  0.0841  0.0710
24923W        W31523  23.535   7.724   7.979  0.2673  0.1005 -0.0549
24924W        W31524   3.079   0.087  28.746  0.0220 -0.2775  0.1396
24925W        W31525  11.983   7.048   4.112 -0.2728 -0.0971  0.3170
24926W        W31526  23.960   6.975   7.870 -0.0434  0.0407  0.0750
24927W        W31527  22.796   0.537  20.752 -0.0826  0.0947  0.2116
24928W        W31528  21.415   0.673  29.100  0.0784  0.1564 -0.1085
24929W        W31529   2.763   0.858   3.413 -0.5305  0.0757 -0.2116
24930W        W31530   3.369   4.448  29.816 -0.4533 -0.0740  0.1086
24931W        W31531   0.999   6.433   2.995  0.1721  0.0406 -0.0566
24932W        W31532  18.107   6.949   6.025  0.2805 -0.0110  0.0652
24933W        W31533  17.003   7.606   2.155  0.0974  0.2509  0.0620
24934W        W31534  23.005   2.733  27.817  0.0566 -0.3034 -0.0836
24935W        W31535  11.959   7.193   0.455 -0.2017 -0.2851 -0.0025
24936W        W31536  21.373   0.018   9.300 -0.2076 -0.2077 -0.2142
24937W        W31537  19.189   6.069   5.109 -0.3207  0.3173  0.2435
24938W        W31538  19.877   2.835  17.241 -0.0014  0.0120 -0.2370
24939W        W31539   2.900   4.535   6.737 -0.1314 -0.1579 -0.0938
24940W        W31540  21.929   7.381  26.716 -0.0097  0.0229  0.1810
24941W        W31541  19.343   7.351   1.061 -0.1445  0.0765 -0.0643
24942W        W31542   0.889   0.502  19.140 -0.1720 -0.1567  0.1633
24943W        W31543   8.263   2.678  18.082 -0.0372  0.3895 -0.0696
24944W        W31544  18.541   7.726  16.702  0.0034  0.1295  0.0995
24945W        W31545  18.576   3.725  26.153  0.0950 -0.0815  0.0691
24946W        W31546  12.290   2.478   1.983 -0.2423  0.3011  0.0190
24947W        W31547   4.134   7.194  29.586 -0.0432 -0.2673  0.1154
24948W        W31548  24.201   1.587  30.603 -0.1567 -0.0288  0.2996
24949W        W31549  18.522   1.540   9.266  0.2408  0.0502  0.0941
24950W        W31550  22.710   0.380  25.770 -0.1025 -0.2705  0.0288
24951W        W31551   7.449   2.320  32.036 -0.3097  0.0148 -0.0344
24952W        W31552   2.024   2.045  21.428 -0.0847 -0.1568  0.5218
24953W        W31553  18.668   3.723  26.653 -0.3556 -0.3578  0.0859
24954W        W31554  11.586   1.277  26.548  0.0945  0.0298 -0.0686
24955W        W31555   8.605   2.509  24.232  0.2279 -0.1301  0.1046
24956W        W31556   5.910   6.171  29.552 -0.2386 -0.0757  0.1019
24957W        W31557   7.398   6.859  17.327  0.0852  0.2071 -0.0424
24958W        W31558  18.893   1.794   7.251 -0.1581 -0.1955 -0.2336
24959W        W31559   6.192   3.626  15.525 -0.0696 -0.3236 -0.0493
24960W        W31560   4.311   6.123   1.621  0.0253  0.0643 -0.0262
24961W        W31561   6.818   3.672  31.588  0.4625 -0.0272 -0.3551
24962W        W31562   7.725   4.325  11.862 -0.0324 -0.0248 -0.2159
24963W        W31563  13.783   5.855  28.694  0.0468  0.1512  0.0902
24964W        W31564  20.205   7.227  23.302 -0.2620 -0.0333 -0.4007
24965W        W31565  21.778   1.186   8.478 -0.0349 -0.1750 -0.0474
24966W        W31566  23.614   1.051  18.045  0.2368  0.0523 -0.0876
24967W        W31567   0.179   3.137   4.656 -0.2386 -0.4915 -0.1013
24968W        W31568  18.433   1.930   0.286  0.0411  0.2033 -0.0361
24969W        W31569  10.783   5.361  24.123 -0.0612 -0.1326  0.0312
24970W        W31570  20.073   1.157  23.698  0.1557 -0.0464 -0.2435
24971W        W31571   8.363   7.772  28.719  0.1383 -0.0182  0.0078
24972W        W31572  20.004   6.459   6.164  0.4669  0.1501 -0.1313
24973W        W31573   5.570   6.276  28.315  0.1779  0.3558 -0.2541
24974W        W31574   4.107   6.405   6.059 -0.0970 -0.1107 -0.0719
24975W        W31575  10.465   5.006  13.287 -0.0354 -0.0126  0.2053
24976W        W31576  11.610   6.123  12.868  0.3426 -0.1588 -0.0548
24977W        W31577  21.720   4.512  21.370  0.1828 -0.0358 -0.2039
24978W        W31578  10.043   2.492  30.536 -0.1812 -0.0097  0.1067
24979W        W31579   7.729   6.604  30.012  0.1242  0.2893 -0.0057
24980W        W31580  20.164   2.909  16.366  0.1378 -0.1334  0.2075
24981W        W31581  22.161   5.122  10.233  0.3292  0.0532 -0.0815
24982W        W31582  18.629   1.282   6.537  0.2176  0.2255  0.2619
24983W        W31583  21.917   4.867  30.868 -0.0189 -0.0603  0.0810
24984W        W31584  23.566   1.256  20.664 -0.1405 -0.0869  0.2055
24985W        W31585   0.396   5.634   4.664 -0.1328  0.2422 -0.1573
24986W        W31586  11.614   3.634  11.620 -0.0907  0.0464 -0.2139
24987W        W31587   4.241   2.042  14.942  0.1093  0.0675 -0.0172
24988W        W31588  14.192   6.648  26.673  0.1741 -0.2330 -0.4462
24989W        W31589  18.575   4.919   5.183 -0.0714 -0.0656  0.0044
24990W        W31590   0.540   0.297   6.911 -0.0810  0.1939 -0.0606
24991W        W31591   0.690   5.015  10.472 -0.1211  0.3097 -0.2051
24992W        W31592   1.927   6.253   1.862 -0.3251 -0.3410  0.0322
24993W        W31593   5.247   3.905  17.236 -0.0512  0.3991 -0.0609
24994W        W31594  20.787   6.490   7.654  0.1020 -0.0298  0.0732
24995W        W31595  14.262   6.300   1.918 -0.1074  0.0701 -0.0556
24996W        W31596   5.433   2.903  30.553  0.0670  0.1010  0.0247
24997W        W31597  18.049   3.464   2.090  0.2204 -0.3199  0.0725
24998W        W31598  20.324   7.513  19.833  0.0245 -0.1132  0.3466
24999W        W31599   1.179   5.872   1.999 -0.3111  0.2590 -0.1091
25000W        W31600   0.694   6.027  27.274  0.3043 -0.0577 -0.1686
25001W        W31601   7.184   1.190  27.242  0.0407  0.1328 -0.1198
25002W        W31602   0.002   4.852  19.862 -0.1231 -0.1494  0.1411
25003W        W31603  10.669   2.197   3.157  0.1662 -0.0585 -0.1338
25004W        W31604   4.772   7.615  22.424 -0.1718  0.0168  0.2970
25005W        W31605  15.955   1.871  10.000 -0.0101 -0.2485 -0.0847
25006W        W31606   3.052   0.320   7.343 -0.1412  0.2977  0.2042
25007W        W31607  15.931   4.748   0.820  0.1968 -0.0750 -0.0114
25008W        W31608  15.377   0.524   5.434 -0.1319 -0.0694 -0.3093
25009W        W31609   5.605   2.133  10.390  0.1030  0.0634 -0.1892
25010W        W31610   9.652   2.622   6.982  0.3366 -0.1042  0.0912
25011W        W31611   6.362   6.158  11.003  0.2541  0.1937 -0.0024
25012W        W31612   2.861   7.164  32.179  0.0280  0.0240 -0.0056
25013W        W31613   6.601   3.226  17.596 -0.0543  0.4092 -0.0493
25014W        W31614   9.664   6.305  28.898  0.0382 -0.0742 -0.1131
25015W        W31615  24.610   4.391  29.049  0.1576  0.0453 -0.1065
25016W        W31616  16.405   6.547   7.454 -0.1768 -0.1267 -0.0771
25017W        W31617  11.403   7.484   1.795  0.2564  0.1286  0.2667
25018W        W31618  20.594   6.057  17.933 -0.1084 -0.1813  0.1374
25019W        W31619  23.853   4.477  29.784 -0.0781 -0.0666 -0.2437
25020W        W31620  16.212   5.411   1.141  0.2233  0.1062 -0.3529
25021W        W31621   6.258   2.555  12.085 -0.4081 -0.0539  0.2823
25022W        W31622   6.170   2.377  29.734  0.0784  0.1736  0.3003
25023W        W31623   0.648   5.824   8.117  0.4155  0.2445  0.0372
25024W        W31624   5.846   3.098  22.406  0.2648  0.0305 -0.2318
25025W        W31625   2.771   3.404  26.150  0.0780 -0.1330  0.0769
25026W        W31626  16.694   7.648  31.790  0.0298 -0.1133 -0.2679
25027W        W31627  24.415   6.312  17.072  0.1891 -0.0155 -0.2345
25028W        W31628  19.905   4.446   4.188  0.0372  0.2505 -0.2545
25029W        W31629   9.333   7.362  30.144  0.4633 -0.0670 -0.3403
25030W        W31630  16.540   6.021  24.245 -0.0066 -0.0223 -0.4343
25031W        W31631   6.098   3.766   0.668 -0.1648  0.0081  0.4643
25032W        W31632   1.626   0.316   3.896  0.0154  0.0993  0.0126
25033W        W31633  18.590   0.695   3.295 -0.3214 -0.0444 -0.0893
25034W        W31634  20.597   5.965   3.620 -0.1662  0.2195  0.1890
25035W        W31635   8.333   5.153   1.199 -0.4400  0.0013 -0.0584
25036W        W31636  17.420   7.680  21.263 -0.2905 -0.0386  0.0647
25037W        W31637   0.848   4.589  32.017 -0.2904  0.0427 -0.2965
25038W        W31638  11.452   3.444  31.415 -0.0961 -0.0075  0.0777
25039W        W31639  13.178   6.371   9.294 -0.0880 -0.1680  0.0146
25040W        W31640  18.563   1.423  14.493  0.3389 -0.1914  0.1334
25041W        W31641   7.625   5.081  26.128 -0.0099  0.2729  0.0498
25042W        W31642   0.730   0.793  23.781 -0.1771 -0.0344 -0.1792
25043W        W31643  16.011   2.571   4.401  0.0768  0.1365 -0.2014
25044W        W31644   0.003   0.243  23.840 -0.3771 -0.2348  0.2701
25045W        W31645   9.342   3.982  28.261 -0.2019 -0.0508  0.0349
25046W        W31646   1.141   0.637   7.926 -0.0092 -0.3597  0.0363
25047W        W31647   8.741   3.598  28.646  0.0540 -0.2264  0.2184
25048W        W31648   2.235   6.478   8.218 -0.2361  0.0409  0.1609
25049W        W31649   8.457   0.447  32.477  0.0905  0.1932  0.0632
25050W        W31650  21.898   1.188  20.179 -0.1067  0.3341 -0.0408
25051W        W31651   8.756   2.160  17.052  0.2179  0.0070 -0.1234
25052W        W31652   5.336   6.893   0.538 -0.0454 -0.0412 -0.0718
25053W        W31653   5.797   1.932  13.435  0.1169  0.0796 -0.3065
25054W        W31654   9.132   5.324  25.157  0.1101  0.3674  0.0119
25055W        W31655  22.026   7.299  15.637  0.3980 -0.0721 -0.0273
25056W        W31656  11.788   0.778  31.382 -0.2276 -0.1130  0.1755
25057W        W31657   0.696   6.952  25.227 -0.0665  0.1829  0.0436
25058W        W31658  22.512   5.669   2.650 -0.1931  0.1210  0.0667
25059W        W31659  20.867   3.341  24.452  0.0879  0.0299  0.0678
25060W        W31660  18.389   0.183  10.519  0.0249 -0.1756 -0.2411
25061W        W31661   0.358   1.356   2.927  0.1098  0.1017 -0.1533
25062W        W31662   4.718   0.726  31.369 -0.0005 -0.0282 -0.1850
25063W        W31663  13.318   3.200  21.203 -0.0767 -0.0303 -0.0628
25064W        W31664  15.828   6.860  26.063  0.0930 -0.0234  0.1885
25065W        W31665  16.847   2.962  23.476  0.3756  0.0369  0.0407
25066W        W31666  13.636   0.623  13.496  0.0582 -0.2168 -0.1309
25067W        W31667  14.196   4.430  25.258 -0.0228  0.1961  0.1002
25068W        W31668   3.888   3.355   8.882 -0.1117 -0.0985  0.0052
25069W        W31669  20.200   4.844   9.411 -0.2291 -0.3422 -0.1352
25070W        W31670  10.705   6.725  14.625 -0.2343  0.4240 -0.1819
25071W        W31671   0.070   3.255  30.746  0.1514 -0.1168 -0.0841
25072W        W31672  21.057   0.289  20.498 -0.2565  0.1463  0.2015
25073W        W31673  17.071   4.493  18.438  0.5298  0.1306  0.0209
25074W        W31674  19.312   5.273  28.552 -0.0286 -0.0866  0.0579
25075W        W31675   3.231   4.509  11.007 -0.1028 -0.0049 -0.0471
25076W        W31676  12.418   2.900  25.217 -0.2058 -0.0516 -0.0984
25077W        W31677   9.636   2.710   3.417  0.0770 -0.0852  0.4540
25078W        W31678  20.510   1.001  19.308  0.3358  0.0249 -0.0931
25079W        W31679   8.596   5.414  13.583  0.0616 -0.0908  0.1286
25080W        W31680   2.455   1.698  26.782 -0.3799  0.0187  0.0769
25081W        W31681  16.786   0.292   1.368 -0.0068 -0.1093 -0.1619
25082W        W31682   3.688   5.209  12.978 -0.3583 -0.0270 -0.0082
25083W        W31683   1.695   0.543  12.141 -0.3330  0.0337  0.1543
25084W        W31684  19.066   2.739   5.466 -0.0789 -0.0071 -0.1344
25085W        W31685   3.273   0.635   7.082 -0.2660  0.0615  0.1578
25086W        W31686  24.385   6.797  27.230  0.2925  0.0592 -0.2040
25087W        W31687   1.679   4.637   5.746 -0.0205 -0.0185  0.0028
25088W        W31688   7.305   0.421   2.336  0.2103 -0.1334 -0.1008
25089W        W31689  20.430   1.319  17.136  0.1254 -0.1309  0.2005
25090W        W31690  24.046   5.885   8.451  0.1563  0.2058 -0.3011
25091W        W31691  19.656   6.494  27.322 -0.3034  0.0826  0.2061
25092W        W31692   6.456   0.747  25.692 -0.0577 -0.3757  0.0119
25093W        W31693  18.458   2.785   8.942  0.1082  0.0664 -0.2509
25094W        W31694   2.821   5.661  11.656  0.1334 -0.3302 -0.6377
25095W        W31695  17.988   5.673  18.451  0.1056 -0.1195  0.1016
25096W        W31696  18.585   1.784   9.825  0.0362 -0.2391 -0.1721
25097W        W31697   0.170   0.959  19.662 -0.2622 -0.0768 -0.0150
25098W        W31698  22.290   4.261  24.356 -0.2828 -0.1158  0.0078
25099W        W31699   5.689   0.930   6.454 -0.3436 -0.0536 -0.0619
25100W        W31700  10.744   7.713  28.338 -0.2001  0.0784  0.0484
25101W        W31701  14.242   6.993  28.141 -0.0545  0.2895 -0.0094
25102W        W31702   5.492   5.248  25.816 -0.2323 -0.1271  0.0413
25103W        W31703  11.917   5.755  11.070  0.1917  0.3577  0.1888
25104W        W31704  17.042   1.979   9.941 -0.0860  0.2492 -0.0898
25105W        W31705  13.688   7.653  23.532  0.1532 -0.1255  0.2921
25106W        W31706   3.661   6.265  26.211 -0.0329 -0.1803  0.0072
25107W        W31707   0.799   7.240  22.393  0.1543  0.1884 -0.1308
25108W        W31708  21.370   7.238  16.328  0.1326 -0.0904 -0.1116
25109W        W31709  25.038   6.896   7.878  0.0515 -0.0292  0.1829
25110W        W31710  15.652   2.088  20.330 -0.1419 -0.1288  0.0160
25111W        W31711   4.891   6.195   0.873  0.2016 -0.3467 -0.1615
25112W        W31712  16.227   6.766  29.096  0.1160 -0.2692 -0.2188
25113W        W31713   9.642   7.777   6.679  0.1024  0.4154 -0.3761
25114W        W31714   1.992   0.174  20.984 -0.0097 -0.1752 -0.1748
25115W        W31715   1.505   0.427  21.115 -0.0285  0.0084 -0.0785
25116W        W31716   3.210   5.642   7.614 -0.1051 -0.0181  0.1648
25117W        W31717  12.911   6.573  22.912 -0.0636  0.1227 -0.0991
25118W        W31718  19.652   7.613  17.703  0.2118  0.0877  0.0271
25119W        W31719   3.718   4.430  31.466  0.0819 -0.0506  0.2249
25120W        W31720   7.351   4.604   4.237  0.1077 -0.3217 -0.1386
25121W        W31721   1.620   6.487   2.551 -0.0379 -0.1635 -0.2192
25122W        W31722  15.914   3.927  19.016  0.0097 -0.0299  0.0724
25123W        W31723   2.995   7.022   5.109 -0.1920  0.2165  0.4086
25124W        W31724  10.067   3.095  32.375  0.1618  0.3406 -0.2333
25125W        W31725  22.404   0.843  28.731  0.2223 -0.0405  0.4535
25126W        W31726   0.718   4.740  22.619  0.1110  0.4350  0.3514
25127W        W31727   7.752   7.193  17.691  0.3914  0.0639 -0.0040
25128W        W31728  17.362   4.882  25.299 -0.3906 -0.0058 -0.0074
25129W        W31729  18.457   4.587  24.943  0.0445 -0.2573 -0.4235
25130W        W31730   5.489   5.263  24.874  0.0722  0.3038  0.2671
25131W        W31731  20.292   0.978  27.800  0.0389 -0.0485  0.0821
25132W        W31732  12.439   1.784  27.259  0.0902  0.1928 -0.0477
25133W        W31733  15.412   6.631   1.188  0.0077 -0.3330  0.1022
25134W        W31734   1.108   4.025  21.338  0.0525  0.0595 -0.2449
25135W        W31735  17.416   5.126  29.654 -0.2422  0.1393 -0.1819
25136W        W31736   6.453   3.223  26.283 -0.1289  0.1652 -0.2750
25137W        W31737  22.198   3.027  15.802  0.0853 -0.2073 -0.1151
25138W        W31738  19.547   5.196   4.083  0.0114 -0.2693 -0.2297
25139W        W31739  13.338   5.223  12.062 -0.0787  0.0619 -0.3203
25140W        W31740  13.350   3.133   2.241 -0.0472 -0.2078  0.0849
25141W        W31741  21.746   1.544  16.458 -0.0263 -0.2090 -0.0464
25142W        W31742   6.577   1.494  27.611  0.1926  0.1700  0.0219
25143W        W31743  10.322   3.760  10.942  0.0483 -0.0669  0.0326
25144W        W31744   8.925   3.696  26.385  0.1667 -0.0886 -0.0146
25145W        W31745   6.635   1.317  31.522  0.0296  0.0370 -0.2046
25146W        W31746  17.042   6.473   3.252  0.1951 -0.3902 -0.3506
25147W        W31747   6.672   7.580   5.883 -0.1654  0.3166 -0.1427
25148W        W31748  24.613   0.938   8.280  0.1369 -0.0609  0.3617
25149W        W31749  14.662   7.452   5.495 -0.0393  0.1057 -0.0365
25150W        W31750   5.269   3.001  25.216  0.0445  0.0577 -0.0472
25151W        W31751   2.844   5.239  22.373 -0.0186  0.3329  0.1765
25152W        W31752  12.862   6.980   0.847  0.0053 -0.4400  0.1909
25153W        W31753   5.567   7.678   1.697  0.0693  0.0992  0.0135
25154W        W31754   7.791   0.355  24.810  0.3356 -0.0570 -0.0324
25155W        W31755   0.924   3.211   0.416  0.1040 -0.3986 -0.0631
25156W        W31756  19.501   7.434   0.149  0.1052  0.2918 -0.0642
25157W        W31757   4.960   0.596  32.215  0.0451  0.2614 -0.2310
25158W        W31758   0.980   6.939  19.893  0.0539 -0.0793 -0.1077
25159W        W31759  23.932   1.575  22.021 -0.1008  0.0156  0.0372
25160W        W31760   6.491   2.812   8.496  0.3106 -0.1525  0.0446
25161W        W31761  20.218   3.247  32.659 -0.2830 -0.0746  0.1889
25162W        W31762  22.640   2.795  18.768 -0.1697  0.2276  0.0243
25163W        W31763  16.191   5.525  30.488  0.0743 -0.1345  0.0773
25164W        W31764   2.659   0.152   5.360 -0.2767 -0.0104 -0.1788
25165W        W31765  14.784   0.338   7.933  0.2037  0.0741 -0.1406
25166W        W31766  16.618   7.142   8.381  0.0587 -0.0748  0.2402
25167W        W31767  16.880   4.754  28.387  0.1420 -0.1872 -0.0179
25168W        W31768  24.603   0.473  17.285  0.2416 -0.3324  0.1359
25169W        W31769  13.827   4.418  26.349  0.0941  0.1049  0.0976
25170W        W31770   0.985   6.679  24.760 -0.1212  0.0182 -0.3226
25171W        W31771   3.271   2.790   6.600 -0.2967  0.4186  0.1262
25172W        W31772   2.241   4.390  27.634 -0.0582  0.1054  0.2138
25173W        W31773   8.560   6.684  27.870  0.1871 -0.0336  0.1111
25174W        W31774  17.366   2.911  18.341  0.2386 -0.1022 -0.0431
25175W        W31775  19.856   5.573   9.482  0.2552 -0.0219  0.0427
25176W        W31776   5.987   0.950  14.003 -0.1367  0.0586  0.0541
25177W        W31777   8.059   5.789   8.487  0.0045  0.1260  0.0379
25178W        W31778  13.039   4.016  26.305  0.2406 -0.0713 -0.1579
25179W        W31779  13.350   2.249  14.275  0.1471  0.0024 -0.2642
25180W        W31780  23.108   4.290  30.186 -0.1825 -0.0361 -0.2968
25181W        W31781   6.009   2.031   0.930  0.0801 -0.1110 -0.1160
25182W        W31782  19.832   3.350  24.431  0.0879 -0.0905 -0.0564
25183W        W31783  10.184   1.551  31.009 -0.0044  0.4974 -0.1847
25184W        W31784  15.447   3.976   8.807 -0.1540  0.1483 -0.2730
25185W        W31785   7.384   1.751  11.141  0.3601 -0.1447  0.1038
25186W        W31786  14.150   2.214  24.660 -0.2697  0.0600  0.2435
25187W        W31787  17.441   7.767  30.626  0.2128  0.2747  0.2744
25188W        W31788  15.696   4.121  11.743  0.0988  0.0547 -0.0694
25189W        W31789   7.071   5.070  16.576  0.2566 -0.1024  0.1425
25190W        W31790   4.853   5.170  15.088 -0.1130 -0.0356 -0.0268
25191W        W31791  11.210   6.329  29.228  0.1270 -0.0627 -0.3610
25192W        W31792  12.521   7.420   5.050 -0.0090  0.2281  0.0976
25193W        W31793   0.214   0.831   4.078 -0.2183 -0.0209  0.0838
25194W        W31794   8.122   3.147   1.581 -0.2564 -0.2265 -0.1535
25195W        W31795   4.263   4.676  23.079 -0.0259 -0.1236 -0.2138
25196W        W31796   4.543   7.785  29.467  0.1822  0.0040 -0.0230
25197W        W31797  24.735   6.591  17.667  0.0368  0.0243  0.1738
25198W        W31798  17.070   0.134   3.893  0.2979 -0.1816 -0.1088
25199W        W31799  23.230   6.077  24.380  0.1447  0.3289  0.0654
25200W        W31800  23.689   4.414  23.371  0.2215 -0.1126  0.3294
25201W        W31801   1.951   4.785   4.316 -0.0626 -0.1575  0.0284
25202W        W31802   2.739   2.805   3.121  0.3319 -0.1670  0.1284
25203W        W31803   4.508   7.226  31.366  0.1382  0.1016 -0.0427
25204W        W31804  17.777   2.219   8.471  0.1476  0.0996 -0.0566
25205W        W31805   8.463   0.688   5.826  0.1974 -0.1715  0.2724
25206W        W31806   3.880   0.666   1.584  0.2868  0.1871  0.0484
25207W        W31807  15.303   0.433  13.365  0.2234 -0.2832 -0.3109
25208W        W31808  18.371   4.902   1.896  0.0831 -0.1321 -0.0584
25209W        W31809  15.154   1.966  31.706  0.4091 -0.4197 -0.0876
25210W        W31810   5.240   4.068  30.393  0.1903 -0.0356 -0.0374
25211W        W31811  24.339   2.388  26.674 -0.3603 -0.0943 -0.1776
25212W        W31812  10.913   1.166   5.474  0.1783  0.0343  0.0315
25213W        W31813   7.724   3.473   7.013  0.0085 -0.0841  0.0278
25214W        W31814   8.976   6.984   8.684  0.0709 -0.1175 -0.0318
25215W        W31815   5.663   6.532  26.003  0.1893  0.0924 -0.0127
25216W        W31816  22.447   0.881   9.181 -0.1019  0.0791  0.1120
25217W        W31817  10.214   5.512  17.101 -0.1290 -0.0781  0.0380
25218W        W31818  12.987   7.401   8.843  0.1099 -0.1846  0.1953
25219W        W31819   9.954   5.824   7.375 -0.1309 -0.0145  0.0796
25220W        W31820   9.606   4.092  27.840  0.0796  0.0866 -0.2790
25221W        W31821   8.850   3.510  11.288  0.2365  0.0382  0.1749
25222W        W31822   7.431   2.834  28.470 -0.1809  0.3755 -0.0761
25223W        W31823  17.525   1.808   6.008 -0.0146 -0.0728  0.0374
25224W        W31824   1.703   0.831  10.360 -0.0242  0.1465 -0.0683
25225W        W31825  24.118   0.151  32.706 -0.1668 -0.1954 -0.2012
25226W        W31826  18.820   4.666   1.866 -0.1573 -0.1747  0.0284
25227W        W31827  16.047   4.113  10.138  0.1629  0.2566 -0.1332
25228W        W31828   6.751   4.391  11.780 -0.2959 -0.1344  0.0794
25229W        W31829  13.990   5.080   0.860 -0.1794  0.3147  0.0904
25230W        W31830   9.213   5.959   8.776 -0.0349  0.2543 -0.1829
25231W        W31831   0.785   5.193  29.895  0.0160  0.1384  0.1112
25232W        W31832  11.124   6.428   7.779 -0.0557 -0.2224 -0.1252
25233W        W31833   4.587   6.288  10.768 -0.0778 -0.1094  0.0589
25234W        W31834   2.393   2.178  22.044  0.3167 -0.2177  0.3176
25235W        W31835  16.960   3.208  10.821  0.0502  0.0976 -0.2520
25236W        W31836  19.814   1.471   2.414  0.1563 -0.2520  0.2874
25237W        W31837   1.509   5.489  29.308  0.0816 -0.0604  0.1232
25238W        W31838  11.351   1.559  32.430 -0.1876 -0.0946 -0.0849
25239W        W31839   1.127   6.394  27.315 -0.0778 -0.3111 -0.0590
25240W        W31840  17.853   1.718  21.814  0.2301  0.2094  0.1645
25241W        W31841  24.887   2.726   7.650 -0.1493 -0.0011  0.0138
25242W        W31842  18.292   1.373   8.687  0.3269  0.1494  0.0396
25243W        W31843   4.212   0.758   2.735 -0.2438  0.1520  0.1637
25244W        W31844  19.017   6.472  19.103  0.2942  0.1994 -0.0905
25245W        W31845  21.070   4.687  31.074  0.0453  0.0461 -0.0308
25246W        W31846   5.184   4.164   1.517  0.1878 -0.1232 -0.4143
25247W        W31847  15.760   6.674  29.386  0.0050  0.3817 -0.0471
25248W        W31848   6.870   0.581   5.786  0.2892 -0.0028 -0.1287
25249W        W31849  19.478   2.641  20.333 -0.1527 -0.1056  0.0886
25250W        W31850  19.440   7.632  21.991  0.2173 -0.0593 -0.1755
25251W        W31851   7.202   2.446  25.274  0.2481 -0.1468  0.2029
25252W        W31852  20.864   7.662   5.576 -0.6198  0.1476 -0.1493
25253W        W31853   1.860   5.644  26.436  0.1537  0.1093 -0.3518
25254W        W31854  21.042   0.635   6.575 -0.0578  0.0305  0.1135
25255W        W31855  19.677   2.508  16.449  0.0883 -0.2361 -0.0141
25256W        W31856  17.155   6.203  19.774 -0.3346  0.0377  0.0407
25257W        W31857   2.675   1.887  20.497  0.0592 -0.1203  0.1526
25258W        W31858  11.214   4.004  28.936  0.2977  0.1983  0.2697
25259W        W31859  17.048   7.405  23.971  0.1346  0.1119 -0.4206
25260W        W31860  10.538   1.312  12.382  0.3021  0.0849  0.0585
25261W        W31861  23.931   4.254  32.449  0.0097  0.0498  0.2264
25262W        W31862   3.576   2.091  14.314  0.2034 -0.1496  0.2942
25263W        W31863  22.044   5.727  29.837 -0.1574  0.2803  0.3772
25264W        W31864   8.036   5.086  25.352  0.3021  0.1814  0.2552
25265W        W31865  14.481   0.509  22.283  0.1154 -0.1447 -0.0268
25266W        W31866   4.432   0.635   0.171 -0.1856 -0.1010  0.1204
25267W        W31867   2.307   6.403  30.063 -0.0163 -0.0526 -0.1455
25268W        W31868   4.351   3.093  15.856 -0.3050  0.0200  0.0743
25269W        W31869  13.031   7.640  26.856 -0.0016  0.0143 -0.1746
25270W        W31870  11.255   7.343  12.967  0.2675  0.2395 -0.0899
25271W        W31871  22.697   2.428  17.804 -0.1512  0.0236 -0.0736
25272W        W31872   3.627   6.565  14.756 -0.1808  0.1217  0.3819
25273W        W31873  23.854   5.704   2.061  0.2581 -0.0309  0.1017
25274W        W31874   7.917   6.441  16.183  0.0939  0.1162  0.0652
25275W        W31875  23.001   6.306  27.031 -0.1395  0.0654  0.1511
25276W        W31876   8.991   3.746  30.271 -0.0446 -0.0469 -0.0489
25277W        W31877  19.145   3.934  21.723  0.1103  0.0888 -0.0837
25278W        W31878  16.495   1.928  21.023 -0.0064 -0.0726 -0.0384
25279W        W31879  17.155   6.062  31.194 -0.1346 -0.1206 -0.1377
25280W        W31880  12.488   0.026  13.073 -0.1299 -0.1723  0.0704
25281W        W31881   1.852   7.742  26.084 -0.1577 -0.1244  0.0443
25282W        W31882   4.664   1.794  28.291 -0.0738  0.2048 -0.0726
25283W        W31883  14.309   4.382   4.900 -0.1318 -0.2970 -0.1652
25284W        W31884   6.821   2.091  10.873 -0.4112  0.0876 -0.4082
25285W        W31885   8.153   7.746  11.621 -0.0496  0.5103 -0.0892
25286W        W31886  20.950   4.626  20.298  0.2748  0.0603 -0.0115
25287W        W31887   2.289   7.209  10.808  0.3532  0.2078 -0.0238
25288W        W31888  10.011   3.650  28.288 -0.2377 -0.2993 -0.0887
25289W        W31889  15.904   7.684  19.530 -0.5297 -0.0126 -0.0473
25290W        W31890  21.173   3.030   1.664 -0.2996 -0.2196 -0.2794
25291W        W31891   6.503   4.796  13.495 -0.1118  0.1117 -0.0017
25292W        W31892  16.045   3.776   1.104  0.0126 -0.1073  0.4864
25293W        W31893   1.988   3.974  31.841 -0.0295  0.1276  0.0013
25294W        W31894  19.015   3.822   6.538 -0.0473  0.0643 -0.0169
25295W        W31895  23.908   5.403  16.638 -0.0287 -0.0009  0.1299
25296W        W31896  20.914   1.021  32.192 -0.1796 -0.0672  0.0883
25297W        W31897   9.649   3.734   7.705  0.1050  0.0691 -0.2965
25298W        W31898   3.479   5.583  31.380  0.0240 -0.3126 -0.1497
25299W        W31899  23.816   4.180   2.403  0.1769 -0.0284 -0.0020
25300W        W31900   6.411   4.333  29.853  0.0090 -0.0595  0.3175
25301W        W31901  22.580   7.799  29.095  0.1261  0.0225  0.3895
25302W        W31902   5.431   1.356  24.253  0.2024 -0.2464 -0.2348
25303W        W31903   8.492   6.369  30.824  0.0868  0.0050  0.2605
25304W        W31904   7.259   6.911  15.039  0.1147 -0.1388 -0.3745
25305W        W31905   1.087   7.629   5.103  0.1667  0.2870 -0.0799
25306W        W31906   7.446   5.558   5.925 -0.2090  0.0435 -0.0709
25307W        W31907  21.543   2.416  32.129  0.0617  0.2519 -0.1601
25308W        W31908  14.400   6.571   4.843 -0.0977 -0.3576  0.1143
25309W        W31909  14.784   6.894  24.453 -0.2240 -0.1010  0.0998
25310W        W31910  16.335   1.090  26.556  0.0697 -0.1160  0.0960
25311W        W31911  19.190   1.747   5.827 -0.1302 -0.0467 -0.0995
25312W        W31912  18.988   6.874  29.212  0.1157 -0.2190  0.0171
25313W        W31913   2.175   7.228   6.321  0.0200 -0.1516 -0.2432
25314W        W31914   6.151   5.467  15.578  0.1429 -0.1552  0.1434
25315W        W31915   7.006   0.207  28.425 -0.3846 -0.0303  0.3194
25316W        W31916   2.926   1.543   2.736  0.1522  0.1428 -0.1341
25317W        W31917   7.356   3.993   5.038  0.0779 -0.0934 -0.3717
25318W        W31918  12.694   7.026   7.221 -0.1291  0.0437 -0.0109
25319W        W31919   2.807   5.768  10.644 -0.1796  0.2837  0.3233
25320W        W31920  14.114   5.926  30.096  0.0747  0.1711 -0.0719
25321W        W31921   9.221   6.584   9.565  0.0486 -0.0320 -0.2714
25322W        W31922  17.662   0.951  27.508  0.1269 -0.0550 -0.0253
25323W        W31923   5.640   3.647   8.466  0.0570 -0.2822  0.0047
25324W        W31924  23.791   6.191   4.255  0.1919 -0.2084  0.2600
25325W        W31925  14.086   4.995  10.854  0.0597 -0.2773  0.0362
25326W        W31926   9.638   6.180   0.927 -0.3137  0.0630  0.0600
25327W        W31927   1.101   7.019   9.697 -0.0406  0.0208  0.0389
25328W        W31928   5.711   2.415   2.270  0.1195  0.2262  0.0135
25329W        W31929  17.740   7.594  16.081 -0.1158 -0.1157  0.3443
25330W        W31930   6.333   5.246  17.083  0.1698  0.1265  0.1911
25331W        W31931   0.804   6.614  27.656 -0.1010  0.1202 -0.0654
25332W        W31932   3.162   3.404  28.347  0.2326 -0.1478  0.2314
25333W        W31933   4.480   0.624   6.260 -0.0393  0.0752  0.4010
25334W        W31934   8.722   3.565  16.508  0.0992  0.1071 -0.0980
25335W        W31935  20.560   7.319  17.528 -0.0059 -0.0974 -0.0043
25336W        W31936   1.198   7.005   7.390  0.0301  0.2110 -0.0929
25337W        W31937  11.748   2.181  23.689 -0.1792 -0.1592  0.2344
25338W        W31938   8.647   0.371   5.412  0.1378  0.0398 -0.1314
25339W        W31939  18.906   5.670   6.030  0.1865 -0.1491 -0.0844
25340W        W31940  12.866   4.567  10.544 -0.1884 -0.1573  0.2438
25341W        W31941  17.690   5.184  23.072  0.0140 -0.0728 -0.0644
25342W        W31942  20.172   6.978   7.268 -0.1233 -0.2810 -0.0487
25343W        W31943  24.902   4.456  29.464 -0.1991  0.0696  0.2150
25344W        W31944  17.611   1.066  23.261  0.0097 -0.0963  0.1065
25345W        W31945   0.200   2.510  19.971  0.0815  0.0812 -0.0815
25346W        W31946  20.986   0.465  32.130  0.1756 -0.1710  0.0352
25347W        W31947   4.485   7.456   9.317  0.2616  0.1162  0.0013
25348W        W31948  19.289   2.830   2.418 -0.0071 -0.1375 -0.2329
25349W        W31949   3.503   3.409  26.912  0.1408 -0.1704  0.1215
25350W        W31950  21.546   1.373   3.088 -0.1913  0.1642  0.2220
25351W        W31951  16.527   2.760   2.884 -0.1145  0.1892 -0.1399
25352W        W31952  21.825   0.054   5.338  0.1740 -0.2700  0.1797
25353W        W31953   1.992   5.703   8.426 -0.1340 -0.2703  0.3499
25354W        W31954  23.357   6.302  26.441 -0.0975  0.0049 -0.2517
25355W        W31955  16.464   1.819  18.516 -0.0390  0.1635  0.1929
25356W        W31956  10.273   6.566  15.445 -0.1556  0.4294 -0.1386
25357W        W31957   3.674   1.751   8.135 -0.0258 -0.1680  0.0263
25358W        W31958  24.353   2.310  19.539  0.1316 -0.1223  0.0216
25359W        W31959  19.958   6.723  25.356  0.0157  0.1834  0.3229
25360W        W31960  21.783   6.782   2.617  0.0445 -0.1087  0.1884
25361W        W31961  15.400   7.448  31.375  0.2041 -0.3062  0.3853
25362W        W31962   2.087   2.642   0.155 -0.0856  0.1883 -0.0131
25363W        W31963  11.707   5.197  30.779 -0.1867 -0.2143  0.1785
25364W        W31964  18.765   0.441   8.840 -0.4835 -0.1230 -0.0551
25365W        W31965  23.688   3.798  28.659 -0.0124 -0.0692 -0.2208
25366W        W31966  23.660   4.594   3.485  0.3027  0.1615  0.0415
25367W        W31967  22.996   2.536  29.812  0.0141 -0.0950  0.0022
25368W        W31968   6.133   0.587  28.602  0.0757 -0.0376  0.2473
25369W        W31969   3.421   0.683   9.383  0.2207  0.3689 -0.2937
25370W        W31970  21.842   3.220   0.993 -0.2333 -0.4232  0.2299
25371W        W31971   7.589   3.489  15.711  0.0826 -0.2487  0.1465
25372W        W31972   0.173   2.703  22.846  0.0340  0.1621  0.0996
25373W        W31973   4.096   5.675   5.044  0.2841 -0.1926 -0.0212
25374W        W31974  13.027   6.637  12.956  0.2442  0.0543  0.0737
25375W        W31975  18.064   0.850  24.379  0.0880 -0.0275 -0.0729
25376W        W31976  18.023   7.273  31.782  0.0163 -0.1164 -0.0296
25377W        W31977  24.275   3.402  30.104 -0.4987  0.2834 -0.0338
25378W        W31978   1.679   7.603   3.859  0.0742 -0.2016 -0.1130
25379W        W31979  24.163   2.423  28.039 -0.3555 -0.1185 -0.0855
25380W        W31980  18.856   0.291  31.176  0.3868 -0.0494  0.1033
25381W        W31981  23.180   1.375   3.261  0.2683 -0.1370 -0.1056
25382W        W31982  23.212   3.602  20.421  0.2367  0.0317  0.0660
25383W        W31983  15.474   0.950  30.896 -0.1238 -0.0202  0.1188
25384W        W31984   1.118   4.517   2.345 -0.0487  0.1325 -0.1982
25385W        W31985  22.369   6.043   7.002 -0.2245 -0.0019  0.1878
25386W        W31986   4.587   0.436   9.996 -0.2515 -0.0740  0.0336
25387W        W31987   8.887   7.041   3.175  0.2790  0.1209 -0.2805
25388W        W31988   3.058   2.883   2.694  0.2021 -0.3991 -0.0165
25389W        W31989   3.461   4.224  28.160 -0.1062 -0.3781 -0.4252
25390W        W31990  24.282   4.393  21.224  0.1212 -0.1692  0.2585
25391W        W31991  22.045   1.960   1.099 -0.3361 -0.2090  0.1132
25392W        W31992  15.522   0.430  26.168 -0.1959  0.1403  0.2939
25393W        W31993  16.738   1.219  29.924 -0.2759 -0.1306 -0.1621
25394W        W31994   4.134   5.740  28.383 -0.1359  0.2249 -0.1601
25395W        W31995  10.519   2.807  25.799  0.0288  0.2682 -0.2150
25396W        W31996  13.011   3.883  24.919  0.0378 -0.2150  0.1428
25397W        W31997   0.814   4.698   4.980 -0.2235  0.0404  0.1979
25398W        W31998  20.964   1.132  18.080  0.2081  0.0728 -0.1922
25399W        W31999  17.849   5.811   9.744  0.2338 -0.0343  0.0291
25400W        W32000  15.670   5.660   6.648 -0.2535 -0.1492  0.1258
25401W        W32001  20.267   6.134   8.400  0.1041  0.2687  0.0215
25402W        W32002   0.608   5.996   5.667 -0.1533 -0.2188  0.0422
25403W        W32003  11.884   7.796  13.475 -0.1451  0.0629 -0.0339
25404W        W32004  20.048   7.008  31.623  0.1645 -0.2861 -0.1214
25405W        W32005  18.944   3.445  29.114  0.1497 -0.0057 -0.2953
25406W        W32006   8.104   0.530  23.349 -0.1060  0.4021  0.0453
25407W        W32007  24.410   5.773  18.683  0.1764 -0.0152 -0.0182
25408W        W32008  15.815   6.287   1.063  0.3348 -0.0047 -0.0724
25409W        W32009  24.273   5.073  16.296 -0.0312  0.0714  0.1212
25410W        W32010  18.329   4.067  30.746 -0.1615 -0.2135 -0.0982
25411W        W32011  13.858   4.317   5.876  0.0057 -0.0527 -0.1462
25412W        W32012   1.268   5.524  26.235 -0.2064 -0.0288  0.0544
25413W        W32013  20.239   5.395  32.386  0.1748 -0.1336 -0.2208
25414W        W32014   1.098   0.808  24.608  0.0020 -0.1135 -0.0398
25415W        W32015  17.580   0.593  24.517 -0.2948 -0.0589 -0.1305
25416W        W32016   9.798   4.189  11.331  0.1762 -0.0421  0.3204
25417W        W32017   2.975   0.878  12.524  0.1789 -0.1356  0.0674
25418W        W32018  15.898   2.032   0.900  0.0231  0.0720  0.2674
25419W        W32019   7.447   3.596   4.667 -0.0597  0.0888 -0.1247
25420W        W32020  12.244   4.900  16.390  0.0553 -0.0250 -0.0276
25421W        W32021  19.682   1.897  22.574 -0.3221 -0.0611  0.3802
25422W        W32022  10.953   6.550  17.040 -0.0889 -0.0696 -0.1277
25423W        W32023   8.019   0.768  23.762 -0.0493 -0.2038 -0.0195
25424W        W32024  17.679   6.376  30.404  0.0710 -0.2843 -0.2016
25425W        W32025  14.622   0.368  10.589  0.0622 -0.0829  0.1873
25426W        W32026   2.451   2.555  25.794 -0.0164  0.2035 -0.0662
25427W        W32027   1.203   6.450  19.488  0.0293 -0.0466 -0.1694
25428W        W32028   3.344   5.614   4.490 -0.0916  0.1410 -0.3523
25429W        W32029   9.443   7.150   9.792 -0.0301 -0.1407  0.0078
25430W        W32030  15.679   5.890  28.898  0.0722  0.2367  0.0370
25431W        W32031  21.118   1.243  29.003 -0.0300 -0.0715  0.0877
25432W        W32032   4.757   1.858   7.743 -0.1628  0.1568 -0.1356
25433W        W32033   1.605   6.446  20.762 -0.2199 -0.2201  0.3906
25434W        W32034   9.697   0.998  31.608 -0.0756 -0.2283  0.0740
25435W        W32035  15.603   5.143   8.055  0.0070 -0.1171  0.1269
25436W        W32036   7.925   5.030  11.996  0.0273 -0.1626  0.2259
25437W        W32037   1.280   1.865  12.031  0.0889 -0.6085  0.0203
25438W        W32038  15.471   0.606   1.501 -0.0195 -0.0078  0.0565
25439W        W32039  24.050   0.576   2.088 -0.0882 -0.0758  0.0491
25440W        W32040   2.313   6.107   4.069  0.1512  0.0035  0.1990
25441W        W32041  12.792   0.671  32.236 -0.2924  0.0519  0.0619
25442W        W32042  18.024   4.569   7.798  0.1795 -0.2848  0.1018
25443W        W32043   9.014   0.559  31.945  0.0676  0.1681 -0.1593
25444W        W32044  20.885   4.623   6.321  0.0929 -0.0409  0.1986
25445W        W32045   9.588   2.471  23.102 -0.1653  0.3382  0.4145
25446W        W32046  16.979   2.825  22.533 -0.1287  0.1120 -0.0979
25447W        W32047  13.308   1.542   1.758  0.3658 -0.3490  0.0012
25448W        W32048   0.138   1.781  25.245 -0.0222  0.1704 -0.2901
25449W        W32049  18.671   2.563  10.613 -0.1763  0.0947  0.2428
25450W        W32050  23.640   4.457   3.006  0.3336 -0.0769  0.1518
25451W        W32051   2.031   4.250   8.416  0.0639  0.1191 -0.1091
25452W        W32052  18.666   6.128  22.009 -0.2448  0.0792  0.2173
25453W        W32053  23.245   6.588   2.773 -0.0928 -0.1435 -0.0592
25454W        W32054   5.279   7.421  32.018 -0.0904  0.1369  0.2890
25455W        W32055  16.374   0.607  23.757 -0.1812 -0.1254  0.0190
25456W        W32056  17.930   3.240   0.836 -0.1231  0.1098  0.5365
25457W        W32057  23.307   3.601  27.358 -0.0199  0.1637 -0.1604
25458W        W32058  24.532   6.970  21.110 -0.2082  0.1024  0.0900
25459W        W32059   6.092   5.080  24.837 -0.0129  0.0964  0.1135
25460W        W32060   7.348   6.357  10.196  0.3075  0.1727  0.2029
25461W        W32061   5.548   3.416  14.371  0.4097  0.0136 -0.2656
25462W        W32062  21.730   7.594  27.586 -0.1272  0.2247 -0.1783
25463W        W32063  21.599   2.421   7.998 -0.2432 -0.3844 -0.2080
25464W        W32064   2.463   4.744  26.122 -0.1042  0.0807 -0.1226
25465W        W32065   6.612   2.903  24.886  0.0990 -0.1003  0.0736
25466W        W32066  19.462   7.679  20.156  0.1922 -0.0342 -0.0434
25467W        W32067  13.995   5.920  30.602 -0.1919 -0.0288 -0.0619
25468W        W32068  18.730   2.241  16.869  0.1532  0.2686  0.0746
25469W        W32069   9.363   2.504  10.660  0.0460 -0.0941  0.2355
25470W        W32070  17.613   3.644  22.575  0.2980 -0.0721  0.3549
25471W        W32071  22.538   1.568  15.875 -0.2157  0.0168 -0.0283
25472W        W32072  19.557   0.565   9.171  0.0530 -0.3757 -0.2005
25473W        W32073  17.959   0.299  24.633 -0.1405 -0.0909 -0.1575
25474W        W32074   7.369   5.556  11.438  0.2000  0.0262 -0.2714
25475W        W32075  18.490   5.634  22.284 -0.0419  0.0174 -0.0865
25476W        W32076   2.912   2.280   9.958  0.0530  0.0955  0.3992
25477W        W32077   7.734   4.703  27.519  0.3907  0.0841  0.0313
25478W        W32078  12.394   2.508   4.255  0.1923 -0.0974  0.4137
25479W        W32079  24.511   0.831   1.476 -0.2153  0.3103 -0.0692
25480W        W32080  23.115   0.937   2.329 -0.1942 -0.2427 -0.1314
25481W        W32081  23.816   3.160   8.356 -0.0256 -0.2302  0.3115
25482W        W32082  10.247   3.695  15.485 -0.1048  0.0506 -0.1480
25483W        W32083  20.915   3.659  27.667  0.1841  0.2221 -0.0328
25484W        W32084   4.311   6.631   8.788  0.0794  0.3333 -0.3632
25485W        W32085   0.943   5.408   7.665  0.2299 -0.0065 -0.0121
25486W        W32086  16.400   0.903   0.078  0.0007 -0.0274  0.3724
25487W        W32087  21.835   2.708  31.846 -0.0506 -0.2361 -0.0208
25488W        W32088  23.616   4.585  21.588  0.1178 -0.1952  0.0752
25489W        W32089   5.032   2.316  24.296 -0.4947 -0.1131  0.0982
25490W        W32090   5.617   1.418  17.601  0.1008 -0.0533  0.0453
25491W        W32091   0.539   6.138   2.761  0.2389  0.0984 -0.0939
25492W        W32092  10.637   5.024   0.744 -0.1547 -0.0416 -0.0577
25493W        W32093   8.882   7.737   5.372  0.3820 -0.0019 -0.1948
25494W        W32094  16.627   4.954   4.631 -0.1973 -0.0997  0.1857
25495W        W32095  17.899   7.085  23.447 -0.0884 -0.0179  0.3154
25496W        W32096   3.391   4.420  26.410  0.1694 -0.3982  0.0886
25497W        W32097   1.485   3.680   1.005  0.0687 -0.1977 -0.4145
25498W        W32098   1.024   1.685   2.934 -0.3717 -0.0152 -0.1362
25499W        W32099   5.020   3.262   4.972 -0.1948 -0.1680  0.0914
25500W        W32100  21.069   4.768   1.767  0.0321 -0.0221 -0.0901
25501W        W32101   2.423   1.026  13.252 -0.3258 -0.2097 -0.2461
25502W        W32102  16.544   3.861  10.918 -0.2222 -0.2165  0.2723
25503W        W32103   6.695   5.734   1.269 -0.3952 -0.3764 -0.4485
25504W        W32104   2.892   5.639  24.003  0.1528  0.0802  0.2037
25505W        W32105   5.235   7.598  29.672 -0.1402  0.2245 -0.1259
25506W        W32106  20.651   3.594   1.604  0.0838 -0.0333 -0.2607
25507W        W32107   7.242   5.173   9.334  0.0007 -0.2016 -0.2671
25508W        W32108   4.091   6.110   0.665 -0.1323  0.1627 -0.0831
25509W        W32109  24.155   5.164   7.922  0.0904 -0.3102  0.2281
25510W        W32110  24.902   1.856  29.172 -0.1673 -0.1492  0.0730
25511W        W32111  10.390   0.286   2.661  0.0852  0.1239  0.0781
25512W        W32112  19.834   4.801  31.652  0.1033  0.0302 -0.0898
25513W        W32113  23.645   3.116   5.810 -0.0554 -0.1107  0.2855
25514W        W32114   5.471   6.569  22.421 -0.0197  0.2548  0.2459
25515W        W32115  18.612   6.617   3.290 -0.0212  0.0732 -0.0542
25516W        W32116  24.360   7.267  30.535  0.4559 -0.0942 -0.0182
25517W        W32117   4.851   6.237  13.460 -0.0889 -0.2153  0.0050
25518W        W32118  17.168   0.026   1.623  0.1347  0.0635 -0.1630
25519W        W32119   4.571   0.643  12.880 -0.1368  0.2145  0.1434
25520W        W32120   6.404   4.879   3.785 -0.1981 -0.1118 -0.1136
25521W        W32121   2.990   5.950  30.558 -0.1775  0.0232 -0.1960
25522W        W32122   1.613   5.307  29.729 -0.1705  0.1322 -0.1113
25523W        W32123  14.754   2.746   7.180  0.3638 -0.0362  0.0739
25524W        W32124   9.628   2.489  11.962  0.2004  0.0905  0.2022
25525W        W32125  15.745   7.544  22.118 -0.1371 -0.2829  0.1791
25526W        W32126  24.517   4.510   3.010  0.0088  0.1980 -0.3777
25527W        W32127  13.690   2.873   7.884  0.0244  0.2889  0.0113
25528W        W32128  21.272   4.874  32.057 -0.0702 -0.1274  0.0426
25529W        W32129  24.023   0.978   1.596 -0.0621 -0.0231  0.1165
25530W        W32130   8.431   7.093   2.993 -0.0586 -0.1564 -0.0931
25531W        W32131  23.576   6.872  25.708 -0.0794  0.0768  0.1620
25532W        W32132  24.330   7.130  32.176  0.3238  0.0343  0.1553
25533W        W32133   5.656   4.570  24.186  0.1091 -0.0203 -0.1239
25534W        W32134  24.702   1.594   3.617 -0.0376 -0.0360  0.1769
25535W        W32135  20.811   6.201   5.805  0.1622 -0.2511 -0.2775
25536W        W32136   0.525   4.030  22.094  0.2867 -0.0579  0.1256
25537W        W32137   3.572   7.096  25.337 -0.1937 -0.2598 -0.3144
25538W        W32138   1.142   0.816   9.667 -0.0223 -0.0637 -0.1535
25539W        W32139   1.452   6.132  22.361 -0.2023 -0.0321  0.0115
25540W        W32140  11.353   2.856  25.800 -0.3925 -0.0193 -0.0134
25541W        W32141  14.655   0.964   2.475  0.1033 -0.0191 -0.2922
25542W        W32142   8.650   3.163  17.670  0.0061  0.0179 -0.2416
25543W        W32143  22.107   2.881  32.277  0.2070 -0.1585 -0.0532
25544W        W32144  18.289   7.137  25.506  0.1093  0.1101 -0.0008
25545W        W32145   0.234   4.303  26.736  0.2943  0.0541 -0.2427
25546W        W32146   7.022   0.978  25.714 -0.0013 -0.0405 -0.2035
25547W        W32147  20.603   6.356  18.658  0.1722 -0.0842 -0.0798
25548W        W32148  11.182   0.930  30.477  0.1563 -0.0092  0.1203
25549W        W32149   5.906   7.446  30.348 -0.1303  0.0601  0.0947
25550W        W32150   5.172   3.176  10.995 -0.0270  0.0486  0.2833
25551W        W32151   9.304   0.565  10.765  0.1173  0.1459  0.4958
25552W        W32152   1.285   0.504  28.376 -0.2458 -0.1290 -0.0507
25553W        W32153  19.164   5.569   8.124  0.0170  0.3474  0.1779
25554W        W32154  22.489   5.391  20.173  0.0093 -0.2545  0.3463
25555W        W32155  13.888   2.478  23.810 -0.0901 -0.1116  0.1829
25556W        W32156   4.447   3.046   1.515 -0.0939 -0.1815  0.0827
25557W        W32157   4.318   0.516   7.573 -0.2100 -0.2405  0.0594
25558W        W32158   7.206   6.509   9.736  0.0712 -0.1563  0.1540
25559W        W32159   1.452   1.941   2.983 -0.2846 -0.0347 -0.1337
25560W        W32160   0.301   0.775  31.881  0.0423  0.0779 -0.2384
25561W        W32161  18.616   7.654   2.392 -0.0947  0.2023 -0.2324
25562W        W32162   2.691   2.838   6.681 -0.2610 -0.1231  0.0099
25563W        W32163  20.646   4.951   2.013 -0.3022 -0.1565  0.3911
25564W        W32164  12.565   2.817  12.131 -0.0483 -0.1765 -0.0574
25565W        W32165  20.697   5.287   7.470 -0.2228  0.0619  0.0342
25566W        W32166  16.478   7.101   9.497  0.1246 -0.1227 -0.4700
25567W        W32167   6.824   6.607  13.844 -0.1342 -0.1644 -0.0760
25568W        W32168  24.277   3.669  30.528  0.1588  0.0913  0.1045
25569W        W32169  18.031   4.289  15.476  0.2204  0.0502  0.1114
25570W        W32170   1.550   5.540  12.024 -0.1825 -0.1696  0.0840
25571W        W32171  17.617   6.182  17.909 -0.1550 -0.2685 -0.1261
25572W        W32172   9.185   2.738   5.177  0.2933 -0.0643 -0.0046
25573W        W32173  19.940   7.492  26.155  0.3148 -0.1098  0.2786
25574W        W32174  16.983   7.710  18.075  0.1752 -0.1609  0.0020
25575W        W32175   1.341   6.301   5.228  0.0934  0.1384 -0.0788
25576W        W32176   1.071   2.934  25.920  0.0013  0.0198  0.1769
25577W        W32177  17.533   5.986   3.116  0.0681 -0.1808 -0.0435
25578W        W32178   0.787   6.695  30.362  0.1518 -0.0498 -0.1488
25579W        W32179  16.336   2.258  22.755  0.0333 -0.4667 -0.1614
25580W        W32180  21.565   4.272  29.708  0.0240 -0.0012  0.1587
25581W        W32181  20.081   4.508   2.437 -0.1670 -0.1181 -0.3375
25582W        W32182   6.088   7.208  32.663  0.2580  0.1199 -0.2204
25583W        W32183   7.644   0.019  23.521 -0.0801 -0.1017  0.0409
25584W        W32184  10.171   1.205   7.351 -0.1380  0.3449  0.1773
25585W        W32185   0.468   1.719   7.011  0.0522 -0.1139 -0.2921
25586W        W32186   6.049   1.650   8.762 -0.3460  0.2152 -0.2496
25587W        W32187  16.725   7.307   0.827  0.0478  0.3292 -0.0930
25588W        W32188   2.062   5.345   3.797  0.1841  0.0285  0.2003
25589W        W32189  17.923   4.585  17.721  0.1055 -0.0629  0.1055
25590W        W32190   4.816   3.115   6.256  0.0886 -0.1961  0.2183
25591W        W32191  14.103   6.378   9.623  0.1028  0.1808  0.3979
25592W        W32192  21.822   0.889   1.783  0.2366  0.0176 -0.0711
25593W        W32193   2.376   6.484   9.410 -0.1324  0.1077 -0.2297
25594W        W32194   3.838   7.431  22.161  0.0275  0.2410 -0.1158
25595W        W32195  24.233   5.913   7.156 -0.0758 -0.2030  0.0118
25596W        W32196  15.623   0.758   0.024  0.0455  0.1543  0.1956
25597W        W32197  16.188   5.592  18.277 -0.1792  0.0233  0.5037
25598W        W32198  20.116   2.085  31.929  0.1778 -0.0387  0.0407
25599W        W32199   7.842   0.342  10.883 -0.2253 -0.0720  0.0013
25600W        W32200   4.587   7.200  29.258 -0.0120 -0.1628  0.0011
25601W        W32201  19.970   3.664  30.021  0.1856 -0.0412  0.0099
25602W        W32202  17.464   1.204   2.449 -0.2577  0.1554  0.1316
25603W        W32203  10.279   4.882  24.021 -0.0422  0.1333  0.1067
25604W        W32204  20.854   1.276   8.246  0.1926 -0.0587 -0.0635
25605W        W32205  23.744   3.734   0.751 -0.2262 -0.2820 -0.3012
25606W        W32206   4.650   1.083   6.174 -0.0099  0.0474  0.1204
25607W        W32207   3.117   1.726   9.280 -0.0518  0.0249  0.1095
25608W        W32208   3.402   4.870  26.236  0.3018 -0.2689 -0.2632
25609W        W32209  20.666   3.227  25.163  0.1462 -0.1117  0.1110
25610W        W32210   6.012   7.439  23.525 -0.1975 -0.0475  0.0682
25611W        W32211  18.518   1.571  18.097 -0.0064 -0.1818  0.0358
25612W        W32212  23.776   6.014  22.939  0.0025  0.0540  0.1595
25613W        W32213   8.694   4.295   4.238  0.5396  0.0581 -0.0457
25614W        W32214   1.969   3.967   6.893  0.1308 -0.3023  0.1199
25615W        W32215   2.549   4.190   6.689  0.2056  0.0205  0.1292
25616W        W32216   8.815   7.106  32.432 -0.1507  0.3249 -0.0212
25617W        W32217   8.298   4.378   8.631 -0.3112 -0.4387 -0.3489
25618W        W32218  22.514   5.332   8.250 -0.2217  0.1087  0.3004
25619W        W32219   7.723   2.579  29.665  0.4170  0.0209  0.2755
25620W        W32220   5.318   1.764  15.675 -0.0477  0.0293  0.1013
25621W        W32221  19.349   6.698  23.114  0.1831 -0.1159 -0.0842
25622W        W32222   8.245   1.005  29.165 -0.2456  0.0352  0.2259
25623W        W32223   7.997   3.152  12.763  0.0037 -0.0843  0.1290
25624W        W32224  13.872   2.045  30.043 -0.3583 -0.1628 -0.2387
25625W        W32225  21.564   1.807   8.419 -0.0485 -0.0962  0.0330
25626W        W32226  21.226   5.806  19.403 -0.2254  0.2652  0.3171
25627W        W32227   7.302   7.462  32.707  0.0967  0.0255  0.1089
25628W        W32228  10.376   6.263  23.013  0.0061  0.0219  0.1999
25629W        W32229  14.160   0.823  30.207 -0.1014 -0.2810  0.0750
25630W        W32230  12.574   5.145  31.371  0.2465 -0.0060  0.0752
25631W        W32231   6.947   5.045  23.253 -0.0381 -0.1324 -0.0728
25632W        W32232  24.372   1.318   1.368  0.0058 -0.2745  0.2345
25633W        W32233  15.185   3.073   2.804  0.1168  0.0910  0.3418
25634W        W32234   2.298   7.323  22.353 -0.0082  0.3626  0.2756
25635W        W32235  17.996   6.361   4.772 -0.0578  0.2600  0.2527
25636W        W32236  21.729   6.589   0.214 -0.2171 -0.4440 -0.1862
25637W        W32237   9.457   0.030   1.341  0.0321 -0.1812  0.0414
25638W        W32238   5.722   5.530  27.255 -0.1741 -0.0294  0.0247
25639W        W32239  19.685   0.989  15.839 -0.0796 -0.0904 -0.2424
25640W        W32240  22.205   2.771  20.485 -0.1137  0.0268 -0.2207
25641W        W32241   8.801   7.170   4.617  0.2424  0.0891  0.0861
25642W        W32242  13.375   4.310  22.501  0.2127  0.3897  0.0900
25643W        W32243  12.234   7.188  30.590  0.0929  0.1980 -0.1912
25644W        W32244  22.783   2.968   7.746  0.1180  0.3016  0.0686
25645W        W32245  18.307   4.138  29.495  0.0614 -0.1617 -0.1048
25646W        W32246   1.383   5.741  30.519 -0.0228  0.2238  0.0481
25647W        W32247  23.342   6.632  22.191  0.2438  0.0865 -0.4168
25648W        W32248  16.315   6.313  19.534 -0.1127  0.0828  0.0948
25649W        W32249   9.101   0.586  30.606  0.1060  0.1004 -0.0396
25650W        W32250  17.510   1.647   9.170  0.1288 -0.0008 -0.0862
25651W        W32251  21.061   4.098  19.003 -0.0235  0.2176  0.1922
25652W        W32252  14.495   6.479  28.092  0.0964  0.1165  0.2602
25653W        W32253  23.977   4.980  23.437  0.1506  0.1486  0.1453
25654W        W32254  21.935   1.368  17.748  0.2389 -0.1157  0.0787
25655W        W32255  19.968   7.747   9.841  0.0578  0.0534  0.2797
25656W        W32256   3.226   2.352   6.091  0.1538 -0.2589  0.0414
25657W        W32257   2.145   7.057  28.525  0.0969 -0.0231 -0.0493
25658W        W32258  21.843   6.793  22.881  0.0285  0.1010  0.0106
25659W        W32259  17.252   4.951  20.787  0.1467 -0.2249 -0.0616
25660W        W32260   3.895   5.398  31.188  0.3280 -0.2774 -0.1018
25661W        W32261  18.614   5.043   6.575 -0.2780 -0.2472  0.2594
25662W        W32262  18.165   3.141   8.946 -0.2352  0.0492 -0.0941
25663W        W32263   1.278   7.405   6.084  0.1017  0.0361 -0.1026
25664W        W32264   7.902   0.980   1.239 -0.2054 -0.3675  0.1952
25665W        W32265  23.737   6.807  29.582 -0.0953  0.0699  0.1238
25666W        W32266  10.622   6.643  31.819 -0.1486 -0.0891 -0.0392
25667W        W32267  16.827   0.920  20.153  0.0214 -0.0053 -0.2122
25668W        W32268   7.829   3.226  28.222  0.1136 -0.2522  0.1785
25669W        W32269  17.172   2.387  28.580 -0.2008  0.0974 -0.1837
25670W        W32270  19.542   4.248   8.131  0.0367 -0.1283 -0.0239
25671W        W32271  21.479   5.601  26.852  0.2423 -0.0977  0.2592
25672W        W32272  10.559   7.368   3.036 -0.2148  0.0258 -0.0619
25673W        W32273   1.144   4.242  10.173  0.1350 -0.0314 -0.1582
25674W        W32274   5.525   3.423   0.128 -0.1600 -0.0657 -0.2959
25675W        W32275   0.023   1.753  17.890  0.0121 -0.3364 -0.1708
25676W        W32276   6.956   3.506  29.444 -0.3363 -0.2099 -0.1678
25677W        W32277  13.088   1.656   3.100 -0.0441  0.0288 -0.0421
25678W        W32278   6.147   5.101  26.397  0.2900 -0.1407  0.0438
25679W        W32279  10.082   0.902  14.293  0.0313 -0.0523 -0.0429
25680W        W32280  22.862   6.528  20.930 -0.1748  0.2978  0.1599
25681W        W32281  16.899   5.590   9.321 -0.0289  0.3780 -0.1879
25682W        W32282  18.342   7.186   5.028  0.1795 -0.1143  0.2243
25683W        W32283   9.363   4.828  22.797  0.2951 -0.2938  0.0796
25684W        W32284  22.036   4.490   9.304  0.2055 -0.2194 -0.1212
25685W        W32285  17.358   2.946  22.137 -0.2259 -0.0076  0.1425
25686W        W32286  18.554   2.864  30.757  0.1271  0.1964  0.2161
25687W        W32287  18.543   7.515  29.950  0.1047  0.0525 -0.1613
25688W        W32288  11.692   4.923   5.738  0.0741  0.1245 -0.1747
25689W        W32289  18.199   6.366  22.970 -0.3034  0.0031  0.3761
25690W        W32290   6.631   6.240   3.829  0.2172 -0.0319 -0.0040
25691W        W32291   2.108   4.101  19.342 -0.1376 -0.2324  0.2995
25692W        W32292  14.793   2.074  31.380  0.3400 -0.1186  0.1015
25693W        W32293  24.023   7.517   5.518  0.1124  0.0826  0.1153
25694W        W32294  24.126   4.014  22.847 -0.0124 -0.1908  0.0631
25695W        W32295   3.829   2.068   6.804 -0.1231  0.0020  0.0158
25696W        W32296   0.195   5.835   5.417 -0.0268  0.2678  0.1224
25697W        W32297  24.303   6.262  29.244  0.0165  0.1305  0.2620
25698W        W32298  22.579   6.349  16.841  0.1196  0.2870  0.2265
25699W        W32299  12.667   5.203   0.895  0.2211 -0.0689  0.0800
25700W        W32300  11.608   3.383   5.813  0.0064  0.1873 -0.1340
25701W        W32301  14.202   1.978   8.850  0.1751  0.1468 -0.1547
25702W        W32302  11.212   7.163  10.224 -0.2699  0.0285 -0.0845
25703W        W32303  15.138   7.377  24.851 -0.2669 -0.0843  0.3741
25704W        W32304  13.284   5.054   4.934  0.0934  0.0423  0.1019
25705W        W32305   7.399   2.913  25.124  0.5278 -0.0450 -0.3223
25706W        W32306  15.526   6.149  23.740  0.0483  0.2180 -0.0544
25707W        W32307   8.980   7.142  25.960  0.1478  0.0912  0.0994
25708W        W32308   5.145   1.639  14.631  0.0057  0.2965  0.0196
25709W        W32309  23.942   7.572  20.832  0.2026 -0.0481 -0.2833
25710W        W32310   2.028   2.178   8.292  0.3757  0.0988  0.1197
25711W        W32311   1.936   2.365  31.328 -0.3123  0.0866 -0.0522
25712W        W32312  21.665   2.253   8.557 -0.0726  0.1763 -0.3024
25713W        W32313   8.700   5.872   4.733  0.0256  0.1747 -0.1144
25714W        W32314  14.583   4.253  26.395 -0.2213  0.0571 -0.1217
25715W        W32315  13.131   1.837  26.207  0.0966 -0.0172 -0.1535
25716W        W32316  22.149   4.820  19.284 -0.1696  0.1497  0.0076
25717W        W32317  22.780   1.155  10.615 -0.3729  0.3510  0.0743
25718W        W32318  20.157   5.316  20.185 -0.0856  0.1048 -0.1368
25719W        W32319  24.311   0.926  17.127 -0.1891 -0.0958  0.0935
25720W        W32320   7.993   3.688  30.978  0.3135  0.0576  0.2513
25721W        W32321  23.412   6.625  30.560  0.1001 -0.0630 -0.0598
25722W        W32322  19.346   0.631  26.615 -0.0977  0.1302 -0.0225
25723W        W32323   0.531   6.735   0.037  0.0453  0.1810  0.2290
25724W        W32324   6.260   1.436  14.809 -0.2228  0.1227  0.4604
25725W        W32325   7.902   0.112  31.870 -0.0952  0.0302  0.1214
25726W        W32326  11.080   6.916   9.478 -0.0245 -0.1329 -0.1495
25727W        W32327  21.721   5.025  19.628 -0.0779  0.0388  0.2031
25728W        W32328   2.147   3.309  10.418 -0.1865 -0.0311  0.2116
25729W        W32329  19.065   0.946   6.544 -0.0389 -0.0289  0.0944
25730W        W32330  10.931   5.805   4.192 -0.2451 -0.1506  0.3142
25731W        W32331   3.913   6.857   4.242  0.1650  0.0791 -0.3327
25732W        W32332  17.898   5.249   5.809 -0.0960  0.1823 -0.2735
25733W        W32333   7.778   7.379  23.737 -0.0243 -0.0990  0.1198
25734W        W32334   6.338   0.133   9.643 -0.0275  0.0631 -0.1449
25735W        W32335  23.112   2.004   5.721  0.0464 -0.0034 -0.1334
25736W        W32336  10.649   5.114  12.834 -0.1756 -0.0752 -0.1269
25737W        W32337   5.687   0.387  16.420  0.1512 -0.1403  0.0595
25738W        W32338  21.575   5.755   6.020  0.0191 -0.2498  0.1424
25739W        W32339  11.556   3.763   3.519 -0.3879  0.1191  0.0361
25740W        W32340   2.743   2.568   4.817 -0.2203 -0.2058 -0.0689
25741W        W32341  23.795   0.921  16.956 -0.2771 -0.2909 -0.2244
25742W        W32342  20.226   6.347  26.578 -0.0786 -0.1019  0.0105
25743W        W32343   6.880   3.173  31.031  0.1632  0.1296 -0.0424
25744W        W32344  10.413   2.789   7.216 -0.2687 -0.0773  0.0761
25745W        W32345  12.742   5.899   3.707 -0.0148  0.2232 -0.0514
25746W        W32346   2.342   5.223  28.185  0.0398 -0.1714 -0.0641
25747W        W32347   0.328   0.605  18.129 -0.2335  0.1927 -0.0752
25748W        W32348   2.022   3.108  26.061 -0.2977 -0.0110 -0.0515
25749W        W32349   1.735   4.266   4.759  0.0390  0.0187 -0.2396
25750W        W32350  15.727   2.316   2.233  0.1679  0.0678 -0.0029
25751W        W32351  21.306   2.466   3.918 -0.1257 -0.2050 -0.1343
25752W        W32352  11.913   3.860  25.648 -0.0089 -0.0759 -0.1703
25753W        W32353  18.895   6.120  28.494  0.0615 -0.2290 -0.1126
25754W        W32354   2.079   6.964  25.210 -0.0779 -0.0662 -0.1487
25755W        W32355   4.509   7.556  23.838  0.0973 -0.0276 -0.0413
25756W        W32356  12.642   2.315  12.019 -0.1325 -0.0700 -0.0868
25757W        W32357  22.543   1.745  21.591  0.2167  0.0907  0.0306
25758W        W32358   3.558   6.604  27.495  0.0069  0.1473 -0.2883
25759W        W32359  21.190   4.619  23.645 -0.0637  0.0880  0.1966
25760W        W32360  15.701   3.878  19.509  0.2404  0.0962  0.1436
25761W        W32361  11.709   4.034  11.289 -0.2797 -0.2091 -0.4494
25762W        W32362   6.944   3.927  14.984 -0.2105 -0.1799  0.0548
25763W        W32363   7.107   3.404  26.302 -0.0100 -0.2174  0.0985
25764W        W32364   9.915   3.729  27.639  0.0683 -0.0483  0.2111
25765W        W32365  24.116   6.255  21.658  0.1393 -0.2316 -0.0725
25766W        W32366   5.270   1.033   8.965  0.2225  0.1750 -0.0557
25767W        W32367  20.295   4.110   1.584 -0.0356 -0.1540  0.0488
25768W        W32368  23.592   0.558   2.960 -0.0624  0.1629  0.1831
25769W        W32369   2.415   4.148  25.525 -0.1330  0.1955 -0.1219
25770W        W32370  20.352   7.674  18.427  0.3634 -0.1928 -0.1144
25771W        W32371  18.986   6.072   4.629  0.0592  0.0554 -0.1509
25772W        W32372  18.136   1.754   6.715 -0.0515 -0.2304  0.0120
25773W        W32373  20.378   5.877   1.923 -0.0721 -0.2470 -0.0009
25774W        W32374   3.861   0.702   3.211 -0.0652 -0.1726 -0.1023
25775W        W32375  13.868   5.328  22.552 -0.0426  0.1799  0.0445
25776W        W32376  13.911   6.524  12.280  0.2265  0.1571  0.0863
25777W        W32377  11.509   2.730  16.965  0.2622 -0.0498 -0.0383
25778W        W32378   2.072   3.416   0.459 -0.1957  0.2473  0.2150
25779W        W32379  19.591   3.941  32.309 -0.0715  0.3454 -0.1816
25780W        W32380  22.850   4.985  17.834 -0.3009 -0.1847  0.2788
25781W        W32381  16.720   0.378  29.682  0.0697 -0.0020 -0.2337
25782W        W32382  24.313   4.017  16.784  0.1952 -0.0284  0.6270
25783W        W32383  15.474   7.505  23.743  0.0522  0.2205  0.1680
25784W        W32384   9.556   4.774   4.716 -0.0775  0.0568 -0.0257
25785W        W32385  16.310   3.410  32.077  0.0701 -0.3302 -0.1574
25786W        W32386   2.900   6.491  20.021 -0.0575 -0.2385  0.0968
25787W        W32387  24.905   3.746   7.264  0.2131  0.0432 -0.2326
25788W        W32388   9.705   7.290  32.060 -0.0006 -0.0068  0.0161
25789W        W32389  11.512   6.820  28.486 -0.1905 -0.2732  0.1585
25790W        W32390   5.592   3.793   1.417 -0.1260 -0.0714  0.0211
25791W        W32391   4.701   5.008  11.391 -0.1832 -0.0249 -0.3758
25792W        W32392   2.933   2.717   7.942  0.1325 -0.2312 -0.1177
25793W        W32393   9.211   4.729  11.947  0.0703 -0.0816 -0.1278
25794W        W32394   3.703   1.203   3.253 -0.0067 -0.1281 -0.2324
25795W        W32395  19.015   6.577  21.854 -0.1512 -0.0682 -0.1020
25796W        W32396  21.648   0.388  15.248  0.0759  0.1010  0.1567
25797W        W32397  20.039   4.745  29.275 -0.0618  0.2444 -0.1767
25798W        W32398  18.266   6.683  19.728 -0.0516  0.2475  0.2511
25799W        W32399  23.674   6.774  27.362 -0.2585  0.1117 -0.1114
25800W        W32400  21.299   0.671  32.450 -0.1668  0.1803  0.1052
25801W        W32401  22.489   4.223  28.970 -0.2295  0.0952  0.2083
25802W        W32402   8.984   5.654  10.709 -0.1649 -0.2477 -0.1756
25803W        W32403   6.067   6.871   7.208 -0.0289 -0.0419 -0.0929
25804W        W32404   3.737   0.587  29.286  0.0337 -0.1603 -0.1723
25805W        W32405  16.426   4.120   4.108 -0.1669  0.2699  0.1303
25806W        W32406  17.307   7.569  19.534 -0.0647  0.3142 -0.0364
25807W        W32407   7.118   7.577  18.128  0.0304 -0.3541  0.1122
25808W        W32408  18.442   2.695  29.372 -0.0446  0.0153 -0.0630
25809W        W32409  16.986   1.072   3.729  0.1822  0.3367  0.1424
25810W        W32410   9.715   3.560  15.734 -0.1391 -0.0008  0.3714
25811W        W32411  14.520   6.191  30.025  0.0484  0.0476  0.5451
25812W        W32412  12.646   1.907  29.357  0.1355 -0.0998 -0.0498
25813W        W32413  19.516   5.286  25.468  0.3033  0.3319 -0.0250
25814W        W32414   6.395   7.133   5.736  0.0581 -0.0173 -0.0598
25815W        W32415   3.936   1.706  28.324 -0.0960  0.2835 -0.0967
25816W        W32416  22.723   7.756  27.305  0.0261  0.5881  0.0935
25817W        W32417  20.319   5.030  14.466 -0.3914  0.1256 -0.0450
25818W        W32418  16.369   6.242  11.530 -0.1939  0.1223  0.0508
25819W        W32419   3.488   2.027   7.760 -0.1227  0.3328  0.2964
25820W        W32420  23.537   3.938   1.896 -0.3468  0.0641 -0.0707
25821W        W32421  24.088   3.604  19.123  0.3825  0.1519  0.1728
25822W        W32422   6.819   4.506   2.791  0.2649 -0.3074  0.1319
25823W        W32423  19.090   5.205   3.549 -0.2435 -0.1792 -0.0585
25824W        W32424  15.434   6.400  13.178 -0.0900  0.0182 -0.1059
25825W        W32425  24.030   2.512  15.852  0.0817  0.1401  0.2726
25826W        W32426  23.530   7.635   5.754  0.1034 -0.1003 -0.1884
25827W        W32427  20.294   0.934  27.265  0.1252  0.0898 -0.0526
25828W        W32428  11.931   4.569   7.622 -0.1158  0.1663 -0.0791
25829W        W32429   0.498   4.188  23.681  0.5141 -0.0656  0.0250
25830W        W32430   6.586   5.050   7.034  0.1840 -0.1231  0.2170
25831W        W32431  20.925   1.268  19.462 -0.0029  0.0874  0.0021
25832W        W32432  20.687   0.897  20.255  0.0182 -0.1841  0.0719
25833W        W32433  20.485   1.689   9.319 -0.0134  0.2043 -0.1697
25834W        W32434  13.645   1.820  21.868 -0.0017  0.1426 -0.0405
25835W        W32435  20.609   7.464  23.915 -0.0968  0.3355  0.0793
25836W        W32436  24.863   7.135   3.071  0.1611 -0.0907  0.0469
25837W        W32437  21.442   3.658  19.932 -0.0022 -0.1252 -0.0978
25838W        W32438   5.226   6.596   7.280 -0.0624 -0.3367  0.0896
25839W        W32439   2.382   6.811  24.407 -0.1357  0.0133 -0.0927
25840W        W32440   2.954   7.089   1.513 -0.2686 -0.0253 -0.0553
25841W        W32441  16.561   6.955   0.492  0.3817 -0.2491  0.1490
25842W        W32442   7.270   1.378  25.505 -0.1735 -0.1179  0.0195
25843W        W32443  22.875   2.720  28.280 -0.0053 -0.1498 -0.0145
25844W        W32444  18.797   5.059  28.468 -0.5272  0.0977  0.3953
25845W        W32445  13.357   5.241   3.011 -0.0525  0.0037  0.0194
25846W        W32446  18.683   1.708  21.099  0.2961  0.0938  0.1725
25847W        W32447  22.932   2.116  14.855  0.1742 -0.1052 -0.2317
25848W        W32448  19.143   2.236  23.148 -0.2012  0.0296 -0.0398
25849W        W32449  21.776   0.319  22.370 -0.1806 -0.3806 -0.0242
25850W        W32450  17.419   2.880   6.164  0.1248  0.0491 -0.1098
25851W        W32451   3.646   0.514  14.328  0.3877  0.1498  0.0991
25852W        W32452   0.361   2.702  22.368  0.4195 -0.1035  0.1811
25853W        W32453   6.555   2.748  15.271 -0.1193 -0.0603 -0.0491
25854W        W32454  19.127   6.219  17.146 -0.0527  0.0799  0.0093
25855W        W32455  16.194   6.619   6.964  0.2144 -0.1466 -0.2180
25856W        W32456   0.085   3.522  19.882  0.3202  0.2907  0.1791
25857W        W32457  20.710   6.861  31.489 -0.1200 -0.4365  0.1917
25858W        W32458  11.993   7.758  25.714  0.0617 -0.3030  0.2948
25859W        W32459   5.030   3.355  16.175 -0.0267 -0.1656 -0.0187
25860W        W32460   4.592   5.903  32.192 -0.0333  0.0193 -0.1365
25861W        W32461  14.136   6.952   6.074 -0.2318  0.0411 -0.0684
25862W        W32462  12.881   5.992  31.571  0.0702  0.0960  0.1004
25863W        W32463   6.220   4.955  31.054  0.0733  0.1553 -0.0058
25864W        W32464  15.706   0.970   9.827  0.0493  0.0753  0.1791
25865W        W32465  12.289   0.952   4.927  0.1749  0.1096  0.3447
25866W        W32466  15.943   3.093   9.375  0.1735  0.1025  0.0664
25867W        W32467   7.819   1.379  22.878 -0.0626  0.1606  0.0817
25868W        W32468  23.023   5.419  29.685  0.3337 -0.1628 -0.0164
25869W        W32469  23.561   0.760   2.468 -0.2470  0.0891 -0.0064
25870W        W32470  13.556   7.396   8.826 -0.1981 -0.2783  0.1618
25871W        W32471  23.730   4.414   5.676  0.0533 -0.4598 -0.2886
25872W        W32472  24.510   0.642   3.359 -0.1196 -0.2258 -0.0648
25873W        W32473   8.328   7.714   4.146 -0.0621 -0.0244 -0.0891
25874W        W32474   5.915   3.538  28.954  0.1550  0.2059  0.3285
25875W        W32475  12.954   5.141   8.821 -0.1289  0.3617 -0.2976
25876W        W32476   5.274   0.042  13.801  0.0333 -0.0967 -0.1070
25877W        W32477  12.219   6.343   4.863 -0.0795  0.1140  0.0303
25878W        W32478  11.842   7.356  10.382  0.0503 -0.0673 -0.1222
25879W        W32479  11.645   1.231  25.031  0.0655  0.2169 -0.0223
25880W        W32480  21.620   4.485  20.711  0.1214 -0.0902 -0.2008
25881W        W32481  14.516   7.672   0.900  0.2276  0.0300 -0.0853
25882W        W32482  23.697   2.971  30.803  0.2250 -0.0366 -0.0162
25883W        W32483  11.430   7.807  17.075 -0.2260 -0.0718 -0.0200
25884W        W32484   3.131   6.337   6.923 -0.1175 -0.0741 -0.5432
25885W        W32485   5.185   5.303   8.098 -0.2946  0.3057 -0.1009
25886W        W32486  19.553   3.258  22.954  0.1101  0.1427  0.0898
25887W        W32487   1.926   0.330  27.236 -0.4357 -0.0017 -0.1064
25888W        W32488  10.752   0.950  32.262  0.0081 -0.1251  0.0461
25889W        W32489  22.104   5.355  24.347  0.0273  0.1323  0.3167
25890W        W32490  17.107   0.623  25.436  0.0555  0.3449  0.2609
25891W        W32491   0.927   1.038  23.340  0.0813  0.1867 -0.2348
25892W        W32492   0.969   1.327  24.694 -0.2739 -0.1913  0.1280
25893W        W32493   6.989   6.441  30.596  0.1640  0.0590  0.0200
25894W        W32494   6.394   2.507  13.894 -0.1849 -0.0294  0.4261
25895W        W32495   2.962   1.877   5.853 -0.0482 -0.0333  0.1507
25896W        W32496  24.229   7.334  19.917  0.1534  0.0752 -0.1358
25897W        W32497   8.939   7.135   6.669 -0.1355  0.2639 -0.0424
25898W        W32498  13.170   1.206  11.947  0.0162 -0.0224  0.1787
25899W        W32499   1.707   0.474  29.635 -0.2113 -0.1947  0.1045
25900W        W32500  14.407   0.187  27.083 -0.0019 -0.1564 -0.1013
25901W        W32501   2.570   7.288   9.683  0.1308  0.1634  0.1091
25902W        W32502  16.377   2.003   0.585 -0.1693  0.1814  0.0594
25903W        W32503  21.465   3.290   1.957 -0.0678  0.2023  0.1704
25904W        W32504  10.695   0.417  24.357  0.2438 -0.0940  0.1694
25905W        W32505  16.883   3.978  21.529 -0.2665 -0.0548  0.2244
25906W        W32506  21.754   7.540   9.311  0.3756 -0.1071 -0.1223
25907W        W32507  17.356   6.340   6.367  0.0172  0.0997 -0.0428
25908W        W32508   5.729   7.559  12.489 -0.3188 -0.0310 -0.1189
25909W        W32509  16.169   0.518  29.081  0.1782  0.2468  0.3023
25910W        W32510   6.617   5.067  12.438  0.1418  0.1678  0.1959
25911W        W32511  14.027   2.244  30.886 -0.0296 -0.1294  0.0162
25912W        W32512  13.457   4.731  13.843 -0.2983  0.0857  0.3055
25913W        W32513  15.994   5.302  27.742  0.0720 -0.0489  0.0215
25914W        W32514  11.941   1.111   0.078 -0.1758 -0.0606  0.0663
25915W        W32515  22.244   3.806  29.837  0.0692  0.1123 -0.1745
25916W        W32516   3.438   4.987  12.633  0.0170  0.1729 -0.1111
25917W        W32517   8.050   6.062  10.086 -0.0266 -0.0196  0.0712
25918W        W32518  17.755   5.370  24.532  0.2237 -0.0327  0.0152
25919W        W32519  23.325   5.478  28.679  0.1978 -0.2334 -0.0849
25920W        W32520   9.134   3.665  27.785  0.1166 -0.1794 -0.1661
25921W        W32521  14.021   7.608  31.197 -0.1638  0.3716  0.0591
25922W        W32522   8.196   3.481  11.041  0.1196  0.0814  0.0537
25923W        W32523  22.558   2.562   1.746  0.3046  0.0623 -0.2964
25924W        W32524  17.071   7.274   5.502  0.0857  0.1738  0.1290
25925W        W32525  23.511   5.009   7.699 -0.1110 -0.2480  0.0836
25926W        W32526   2.655   3.935  29.443  0.0226 -0.1697 -0.3817
25927W        W32527   5.250   2.035  11.597 -0.0617  0.1032  0.3069
25928W        W32528  20.203   4.819  10.340  0.4210 -0.2181  0.2451
25929W        W32529  18.169   6.031   3.433  0.1387 -0.2489 -0.1520
25930W        W32530  18.197   0.271  31.803  0.0134  0.0071 -0.0167
25931W        W32531  13.158   4.601  28.931 -0.2822 -0.1913  0.0564
25932W        W32532   2.038   7.373   8.501 -0.0015 -0.0834 -0.1297
25933W        W32533  23.590   3.721   6.294  0.1429  0.0706  0.1955
25934W        W32534   3.151   4.130  21.605  0.2676  0.0438  0.0595
25935W        W32535  23.837   4.124  16.501  0.0526 -0.1356 -0.0349
25936W        W32536   5.307   1.027   0.158  0.1277 -0.3662  0.0792
25937W        W32537   2.350   3.223  21.827 -0.1345 -0.1342 -0.4172
25938W        W32538  19.754   0.940   3.484 -0.0681  0.2812  0.3121
25939W        W32539  23.603   1.520  15.188  0.2076  0.0314 -0.2687
25940W        W32540   3.641   2.238  10.914  0.0648 -0.1748 -0.0995
25941W        W32541   8.534   4.328  17.341  0.1697  0.4011  0.1697
25942W        W32542  14.297   6.130  31.409  0.0985  0.1189  0.0271
25943W        W32543  22.043   4.272  21.650  0.1511  0.0514  0.0323
25944W        W32544   2.572   6.244  28.765 -0.1255  0.3199  0.1472
25945W        W32545  11.297   1.843  13.714 -0.2011  0.0358  0.2934
25946W        W32546  20.615   4.591  15.783  0.5058  0.1443  0.0334
25947W        W32547   1.744   2.900   2.847 -0.1610  0.0598 -0.0727
25948W        W32548   8.334   0.227  18.005  0.0992  0.0402 -0.0352
25949W        W32549   7.825   4.536   1.339 -0.1046 -0.2242 -0.0771
25950W        W32550  22.813   7.126   4.802  0.0861 -0.0470 -0.3153
25951W        W32551   0.324   5.440  29.071 -0.0752 -0.0951  0.1945
25952W        W32552  18.472   1.455  20.677  0.2724  0.1538 -0.1693
25953W        W32553  22.372   0.325  19.218 -0.0517  0.1833 -0.1612
25954W        W32554  12.757   4.575  26.388 -0.4665  0.2371 -0.0858
25955W        W32555   1.252   3.837  18.361 -0.1283  0.1228  0.2647
25956W        W32556  22.466   2.833  29.709  0.3498 -0.1982  0.1393
25957W        W32557  11.969   7.575   9.956 -0.2839  0.1375  0.3368
25958W        W32558   2.710   3.622  27.284 -0.3013 -0.0789 -0.2105
25959W        W32559  19.622   0.411   5.993 -0.1245  0.1870  0.0325
25960W        W32560  19.954   3.945  30.892 -0.2052 -0.1489  0.0139
25961W        W32561  19.423   4.322  27.047  0.0425  0.1865  0.1310
25962W        W32562  20.009   5.754  29.318 -0.3024  0.0069  0.1799
25963W        W32563   4.437   6.137   7.208  0.2772  0.2788 -0.1487
25964W        W32564  22.024   5.028   6.344 -0.0289  0.0113  0.1815
25965W        W32565  16.385   3.367  21.070 -0.2246  0.1793 -0.1544
25966W        W32566  12.771   3.119  24.714 -0.1469  0.0456 -0.1279
25967W        W32567  18.256   6.413   4.349  0.0810  0.0648 -0.3410
25968W        W32568  14.593   2.144  32.702  0.0250 -0.2130 -0.1960
25969W        W32569   6.692   0.874  31.915  0.0243  0.0418 -0.2713
25970W        W32570   8.511   2.382  26.837 -0.2603 -0.1134 -0.1300
25971W        W32571   1.137   2.894  30.510 -0.2447 -0.1057  0.0829
25972W        W32572  11.337   1.446   5.303  0.1130  0.4266 -0.1703
25973W        W32573  20.317   3.733  32.514  0.3714  0.1363  0.0067
25974W        W32574  16.120   5.677   6.355 -0.3053 -0.0627  0.1164
25975W        W32575  24.091   6.113  18.006  0.0522 -0.0320 -0.0105
25976W        W32576  18.821   5.543   5.459 -0.0812  0.0140  0.1277
25977W        W32577  12.236   0.168  29.855 -0.0283  0.0149  0.2050
25978W        W32578   6.956   5.690  14.692 -0.0198  0.0425 -0.0201
25979W        W32579   5.777   0.131  11.049  0.3801  0.2275 -0.1698
25980W        W32580  13.137   6.819   8.960  0.0931  0.0825  0.2104
25981W        W32581  13.902   1.015  21.671 -0.4352  0.0288 -0.0750
25982W        W32582   8.255   2.667  15.527  0.0249 -0.0893 -0.2327
25983W        W32583  13.366   1.526   7.154  0.0311  0.0791  0.0777
25984W        W32584  12.366   4.205  31.270  0.0909  0.1845  0.2637
25985W        W32585   9.022   1.287  17.889  0.1151 -0.2435  0.2484
25986W        W32586  21.997   6.150  29.576  0.1031 -0.2047 -0.0907
25987W        W32587  10.369   2.284   2.528  0.3617  0.1960  0.0851
25988W        W32588  23.209   6.770  19.270  0.3249  0.1674  0.0262
25989W        W32589  11.924   3.687   7.931  0.0742  0.0855  0.2217
25990W        W32590   0.233   3.017  25.437  0.1665  0.0890  0.1282
25991W        W32591  13.982   3.969  10.390  0.0811 -0.2069  0.3510
25992W        W32592   6.423   2.742  10.723 -0.1272 -0.0799 -0.0055
25993W        W32593  17.365   5.915  32.350  0.2837  0.1607 -0.0343
25994W        W32594   7.377   1.394  32.249 -0.2683  0.2431  0.1947
25995W        W32595  16.327   6.891  11.048 -0.0769 -0.1486  0.0555
25996W        W32596   4.532   0.021   4.070 -0.1163 -0.1236 -0.1681
25997W        W32597  13.098   4.353  24.563 -0.1445  0.1432 -0.0534
25998W        W32598  10.021   0.091  14.755  0.3697  0.1341 -0.0227
25999W        W32599  14.236   7.617  21.494  0.1884  0.3546  0.0369
26000W        W32600   2.347   4.424  29.616  0.1027 -0.0802  0.1015
26001W        W32601   2.129   4.870  24.967 -0.0661  0.1891  0.2030
26002W        W32602   7.380   1.698  17.068  0.1209 -0.0644  0.0231
26003W        W32603  24.813   7.538   6.678  0.2545 -0.2338  0.2045
26004W        W32604   3.542   5.577   3.541  0.1432  0.1169  0.1416
26005W        W32605   9.215   3.963  25.069 -0.2905 -0.4195  0.0655
26006W        W32606  15.926   1.405  12.157  0.2903 -0.1807 -0.1992
26007W        W32607  23.057   5.233   1.627  0.3952 -0.1240  0.1769
26008W        W32608  19.157   0.137   7.243  0.0614  0.0528  0.0205
26009W        W32609   7.368   5.170   5.621 -0.2838 -0.1920  0.0870
26010W        W32610  14.291   6.125   4.313  0.1364 -0.0341 -0.3523
26011W        W32611  12.526   3.280  11.636 -0.0285 -0.1149 -0.0958
26012W        W32612  17.833   0.505  29.307 -0.2919 -0.1101  0.1349
26013W        W32613  20.978   1.436  27.577 -0.0801 -0.2509 -0.1737
26014W        W32614   4.193   2.384  10.274 -0.2575  0.0486 -0.1038
26015W        W32615   2.176   6.249  27.157  0.0832  0.2763  0.3881
26016W        W32616  24.886   6.576  19.610  0.1017 -0.0992 -0.3369
26017W        W32617   4.113   1.466  29.325  0.0254  0.1457 -0.1669
26018W        W32618  18.235   5.274  29.623  0.4148 -0.1849 -0.1789
26019W        W32619  19.737   1.945  28.422  0.0393 -0.2651 -0.1193
26020W        W32620  10.109   6.136   5.596 -0.0765 -0.0436 -0.2437
26021W        W32621  24.355   6.605   5.455 -0.0801 -0.0818 -0.0307
26022W        W32622   1.043   1.669  19.695  0.1228 -0.0779 -0.3464
26023W        W32623  23.797   2.971  29.505  0.0279  0.0533  0.0665
26024W        W32624  19.341   7.288   3.608  0.0021 -0.2590 -0.1359
26025W        W32625  12.817   0.007  14.408  0.0730  0.0954  0.0158
26026W        W32626  10.047   7.546  11.041  0.1408 -0.0544 -0.2262
26027W        W32627  23.395   7.059  24.584  0.0997  0.3184  0.2637
26028W        W32628  20.556   5.397  15.772  0.2605 -0.2157  0.1534
26029W        W32629  22.890   1.164   0.746  0.2564 -0.0410 -0.2233
26030W        W32630  18.376   1.351  29.442 -0.2232 -0.0185  0.0446
26031W        W32631  11.457   0.242  31.079  0.1041 -0.0373 -0.1487
26032W        W32632  16.405   5.743  19.531  0.1309  0.0517 -0.0884
26033W        W32633   6.527   3.208   8.178 -0.1869 -0.0729 -0.1593
26034W        W32634  18.941   0.323  17.510  0.2803  0.0453 -0.0158
26035W        W32635  18.488   1.142  28.252 -0.1911 -0.1822  0.0873
26036W        W32636   2.850   3.493  23.391 -0.0611 -0.2878  0.1538
26037W        W32637   6.709   2.035   9.322 -0.0018 -0.1203 -0.2202
26038W        W32638   8.374   1.663   4.837 -0.2990  0.0503  0.2043
26039W        W32639  23.750   4.581  19.782  0.2285 -0.2742 -0.2338
26040W        W32640  14.570   7.577   3.736 -0.1445 -0.0319 -0.0213
26041W        W32641   1.022   4.866  20.874  0.2536 -0.0358 -0.1422
26042W        W32642  17.923   0.127  11.660  0.2000 -0.0776  0.0833
26043W        W32643  16.712   2.504  20.533  0.2067 -0.0469 -0.3267
26044W        W32644  21.379   2.880  23.423 -0.0882  0.2042 -0.1477
26045W        W32645  23.434   0.124  24.829 -0.0290  0.0641  0.0931
26046W        W32646  20.813   6.869  10.486  0.2239  0.0616 -0.1629
26047W        W32647   6.562   7.622   3.949  0.2891 -0.3433  0.0624
26048W        W32648  21.928   6.993   1.805  0.2764  0.2796  0.1332
26049W        W32649   9.426   5.873  31.880 -0.1804  0.2517  0.0047
26050W        W32650   7.737   7.208  26.305  0.0103 -0.0990 -0.0204
26051W        W32651  13.130   1.314  29.418 -0.1155 -0.0961  0.1468
26052W        W32652  10.946   7.779   6.898  0.2586 -0.3382 -0.0369
26053W        W32653  24.443   2.758   7.401  0.0193 -0.2227 -0.1689
26054W        W32654  21.906   4.640  19.960  0.3304 -0.0311  0.0902
26055W        W32655  11.479   3.043  13.181 -0.1242 -0.0167 -0.2243
26056W        W32656  20.434   6.077  21.291  0.1516 -0.0136 -0.0045
26057W        W32657  12.837   4.906  29.138  0.0891  0.1795 -0.0673
26058W        W32658   6.222   5.766  30.693  0.0753 -0.0837 -0.3309
26059W        W32659   5.963   3.013   4.392  0.2409 -0.0562 -0.0310
26060W        W32660  20.533   3.790  21.303 -0.0217 -0.2603 -0.1252
26061W        W32661  20.871   7.309   2.189  0.2773 -0.1008  0.4115
26062W        W32662  16.437   2.058   3.542  0.1943 -0.1253 -0.0126
26063W        W32663  18.454   4.658   8.827 -0.0044 -0.1760 -0.1773
26064W        W32664  17.811   1.565  24.765 -0.2820  0.0480  0.3063
26065W        W32665  23.449   3.424   8.882  0.0858 -0.1274  0.0024
26066W        W32666   3.468   5.318   7.341  0.0070 -0.0021 -0.3617
26067W        W32667  11.926   5.158  25.436 -0.2165  0.2040  0.0283
26068W        W32668  24.668   7.630   4.034  0.1791  0.1115  0.1700
26069W        W32669  20.670   3.390   3.677 -0.0551  0.0905 -0.1077
26070W        W32670   5.705   6.505  12.522  0.0299  0.1963  0.0050
26071W        W32671  10.152   6.368  29.803 -0.0527  0.0940 -0.1035
26072W        W32672  13.560   0.962   2.997  0.3584 -0.0940 -0.1417
26073W        W32673  23.976   6.753  17.569  0.0195  0.4383 -0.3223
26074W        W32674  10.966   5.156  25.389 -0.0029 -0.3534  0.2764
26075W        W32675  10.668   1.636  26.168 -0.0474 -0.4223  0.3144
26076W        W32676  17.330   4.916   4.634  0.0132 -0.0599  0.0989
26077W        W32677   2.272   1.551  30.704  0.1429  0.2453  0.0619
26078W        W32678  18.335   7.334   6.251 -0.3159 -0.2217  0.0603
26079W        W32679   1.593   6.112  25.027 -0.0591  0.0104 -0.1878
26080W        W32680  11.213   6.218  27.228 -0.0368  0.0619 -0.1296
26081W        W32681  13.197   4.916   2.259  0.2380 -0.2859 -0.0503
26082W        W32682  23.484   1.370   0.543 -0.0345 -0.0088  0.0610
26083W        W32683   3.678   3.443   1.170  0.1630  0.1080  0.1891
26084W        W32684   1.673   0.750  24.957  0.2283 -0.1689  0.0541
26085W        W32685  20.537   7.238   9.593 -0.0381 -0.2399  0.3185
26086W        W32686  24.670   6.511  25.846 -0.0655 -0.2310  0.0263
26087W        W32687   5.824   6.803  28.531  0.1388 -0.1488  0.0209
26088W        W32688   9.126   3.523  10.479  0.0793  0.0474  0.0483
26089W        W32689  17.079   2.155  20.310 -0.0855  0.0206  0.1557
26090W        W32690  19.482   3.207  18.744 -0.4547  0.1233 -0.3183
26091W        W32691   9.966   6.613   8.933 -0.2840 -0.5505  0.1302
26092W        W32692   6.095   1.825   7.642  0.0248 -0.0449  0.1144
26093W        W32693   1.763   2.613  11.032  0.2427 -0.0422 -0.0821
26094W        W32694  22.846   4.581   1.924  0.1564 -0.0437  0.1739
26095W        W32695  11.327   3.435  27.760 -0.1473 -0.0797  0.0592
26096W        W32696  11.903   1.626  11.911 -0.0413 -0.2490 -0.0766
26097W        W32697  17.133   4.359  24.541  0.0508 -0.0125  0.0533
26098W        W32698  22.548   1.588  18.723  0.1533  0.2100  0.1137
26099W        W32699  20.442   3.434  26.918  0.2386 -0.0807  0.1410
26100W        W32700  14.408   0.865  25.296 -0.2661  0.0958 -0.4079
26101W        W32701   1.599   3.748   6.656  0.3443 -0.2546  0.1649
26102W        W32702  16.822   0.561   8.568  0.3479  0.0575 -0.4631
26103W        W32703  19.631   7.778   6.945  0.1179 -0.1249 -0.2232
26104W        W32704   5.514   5.337   5.956 -0.0889  0.0392 -0.3793
26105W        W32705   4.413   4.874   8.305 -0.0104  0.2149  0.0611
26106W        W32706  15.518   0.788   5.862 -0.2970  0.0691  0.0649
26107W        W32707   7.823   4.794  31.383  0.0426  0.3431  0.1756
26108W        W32708  17.789   5.702   8.430  0.2321  0.0815 -0.2275
26109W        W32709  18.992   7.572   8.003  0.0468  0.1732  0.1528
26110W        W32710   4.906   6.690  29.998  0.1288 -0.2071 -0.0723
26111W        W32711   1.276   7.483  30.024  0.0139 -0.0424  0.0467
26112W        W32712   9.576   5.421  28.650  0.1679  0.1521 -0.0803
26113W        W32713  22.517   0.328  20.401  0.0942  0.0862  0.0360
26114W        W32714   2.479   6.401   6.739  0.0719  0.0164  0.1287
26115W        W32715  22.710   2.139   9.400  0.0143 -0.0844  0.0330
26116W        W32716   5.146   5.822   1.532  0.2059 -0.3464 -0.0874
26117W        W32717   8.540   4.207  32.670 -0.2188  0.1095 -0.0067
26118W        W32718  17.326   1.045   1.507  0.2202  0.0877 -0.0534
26119W        W32719  13.827   6.279  31.027 -0.1797 -0.1109 -0.2515
26120W        W32720   8.550   7.174  22.716  0.0977  0.0868 -0.0339
26121W        W32721  16.023   0.876  20.581 -0.0995  0.1285  0.0427
26122W        W32722   2.990   0.539   0.794  0.2908  0.0532 -0.2056
26123W        W32723   7.605   6.987  16.858 -0.0854 -0.0403 -0.1364
26124W        W32724   3.353   6.531  26.499  0.0708 -0.0486  0.1667
26125W        W32725  15.312   7.503  28.231  0.1507 -0.0620 -0.3525
26126W        W32726  20.162   2.044   4.113  0.4105  0.1292 -0.2086
26127W        W32727  22.280   1.296  19.088  0.1793  0.2515 -0.1121
26128W        W32728   2.921   6.564   2.051 -0.2150 -0.0455 -0.0650
26129W        W32729   2.846   4.652  30.915  0.2776  0.0173  0.1784
26130W        W32730  12.710   4.792   5.612  0.3684  0.2818 -0.2894
26131W        W32731   3.580   2.375   6.468 -0.0262  0.2675  0.0876
26132W        W32732   4.017   1.756   7.328 -0.2310 -0.0402 -0.2406
26133W        W32733  12.953   5.798  30.623  0.0683 -0.1378 -0.0058
26134W        W32734   6.101   3.961  24.918 -0.1270 -0.1249 -0.0002
26135W        W32735  17.400   7.412   2.312 -0.2460 -0.0331  0.1199
26136W        W32736  22.142   3.304  31.007 -0.2488 -0.1307  0.0883
26137W        W32737   5.631   7.730  15.472 -0.0782 -0.2369  0.1588
26138W        W32738   0.669   2.470  22.981 -0.2987 -0.1087 -0.2068
26139W        W32739  19.334   6.892   7.379  0.1282  0.0182  0.0015
26140W        W32740  15.730   6.671  21.932  0.0150 -0.2265  0.1737
26141W        W32741   5.237   1.696   4.434 -0.0598  0.0217  0.0248
26142W        W32742   7.131   2.204  24.662 -0.2945 -0.2857 -0.2757
26143W        W32743   3.724   5.255   3.128 -0.3345  0.2698 -0.1303
26144W        W32744  16.080   0.648  32.512 -0.2464  0.2672  0.0885
26145W        W32745   7.162   1.150  11.008 -0.1582  0.1951  0.0311
26146W        W32746  14.436   1.559   8.686  0.1064  0.0916 -0.1355
26147W        W32747  14.637   5.235   4.236  0.1686 -0.0280  0.1859
26148W        W32748  14.172   5.199   4.448 -0.2488 -0.0594 -0.1901
26149W        W32749  11.713   0.873   7.323 -0.0440  0.0973 -0.0586
26150W        W32750  15.373   6.034  20.234  0.2509  0.0245 -0.0966
26151W        W32751   5.976   4.291  23.950 -0.1246 -0.1262 -0.0351
26152W        W32752  18.119   0.693   1.211 -0.4557  0.0438  0.1803
26153W        W32753  15.079   5.640   2.060  0.0922 -0.2751 -0.1926
26154W        W32754   9.244   3.738  16.349 -0.3553 -0.2256 -0.1510
26155W        W32755   6.121   6.144  22.319 -0.0087 -0.1396  0.1362
26156W        W32756   9.399   6.219   0.481  0.2356  0.1381  0.3673
26157W        W32757  23.365   6.350   1.030  0.1289  0.0969  0.4063
26158W        W32758  18.778   3.692  16.174 -0.3594  0.0695  0.0380
26159W        W32759  16.342   0.051  19.263  0.1532 -0.0880  0.0378
26160W        W32760   3.963   1.433  23.218 -0.2505 -0.2284 -0.1306
26161W        W32761  16.710   1.943   2.875 -0.0685  0.0868 -0.2084
26162W        W32762   6.730   7.730  11.874 -0.1369 -0.0694 -0.1460
26163W        W32763  21.683   1.452  32.623 -0.1801 -0.2464 -0.0145
26164W        W32764  21.811   1.362   9.186  0.0695  0.0770  0.0895
26165W        W32765   8.079   0.772  10.996 -0.1943  0.1603  0.1312
26166W        W32766  16.113   2.693  21.295  0.1898 -0.0555 -0.2644
26167W        W32767  13.272   3.988  12.408  0.1545 -0.2012 -0.1643
26168W        W32768  23.493   1.296  28.196 -0.3435 -0.0772  0.0413
26169W        W32769  24.439   5.179   6.665 -0.1228  0.2089  0.0358
26170W        W32770  15.398   2.676   1.530  0.3171 -0.0761  0.1153
26171W        W32771   5.044   6.270  27.080  0.0872  0.0215  0.0535
26172W        W32772  14.904   7.598  12.045  0.1346 -0.1019  0.2077
26173W        W32773  13.819   4.960  27.289 -0.0865 -0.2111 -0.2747
26174W        W32774  12.409   2.636  23.980 -0.1876  0.1284  0.2613
26175W        W32775  22.255   3.308  27.482  0.0538 -0.1640 -0.1016
26176W        W32776  11.798   4.605  32.669 -0.1501  0.1841 -0.1743
26177W        W32777  10.372   7.354  28.126  0.2936 -0.1169  0.2214
26178W        W32778  21.046   5.271  20.480  0.0124 -0.0268 -0.0600
26179W        W32779  20.018   1.546   5.314 -0.1524 -0.1304 -0.3499
26180W        W32780  12.686   5.234  24.316 -0.1071 -0.1295 -0.2471
26181W        W32781  18.777   0.053   6.262  0.0649 -0.0754  0.1434
26182W        W32782   8.712   0.627  16.752 -0.2461  0.2246  0.0929
26183W        W32783  23.241   3.519   7.412  0.3003 -0.1101 -0.1768
26184W        W32784   1.162   6.964  22.258 -0.4165 -0.1660  0.3252
26185W        W32785  13.724   2.284  28.127  0.1834 -0.0929 -0.2349
26186W        W32786  24.303   1.551   5.456  0.0960 -0.2175  0.2182
26187W        W32787  17.308   0.514   2.975  0.1471  0.1731  0.1846
26188W        W32788  10.771   4.239   4.748  0.0568  0.2976  0.0698
26189W        W32789   1.072   7.636  21.172  0.1486 -0.2271 -0.2853
26190W        W32790  22.944   1.952   5.255 -0.2805 -0.0825  0.2442
26191W        W32791  20.274   0.715  20.056 -0.1370  0.1547  0.1677
26192W        W32792   8.771   7.173  31.875 -0.2635  0.1978 -0.1681
26193W        W32793   1.935   7.113  11.653  0.2250  0.1050  0.2728
26194W        W32794   6.198   7.074   9.929 -0.2028 -0.0018  0.0809
26195W        W32795  19.904   7.200   2.503  0.0875 -0.3085  0.2981
26196W        W32796  24.593   6.051   9.236  0.0031  0.0658  0.3167
26197W        W32797  23.435   1.780  23.129 -0.1478  0.0176  0.0978
26198W        W32798   0.551   5.049  30.872  0.0800 -0.0567 -0.2521
26199W        W32799   1.477   3.384  27.650  0.2262 -0.1089 -0.2590
26200W        W32800   4.231   5.570   9.827  0.0862  0.0507 -0.0013
26201W        W32801  24.392   3.173  19.978  0.0570 -0.3420  0.0029
26202W        W32802  17.494   4.062   7.569  0.0508  0.0974 -0.3802
26203W        W32803  11.907   0.469  26.750  0.1271  0.0569 -0.0487
26204W        W32804   7.903   6.400   0.824  0.0281  0.0487 -0.1304
26205W        W32805  10.017   2.676   1.460  0.1670  0.1496 -0.1188
26206W        W32806  16.154   0.413   7.873  0.0599  0.1353 -0.1095
26207W        W32807  15.927   0.213   0.676 -0.0272  0.2309  0.2402
26208W        W32808   5.546   5.813   6.169  0.1947 -0.1421 -0.2119
26209W        W32809   0.246   2.031  24.375  0.0745  0.1558 -0.1634
26210W        W32810  19.580   1.399  32.234 -0.0267 -0.0448 -0.0663
26211W        W32811   0.770   2.930  29.238  0.2151 -0.1615  0.3745
26212W        W32812  23.652   3.540  25.191 -0.1710  0.0772  0.0354
26213W        W32813   4.343   6.440  11.913 -0.1261  0.0651  0.0956
26214W        W32814   1.412   2.911  19.796  0.0267  0.1652  0.1505
26215W        W32815  22.729   6.868  32.047 -0.1003 -0.0087 -0.2897
26216W        W32816  22.471   4.960   7.427 -0.1317 -0.0366 -0.4407
26217W        W32817   2.921   2.551  24.328  0.1219 -0.0662  0.1721
26218W        W32818  16.655   6.161  25.303  0.3355  0.2871  0.0290
26219W        W32819  12.453   7.146  12.409 -0.0904 -0.1117 -0.3203
26220W        W32820  13.077   0.974  23.635  0.0729 -0.3454  0.0151
26221W        W32821  15.768   6.199   2.515  0.2144 -0.0087  0.3344
26222W        W32822  14.395   7.602   6.667  0.1395  0.0517 -0.2011
26223W        W32823  22.377   0.456   5.360  0.1136 -0.1713 -0.1208
26224W        W32824   4.037   6.966   7.580 -0.2146  0.0753  0.0615
26225W        W32825  17.778   5.545   6.504 -0.0972 -0.1389 -0.1389
26226W        W32826   2.934   7.780  23.091 -0.2066 -0.1070 -0.2755
26227W        W32827  21.587   3.965  20.868  0.1131 -0.2376  0.1082
26228W        W32828  13.548   7.096   5.948 -0.0176 -0.1897 -0.1950
26229W        W32829  14.621   7.643   2.761  0.0718 -0.1419  0.0729
26230W        W32830   1.090   3.575   4.812  0.1530 -0.1522  0.0272
26231W        W32831  11.707   2.010  15.430 -0.0987 -0.2230  0.1142
26232W        W32832  24.455   7.026  29.011 -0.0083  0.3605  0.3747
26233W        W32833  20.384   0.497   6.720 -0.1792 -0.0512 -0.1330
26234W        W32834   4.175   6.914   1.785  0.0175  0.0592  0.0873
26235W        W32835   0.245   5.943   7.886  0.1217 -0.2093 -0.0315
26236W        W32836   8.759   7.026   0.333 -0.0859 -0.0028  0.3634
26237W        W32837  17.845   4.319   1.655 -0.2415  0.0350 -0.0305
26238W        W32838   5.608   4.409  25.201  0.1020 -0.0287  0.0637
26239W        W32839  18.432   4.232   6.502 -0.1004  0.1515 -0.0538
26240W        W32840  12.006   1.351  16.076  0.2308  0.0095 -0.1160
26241W        W32841  22.972   6.034   9.005 -0.0421  0.2462 -0.3787
26242W        W32842  14.327   4.811   9.394  0.1540 -0.1424 -0.0959
26243W        W32843   5.059   0.024   4.115 -0.2697 -0.1035  0.0837
26244W        W32844   8.343   3.507  26.061  0.0130 -0.0488  0.1080
26245W        W32845  16.275   2.475  23.209  0.0302 -0.0638 -0.1587
26246W        W32846  15.602   3.116  30.238  0.0099 -0.1513 -0.1188
26247W        W32847  20.897   5.920  21.526 -0.1391 -0.0569 -0.1502
26248W        W32848   4.022   2.874   5.101 -0.1772  0.0236 -0.0986
26249W        W32849  15.870   0.396   8.751  0.0734 -0.1326 -0.2107
26250W        W32850  16.162   6.304   5.647 -0.1082 -0.0791 -0.0642
26251W        W32851  23.981   6.024   3.040  0.4504  0.2168  0.2251
26252W        W32852  22.734   3.604  26.740 -0.0721 -0.2639 -0.1612
26253W        W32853   6.844   0.528  14.141 -0.2076  0.0674  0.0745
26254W        W32854   6.537   0.464  30.673 -0.1268 -0.0404  0.0465
26255W        W32855  12.406   6.564  31.325  0.0537  0.0058  0.0894
26256W        W32856  10.372   3.615  29.506 -0.1132  0.1307  0.1384
26257W        W32857   1.609   6.123   2.205  0.2627  0.3181 -0.0911
26258W        W32858  16.804   7.087  18.797 -0.2772  0.0879  0.1496
26259W        W32859  16.065   0.779  22.287 -0.1999 -0.1616  0.2924
26260W        W32860  11.864   6.002   1.046  0.1070 -0.0134  0.2240
26261W        W32861   7.702   5.583   4.280 -0.0605  0.0859  0.0533
26262W        W32862  19.967   5.623   3.464 -0.3382 -0.1901 -0.1969
26263W        W32863   7.259   6.779  29.654  0.0548 -0.1137  0.1419
26264W        W32864   6.781   7.390   1.030  0.0233  0.0541 -0.0247
26265W        W32865   7.182   6.007  11.157 -0.2666 -0.1120  0.1778
26266W        W32866   0.273   7.204  32.534 -0.3250  0.2928  0.1510
26267W        W32867   9.277   3.706  15.362 -0.0065 -0.0160 -0.4259
26268W        W32868  16.379   5.305  11.307  0.1317  0.2810 -0.1168
26269W        W32869  16.550   6.222   8.670  0.1635 -0.2093  0.0355
26270W        W32870  10.368   4.238   1.581  0.0776 -0.3675 -0.0383
26271W        W32871   7.324   2.224   7.171  0.0804 -0.0628 -0.0641
26272W        W32872   3.629   0.078   7.631  0.0535  0.2057  0.0677
26273W        W32873   1.497   1.835  32.431 -0.0461 -0.0523 -0.2607
26274W        W32874  11.287   0.321  17.898 -0.2428  0.1634  0.0211
26275W        W32875  13.996   0.464  29.803  0.0294 -0.1154 -0.2682
26276W        W32876  13.464   2.279  28.859 -0.3065 -0.2498 -0.1257
26277W        W32877  23.351   0.580  19.679 -0.0185  0.1669 -0.1677
26278W        W32878  18.858   6.138  19.907  0.1104  0.4887 -0.1571
26279W        W32879   9.042   5.613  17.661  0.2037 -0.0096  0.0313
26280W        W32880  24.306   5.302  30.041 -0.0740 -0.0590 -0.1264
26281W        W32881   4.668   4.016  30.338 -0.0434  0.0379 -0.0951
26282W        W32882   6.922   2.377  32.033  0.4205 -0.0231 -0.0958
26283W        W32883  21.376   5.736   7.793 -0.2297 -0.1065 -0.4565
26284W        W32884  13.617   5.802   5.829 -0.1784  0.0261 -0.2486
26285W        W32885   5.564   3.086  11.294 -0.1367  0.2339  0.0536
26286W        W32886  17.122   4.626   8.340 -0.3320  0.0653 -0.2457
26287W        W32887  17.272   3.213  31.278  0.0310 -0.0869  0.1685
26288W        W32888   0.576   1.522  17.206 -0.0626  0.0656  0.0739
26289W        W32889   4.433   6.020   5.749  0.2882 -0.2816  0.0413
26290W        W32890  13.031   5.717  27.099  0.0877 -0.1826 -0.1911
26291W        W32891  17.938   3.576   6.449 -0.2740 -0.0834  0.1697
26292W        W32892  15.986   5.015  30.508  0.2510 -0.1524  0.2595
26293W        W32893  21.635   6.303  24.934  0.2706  0.1644 -0.0661
26294W        W32894  10.679   7.589  26.704  0.1447 -0.0483  0.1863
26295W        W32895   7.267   7.289  24.020 -0.0315  0.2690  0.1161
26296W        W32896  20.336   4.109  31.129  0.1206  0.1248 -0.0120
26297W        W32897  12.378   3.183  10.451 -0.0244  0.3535  0.4516
26298W        W32898  22.750   7.777  10.759  0.0156  0.0270 -0.0168
26299W        W32899   3.671   6.957   8.027 -0.1135 -0.3335  0.1023
26300W        W32900  21.744   3.922  29.250 -0.3424 -0.0255 -0.0747
26301W        W32901   2.347   0.575  20.858  0.0736  0.0179  0.1231
26302W        W32902   4.156   0.309  24.563 -0.1018  0.1547  0.1051
26303W        W32903   4.549   1.004   7.726  0.1379 -0.2798  0.0655
26304W        W32904  18.454   3.197   2.227  0.1050  0.2694 -0.0354
26305W        W32905   5.827   3.819  23.998  0.1785 -0.3042 -0.1288
26306W        W32906  22.449   1.381   0.546  0.0463  0.1672 -0.3026
26307W        W32907  13.302   7.341  24.274 -0.0823 -0.1289 -0.1826
26308W        W32908  16.910   6.225  10.333 -0.1202 -0.4124  0.2239
26309W        W32909   3.351   3.998   2.336 -0.0717 -0.1782  0.1689
26310W        W32910  13.977   3.189   2.197 -0.1443  0.3458  0.0861
26311W        W32911  17.125   5.670   8.416 -0.0853  0.2050 -0.2996
26312W        W32912  23.188   5.087  19.163  0.1261 -0.0892  0.1130
26313W        W32913   4.118   0.037   9.338 -0.0643 -0.0113 -0.2418
26314W        W32914   4.875   4.297  23.911 -0.0797 -0.1147 -0.4160
26315W        W32915   0.331   4.104   9.120 -0.0931  0.3313 -0.0784
26316W        W32916  10.639   4.633  25.362  0.1237 -0.1721 -0.0149
26317W        W32917  25.040   7.628  20.266 -0.0571 -0.1280 -0.2272
26318W        W32918   1.083   5.580  29.634 -0.1702  0.0139  0.4038
26319W        W32919  18.777   1.272  26.159 -0.2429  0.1262  0.0827
26320W        W32920   7.574   2.478  16.743 -0.4026  0.1216 -0.1075
26321W        W32921  17.220   1.317  29.842 -0.3185  0.0380 -0.1467
26322W        W32922   6.020   7.499   0.643  0.0343  0.1049  0.2970
26323W        W32923  22.408   4.972   0.826  0.0761 -0.1866 -0.1138
26324W        W32924  19.714   4.156   9.175  0.1860  0.0766 -0.0248
26325W        W32925  13.611   4.766  11.657  0.0498 -0.0857  0.2346
26326W        W32926  13.891   0.599  24.493 -0.0509  0.1753 -0.0606
26327W        W32927   8.961   5.797  22.702  0.1598  0.2543  0.0419
26328W        W32928   8.249   1.124  23.062  0.1788 -0.0637  0.2052
26329W        W32929  22.707   1.022  19.295 -0.0313  0.2673 -0.2202
26330W        W32930  16.544   7.616   9.738  0.1514 -0.0986 -0.1959
26331W        W32931   3.594   3.572  12.202  0.0188 -0.0937  0.1818
26332W        W32932   1.292   1.753  22.881 -0.4275 -0.0353  0.3848
26333W        W32933   0.584   6.646   3.188 -0.3464  0.0302  0.0536
26334W        W32934   5.620   1.035   1.014 -0.0939 -0.0795  0.1311
26335W        W32935   4.207   1.153  26.603 -0.1925 -0.2813 -0.2299
26336W        W32936  23.122   2.122   7.517 -0.2671  0.2501  0.1330
26337W        W32937  11.998   2.248  14.681  0.0629  0.4269 -0.2300
26338W        W32938   8.470   3.855  10.773 -0.0188 -0.0561  0.0797
26339W        W32939   7.164   0.539   6.652 -0.0685  0.0048 -0.1202
26340W        W32940   5.469   2.778  24.792 -0.0638 -0.1140  0.0386
26341W        W32941  21.938   3.621  19.714  0.2124 -0.1036 -0.1561
26342W        W32942   3.547   1.515  10.662  0.1740 -0.0584 -0.0247
26343W        W32943  24.754   1.735  29.665 -0.2164  0.5227 -0.0054
26344W        W32944  16.478   5.337  19.297  0.2336 -0.1199 -0.1092
26345W        W32945   0.032   0.709  24.491 -0.1273  0.0605 -0.2702
26346W        W32946  12.828   3.008   1.696  0.4001  0.2131  0.1142
26347W        W32947  10.821   1.438  32.319 -0.0081 -0.0307  0.1668
26348W        W32948  12.507   3.590  21.491  0.3226 -0.0190  0.1033
26349W        W32949   1.613   4.002   3.459 -0.0259  0.1770 -0.1231
26350W        W32950  11.959   5.746  27.811 -0.1969 -0.0225 -0.1263
26351W        W32951   8.378   7.635   3.645 -0.1396 -0.2359  0.0576
26352W        W32952   1.398   1.044   1.606 -0.3013 -0.0175 -0.0590
26353W        W32953   5.190   4.221  12.900 -0.0229  0.0551  0.1992
26354W        W32954  17.331   1.366  21.152 -0.0957  0.4703  0.2832
26355W        W32955  14.820   7.469   3.301 -0.1663 -0.1892 -0.1163
26356W        W32956   2.146   0.729  24.355  0.0480 -0.2281  0.3469
26357W        W32957   9.643   3.378  11.643 -0.0636 -0.0158 -0.3357
26358W        W32958   0.010   0.011  26.426  0.0093 -0.0765 -0.0219
26359W        W32959  23.524   1.016   5.928  0.0885  0.3275 -0.0945
26360W        W32960   1.955   3.843   3.107  0.0896  0.0788 -0.1081
26361W        W32961  18.534   1.758  29.695  0.1892  0.2090  0.2743
26362W        W32962  22.740   6.631  20.000 -0.3415 -0.1405 -0.0890
26363W        W32963  17.737   6.702  17.115  0.0031 -0.0377  0.4457
26364W        W32964   5.559   0.871  14.436  0.0615 -0.0908  0.0201
26365W        W32965  21.346   1.989  31.797 -0.0156 -0.2323 -0.0874
26366W        W32966  24.603   5.566   7.006  0.2630 -0.0281  0.2450
26367W        W32967   4.383   4.794  26.251  0.0662  0.0807  0.0789
26368W        W32968   5.439   7.020  31.364 -0.0518  0.0402 -0.2132
26369W        W32969  12.363   5.561  12.495 -0.0603  0.0239  0.0281
26370W        W32970   0.038   2.169  32.322  0.1521 -0.4416  0.0094
26371W        W32971  17.188   4.929  32.385  0.2698 -0.1970 -0.0507
26372W        W32972  13.662   1.262  10.312  0.2675 -0.1648  0.1030
26373W        W32973  13.176   3.672  10.852  0.2502 -0.3029 -0.3852
26374W        W32974  24.977   6.310   8.739  0.0285 -0.0102  0.1127
26375W        W32975   3.375   4.981  24.127 -0.1505  0.2654 -0.0378
26376W        W32976  23.878   0.506   0.793 -0.0081  0.3627  0.2057
26377W        W32977  14.954   5.162   6.372  0.3102  0.0182  0.1199
26378W        W32978  19.099   5.862  24.970 -0.0650 -0.1169  0.2246
26379W        W32979   3.716   2.375  30.909  0.6090  0.0083 -0.0544
26380W        W32980  17.744   7.740  17.602 -0.0873 -0.1421  0.2909
26381W        W32981  17.943   4.831  21.934  0.1124 -0.1355  0.2142
26382W        W32982   5.369   0.690  15.082  0.1117  0.0641 -0.0520
26383W        W32983  23.219   3.300  31.984 -0.1055  0.1325  0.1785
26384W        W32984   7.754   5.167  13.534  0.1089  0.0781  0.1137
26385W        W32985  12.314   5.493   9.665  0.0542  0.3951  0.2999
26386W        W32986   6.759   7.602  29.809 -0.2874  0.1921  0.0693
26387W        W32987   8.687   7.173  17.045  0.0425  0.3511  0.0578
26388W        W32988  13.283   7.350   5.604 -0.0980 -0.1950 -0.1272
26389W        W32989  17.958   1.730  19.023 -0.0147 -0.0318  0.2933
26390W        W32990   1.062   5.785  28.666 -0.1805  0.0226 -0.1535
26391W        W32991  12.846   3.051  26.175 -0.0448 -0.1246 -0.1933
26392W        W32992  18.685   4.569  28.640  0.1147  0.3458  0.2117
26393W        W32993   0.245   7.294  26.348  0.1176  0.0358 -0.0509
26394W        W32994  20.078   6.718  26.267  0.0050  0.1668 -0.1808
26395W        W32995   2.327   2.459   5.857 -0.2829  0.0860 -0.1991
26396W        W32996   8.268   3.396   7.200 -0.2008  0.0688 -0.1630
26397W        W32997  18.965   6.309  23.668  0.1971  0.0027  0.4984
26398W        W32998   9.523   1.607  24.269 -0.2079  0.3270 -0.4522
26399W        W32999  14.551   1.871  25.402  0.3208 -0.2659  0.2275
26400W        W33000  23.441   6.971   3.019 -0.1987  0.1569  0.1526
26401W        W33001  21.907   7.762  30.218  0.0174  0.0373 -0.1579
26402W        W33002   4.739   1.587  31.550  0.1792 -0.0028  0.2184
26403W        W33003  11.957   6.046  27.203  0.3784  0.4365  0.0826
26404W        W33004   2.852   6.816  13.281  0.0484  0.0077  0.2241
26405W        W33005  13.988   2.115  28.518  0.0784 -0.0980 -0.0584
26406W        W33006   7.547   0.828  27.143 -0.0006 -0.2214  0.0008
26407W        W33007   5.818   6.108  24.319  0.1053 -0.2153 -0.0305
26408W        W33008   2.932   3.313  27.018 -0.2124 -0.3737  0.2929
26409W        W33009  16.315   7.649  30.324 -0.1923 -0.0290  0.0436
26410W        W33010  22.848   7.013  19.613 -0.0103  0.3861 -0.2649
26411W        W33011  16.989   3.559   0.008  0.1705  0.0289  0.3521
26412W        W33012   4.439   2.052  27.536 -0.3503  0.1055 -0.0921
26413W        W33013   7.451   0.356  12.386  0.3152 -0.1764 -0.2353
26414W        W33014   8.147   0.071  30.526  0.4186 -0.3369  0.0294
26415W        W33015  14.784   1.443   6.726  0.0266 -0.0094  0.1633
26416W        W33016   9.796   3.016  25.615 -0.0730  0.0058 -0.0775
26417W        W33017  23.242   0.435  30.520  0.1467  0.1345 -0.0022
26418W        W33018   8.223   0.360   2.607  0.0707 -0.2048  0.1096
26419W        W33019  17.834   1.304  19.711 -0.3309 -0.0071  0.2504
26420W        W33020   9.807   3.212   3.505 -0.2809  0.0932 -0.3750
26421W        W33021   5.642   7.365  12.949 -0.1690  0.0695  0.1431
26422W        W33022  25.031   6.137  28.517 -0.1818  0.1754  0.1390
26423W        W33023  13.601   7.293   3.711  0.1955  0.1935 -0.1065
26424W        W33024   7.845   4.766   4.012  0.0415 -0.3651 -0.1831
26425W        W33025  13.776   5.865  22.582 -0.0732  0.0567  0.0518
26426W        W33026  23.974   2.200  26.449 -0.0386 -0.0178 -0.0085
26427W        W33027   5.531   4.701  32.636  0.2496  0.0755  0.0605
26428W        W33028   0.078   1.702  19.984  0.1244  0.1041 -0.0923
26429W        W33029  21.980   4.234  21.073  0.3786  0.2782 -0.1545
26430W        W33030   0.928   3.161   6.649 -0.0266 -0.2244 -0.3458
26431W        W33031   6.300   4.488  31.239 -0.0058  0.0304 -0.0930
26432W        W33032   5.329   0.517   9.156  0.0859 -0.1602 -0.2368
26433W        W33033   6.719   4.904  28.891 -0.1122 -0.0115  0.0329
26434W        W33034   4.722   4.240   3.022 -0.0095  0.3162 -0.1648
26435W        W33035  20.273   0.040   4.853 -0.0440  0.1415  0.1490
26436W        W33036  20.639   2.332  20.464 -0.2105  0.0216 -0.0989
26437W        W33037   6.267   0.003  27.789  0.1715 -0.0122  0.0076
26438W        W33038  18.284   7.144  32.536  0.1973  0.3782  0.0531
26439W        W33039   3.738   2.881  24.901  0.0523  0.1711  0.0229
26440W        W33040  14.143   2.897   1.678 -0.0410 -0.0012 -0.0386
26441W        W33041   4.434   6.052   6.319 -0.2654  0.3352 -0.2123
26442W        W33042  24.386   5.740  27.573  0.1171 -0.3029  0.0041
26443W        W33043   7.981   6.095  30.064 -0.0903 -0.0049 -0.1102
26444W        W33044   9.735   4.006   4.697 -0.0100 -0.4387 -0.1363
26445W        W33045  24.317   3.848  19.971 -0.1794 -0.0840 -0.0092
26446W        W33046   5.428   4.916  13.210  0.1284 -0.2016  0.2787
26447W        W33047  21.244   4.222  24.757 -0.2273 -0.0597 -0.1312
26448W        W33048  20.569   2.965  16.841 -0.0535  0.1529  0.0438
26449W        W33049   4.294   3.533  32.523  0.0035  0.0755  0.0744
26450W        W33050  13.271   7.358  31.742  0.0582  0.1834  0.2272
26451W        W33051  11.322   3.482  22.322  0.1919  0.1399 -0.1978
26452W        W33052  10.262   1.911  27.666  0.0190 -0.0194  0.2453
26453W        W33053  21.417   1.008   8.891  0.0214 -0.1911 -0.0253
26454W        W33054   0.440   1.139  19.232 -0.0324  0.2256 -0.1927
26455W        W33055  15.366   2.108  26.483  0.1553  0.0795 -0.0649
26456W        W33056   8.950   1.617  31.482  0.3558 -0.0316  0.3338
26457W        W33057  10.760   0.733  30.672  0.1469  0.0257  0.0841
26458W        W33058   4.463   5.333  32.240  0.0875  0.0348 -0.0204
26459W        W33059  23.826   5.555  25.468 -0.1307  0.2276 -0.1586
26460W        W33060   0.094   4.997   0.947  0.1046 -0.1191 -0.0298
26461W        W33061  14.984   7.538  26.341 -0.1015  0.0697 -0.2129
26462W        W33062  14.449   0.561  32.098  0.2212  0.0582  0.2056
26463W        W33063   7.264   4.699  15.579 -0.0583 -0.2615  0.2823
26464W        W33064   9.450   3.152  14.145 -0.0055 -0.0844 -0.1367
26465W        W33065  21.783   2.761  17.914 -0.2910 -0.0728  0.0779
26466W        W33066   6.814   3.212   8.627 -0.1679 -0.1342 -0.0192
26467W        W33067  22.887   2.647  20.645  0.1139 -0.0603  0.0917
26468W        W33068   9.577   4.128   3.042 -0.2079  0.0105  0.1312
26469W        W33069   8.202   5.871  13.124  0.3885  0.0653  0.2053
26470W        W33070  11.940   0.845  10.953 -0.0442  0.1339 -0.3049
26471W        W33071  17.430   6.775   7.415 -0.1959 -0.1831  0.1601
26472W        W33072  13.861   5.024  29.927  0.1355 -0.1729 -0.1170
26473W        W33073  16.133   3.655  25.282  0.2676  0.1659  0.1093
26474W        W33074  18.350   3.100  25.480 -0.1032  0.1839 -0.0069
26475W        W33075  21.296   3.292  29.348  0.2405  0.1396  0.3748
26476W        W33076  11.297   2.468  25.392  0.3814  0.0185 -0.2419
26477W        W33077  18.145   3.995  24.557 -0.0214 -0.0554  0.0099
26478W        W33078  23.087   5.533  18.837 -0.0773  0.1002 -0.0821
26479W        W33079  19.069   1.684  27.542 -0.2757 -0.1539  0.1396
26480W        W33080  12.873   0.993   7.828  0.3472 -0.0020  0.1839
26481W        W33081  23.585   6.199  19.882  0.1202  0.0574  0.2988
26482W        W33082   2.522   5.685  30.536  0.1202 -0.1351  0.2098
26483W        W33083  24.431   4.247  32.597 -0.3249 -0.1287  0.1322
26484W        W33084  11.796   7.092   2.483  0.4984 -0.2053  0.1409
26485W        W33085   7.762   0.659  30.087  0.4209 -0.1553 -0.2226
26486W        W33086  24.599   4.152   5.093 -0.2163  0.1873 -0.1244
26487W        W33087   3.081   4.253  27.747  0.3601  0.0751 -0.0282
26488W        W33088  16.870   3.283  28.573 -0.2563 -0.2301 -0.0146
26489W        W33089   9.369   7.163   6.936 -0.3185 -0.0357  0.0360
26490W        W33090  12.228   4.863   5.696 -0.1871 -0.0610  0.1100
26491W        W33091  15.906   0.481  18.100  0.0157 -0.2509  0.0860
26492W        W33092  10.537   7.068   9.691 -0.2178  0.1063 -0.2604
26493W        W33093  15.516   6.719  27.653  0.0395 -0.1258 -0.0153
26494W        W33094   7.025   1.785   5.474 -0.0143  0.0136  0.3684
26495W        W33095   0.111   4.796  26.694  0.1982 -0.2169 -0.1217
26496W        W33096   8.841   0.870  10.999  0.0149  0.1934 -0.2195
26497W        W33097   8.366   2.007  11.703  0.3211 -0.4168 -0.0193
26498W        W33098  16.788   2.194  29.474 -0.1917 -0.0463  0.0843
26499W        W33099   4.673   1.152   1.410  0.1012 -0.2051  0.1578
26500W        W33100  12.962   3.931   3.989  0.0729  0.0874 -0.2522
26501W        W33101  21.392   5.086   9.915 -0.2164 -0.0583  0.1482
26502W        W33102  23.939   6.396  22.706  0.3173 -0.1676 -0.1650
26503W        W33103   1.524   6.977   8.317 -0.0459  0.1561  0.0272
26504W        W33104  18.377   4.161  28.468 -0.2547 -0.0493 -0.0899
26505W        W33105  21.315   7.475  27.970 -0.2631  0.3317  0.0178
26506W        W33106  13.491   1.691  30.415  0.0582 -0.0100 -0.2629
26507W        W33107  23.019   1.140  23.757  0.1560  0.2129  0.0077
26508W        W33108  18.013   7.557   1.854  0.1991  0.0095 -0.3451
26509W        W33109  19.695   3.170   9.048 -0.0507 -0.2565 -0.1035
26510W        W33110  21.194   3.095  25.026  0.2220 -0.4251 -0.1570
26511W        W33111  14.776   1.984  11.848 -0.3522  0.0612  0.0649
26512W        W33112   7.468   1.847  31.232 -0.0320 -0.1938 -0.0566
26513W        W33113   6.915   3.580  12.029 -0.2623  0.1677  0.3516
26514W        W33114   0.416   7.537  10.198  0.1933 -0.1164 -0.1807
26515W        W33115  13.226   4.017   2.416  0.0091  0.2072 -0.1281
26516W        W33116  13.486   5.178   4.019 -0.0566 -0.2538  0.0941
26517W        W33117   0.721   2.245  29.041  0.1574  0.1253 -0.2307
26518W        W33118  16.692   1.542   5.129 -0.1816 -0.0476  0.1262
26519W        W33119  21.076   7.488  15.503  0.3259  0.1406 -0.0260
26520W        W33120   1.402   4.283   1.982  0.2846  0.2735  0.2014
26521W        W33121  14.251   0.150  10.188  0.0303 -0.1752  0.0610
26522W        W33122  19.560   3.752  29.705  0.0097  0.0772 -0.2618
26523W        W33123   2.935   4.528  25.159 -0.3005  0.4701 -0.1661
26524W        W33124   8.343   0.118  12.548  0.1927 -0.1918 -0.0031
26525W        W33125  14.071   1.833  26.653 -0.2163  0.1293  0.0599
26526W        W33126  19.898   0.239  14.812  0.0084  0.0841 -0.0378
26527W        W33127  15.960   4.655   9.422 -0.1654  0.2462 -0.0203
26528W        W33128  23.633   2.133  20.742  0.0246  0.1809 -0.1310
26529W        W33129  11.266   5.788  29.910  0.1169 -0.1086  0.2483
26530W        W33130  17.672   2.295   8.990 -0.3257  0.2207  0.0514
26531W        W33131   4.961   0.717  23.100 -0.0045  0.2970  0.0582
26532W        W33132  11.061   0.974  28.045 -0.0450  0.3225 -0.2232
26533W        W33133   5.676   0.679   0.514 -0.0102  0.0719  0.3517
26534W        W33134   0.709   1.233   9.749 -0.0679 -0.0048 -0.1581
26535W        W33135   5.295   5.187  25.354  0.0981  0.2256 -0.0951
26536W        W33136  16.996   4.375   1.716 -0.2052 -0.0590  0.1287
26537W        W33137  21.898   2.871  23.445  0.1706 -0.0938 -0.0949
26538W        W33138   2.541   5.571   3.441 -0.2155  0.0073 -0.1287
26539W        W33139   2.444   5.639   3.956  0.0455  0.1925  0.1675
26540W        W33140   6.512   3.018   6.836 -0.0659  0.0976  0.0131
26541W        W33141  12.676   5.045  23.862  0.1780  0.1769  0.0045
26542W        W33142  17.538   0.901   0.185 -0.1633 -0.0362 -0.1891
26543W        W33143  17.382   7.520   0.819 -0.0256  0.0582 -0.0722
26544W        W33144  19.457   1.530  16.290  0.1211  0.0280  0.0869
26545W        W33145  15.366   3.780  31.706 -0.2506  0.0120  0.1088
26546W        W33146  19.916   6.179   8.715  0.1430  0.3988  0.0529
26547W        W33147   6.946   5.189  27.416  0.1295  0.0372  0.0550
26548W        W33148  16.973   2.017  31.093 -0.0155 -0.0158 -0.1579
26549W        W33149   6.799   6.395  13.383  0.0175  0.3605 -0.0268
26550W        W33150   3.937   2.223  22.010 -0.0487 -0.0663  0.1478
26551W        W33151  21.550   1.682  15.950  0.0452  0.2274 -0.0662
26552W        W33152  19.527   2.980   1.257 -0.0288 -0.0730  0.0518
26553W        W33153  20.780   2.540  15.623  0.2566 -0.2055 -0.2411
26554W        W33154  15.936   1.576  19.266 -0.0189 -0.0112  0.0088
26555W        W33155  13.068   1.691  30.821 -0.0721 -0.0191  0.1139
26556W        W33156  17.472   6.399   2.382  0.1321  0.2242  0.0867
26557W        W33157  19.091   6.380   3.445  0.0087 -0.0794  0.0103
26558W        W33158  24.964   1.633  18.718  0.1458 -0.3120 -0.3453
26559W        W33159   4.083   0.975  29.616  0.1413 -0.1476  0.0627
26560W        W33160  14.686   1.743  28.917  0.2006  0.0384  0.0632
26561W        W33161   3.574   5.859  23.087  0.3326 -0.1435 -0.0163
26562W        W33162  24.807   7.082   8.834 -0.1428 -0.2013  0.0009
26563W        W33163   1.997   4.627  29.281 -0.1240 -0.3543  0.0856
26564W        W33164  21.761   4.970   4.842 -0.1356 -0.0643  0.2176
26565W        W33165   8.082   3.120  17.490 -0.0785 -0.2774 -0.1424
26566W        W33166  17.357   4.112  18.317 -0.0886 -0.0329 -0.0362
26567W        W33167  22.318   3.544   1.999 -0.0773 -0.3225  0.0645
26568W        W33168   9.297   0.797  28.422 -0.0610  0.1727 -0.0425
26569W        W33169   6.766   1.365  24.588 -0.2602 -0.0857  0.0906
26570W        W33170  22.255   7.320   5.013  0.1350  0.0106 -0.0601
26571W        W33171   0.650   0.909  18.296 -0.2840 -0.2487  0.0028
26572W        W33172   3.950   3.854   3.488 -0.0447 -0.2548 -0.3699
26573W        W33173   3.655   4.120   3.829 -0.0465  0.0651 -0.2393
26574W        W33174  24.899   1.872   8.097  0.1314 -0.2197  0.1141
26575W        W33175  11.453   1.429  10.036  0.0589  0.1077  0.2821
26576W        W33176   6.671   4.352  32.205  0.0044  0.0843  0.0801
26577W        W33177  10.472   4.790   9.357 -0.0410  0.0387  0.1762
26578W        W33178   9.673   0.221  10.809  0.1695  0.0135 -0.1307
26579W        W33179  22.265   7.411  30.125 -0.2435  0.1153  0.1045
26580W        W33180  15.024   6.454  10.825  0.3213  0.2087 -0.1603
26581W        W33181  18.697   0.769  16.021 -0.0879  0.2298 -0.1025
26582W        W33182  18.869   3.447  28.608  0.0200 -0.2416 -0.0120
26583W        W33183  17.355   3.587  26.158  0.0094 -0.2097 -0.4275
26584W        W33184  14.536   1.723   0.258  0.0914 -0.0735 -0.0149
26585W        W33185   8.245   1.334  10.297 -0.0738 -0.1264  0.2349
26586W        W33186   6.216   6.636  25.106  0.0535 -0.3430 -0.0240
26587W        W33187   1.101   5.845  26.543  0.5967 -0.0333  0.2348
26588W        W33188   8.881   3.855   9.834  0.1029 -0.2415 -0.2310
26589W        W33189   4.921   1.280  32.627  0.0573  0.3628  0.0547
26590W        W33190   7.119   2.014  13.013  0.1144  0.1634  0.1558
26591W        W33191   9.786   1.808   5.726  0.0636  0.0597  0.0054
26592W        W33192   9.439   1.658   9.893 -0.0768  0.1844 -0.0413
26593W        W33193  22.859   3.183   0.763  0.1760  0.0757  0.2004
26594W        W33194  14.094   3.208  31.175  0.2197 -0.0711 -0.1348
26595W        W33195  12.772   5.713  31.066  0.0464 -0.0154 -0.2173
26596W        W33196   3.731   1.433  27.876  0.1770  0.0151  0.1068
26597W        W33197   9.891   6.317  15.288 -0.0229 -0.0339  0.0565
26598W        W33198   3.528   1.512   9.404  0.0407  0.2761  0.0140
26599W        W33199   7.041   1.510  16.250  0.4299  0.3444 -0.4657
26600W        W33200  17.871   0.583  20.929  0.1416 -0.0867 -0.0194
26601W        W33201   6.075   7.081  13.533 -0.1758 -0.2511  0.1461
26602W        W33202   2.512   4.348  23.955 -0.2101  0.0340  0.2008
26603W        W33203  22.543   0.202  23.530 -0.0985  0.1076  0.0239
26604W        W33204   4.983   6.006  24.850  0.1809 -0.1184  0.0622
26605W        W33205  22.289   0.230  15.984  0.0874 -0.1004  0.4115
26606W        W33206  16.270   2.403  29.512  0.1271 -0.0410 -0.0688
26607W        W33207  23.790   2.059   4.498  0.0575 -0.4730  0.2418
26608W        W33208  15.266   4.536   4.577 -0.1184 -0.2700 -0.0591
26609W        W33209  21.068   6.132   2.751  0.0469  0.1666  0.0025
26610W        W33210  18.073   5.717  31.406 -0.0176 -0.0968  0.4147
26611W        W33211   2.459   1.002  23.977 -0.0958 -0.1410 -0.2115
26612W        W33212   0.446   4.774   8.331 -0.1612  0.0887 -0.3700
26613W        W33213  13.658   4.651  24.128  0.0250  0.1623 -0.1795
26614W        W33214  23.252   3.298   9.815  0.0834 -0.2436  0.2661
26615W        W33215  10.166   5.280   9.131  0.1921  0.3212 -0.1988
26616W        W33216  19.699   0.589  15.530  0.1901  0.3580  0.0077
26617W        W33217   7.021   3.931  16.010 -0.0855  0.1246 -0.3198
26618W        W33218  10.030   4.243  31.293  0.1540 -0.1983  0.0251
26619W        W33219   2.578   6.195  29.680  0.0821 -0.1851 -0.2670
26620W        W33220  14.544   7.327  10.855  0.0962  0.0686  0.0920
26621W        W33221  18.346   7.571  17.952  0.0944 -0.0289 -0.3454
26622W        W33222  18.796   6.639   0.214  0.0544 -0.0377 -0.0220
26623W        W33223  24.749   4.623   3.877 -0.1290  0.1950  0.2280
26624W        W33224  19.263   5.675  21.635  0.0809 -0.4256  0.2895
26625W        W33225   0.997   5.417  32.531  0.1109  0.3176  0.0043
26626W        W33226  19.795   6.628  30.299  0.2160 -0.1145 -0.0117
26627W        W33227   8.662   7.097  11.270  0.1362  0.0140 -0.0565
26628W        W33228  12.784   2.138  27.372 -0.0574  0.2385  0.0393
26629W        W33229  16.975   1.712  28.073  0.1365 -0.2711  0.2241
26630W        W33230   4.887   0.585   4.812  0.1330 -0.0322 -0.0020
26631W        W33231  12.672   5.302  28.795  0.0259 -0.1827 -0.5433
26632W        W33232  12.473   4.788  31.855  0.0429 -0.0354 -0.1461
26633W        W33233   0.694   6.642   2.635  0.0482 -0.1571  0.5142
26634W        W33234   3.663   7.011   3.814 -0.0151  0.0050  0.0789
26635W        W33235  16.953   4.304  28.715 -0.3541  0.3826  0.0934
26636W        W33236  10.024   2.922  31.333 -0.2447  0.0542  0.4166
26637W        W33237  23.319   0.664   7.563 -0.0917  0.0105 -0.2955
26638W        W33238  16.182   0.976  21.834 -0.7073  0.0107  0.0315
26639W        W33239   8.217   6.667   7.843  0.0162  0.0947 -0.1418
26640W        W33240  19.503   1.881   3.532  0.4330  0.3306  0.1561
26641W        W33241  12.369   1.525  11.079 -0.1497  0.0078  0.2285
26642W        W33242  21.257   2.968   9.833  0.0074  0.0807 -0.1712
26643W        W33243   8.672   4.703  31.321  0.0902  0.2122 -0.0646
26644W        W33244  12.554   1.180   9.082  0.1919  0.2602 -0.3365
26645W        W33245   4.212   7.041   5.656 -0.1782  0.0620 -0.1519
26646W        W33246   0.036   4.976  30.835  0.1090 -0.0712 -0.2347
26647W        W33247  16.629   1.269  28.453  0.1134  0.0379  0.0640
26648W        W33248   0.012   2.506   2.083 -0.1294 -0.2999  0.0781
26649W        W33249  24.990   3.914  26.733  0.0009 -0.1301 -0.4885
26650W        W33250  14.203   7.200  24.893  0.0426 -0.0076 -0.3899
26651W        W33251   1.419   2.094  17.901  0.3066 -0.1582 -0.0003
26652W        W33252   9.934   0.257  17.969  0.0347 -0.0220  0.0404
26653W        W33253  18.381   1.072  27.370  0.0448 -0.3374  0.0272
26654W        W33254   9.047   3.759  16.797  0.0368 -0.0367  0.0083
26655W        W33255   3.571   4.688  21.851  0.1889  0.0801  0.0211
26656W        W33256   5.972   6.356  11.241  0.0922  0.0425 -0.1157
26657W        W33257   7.892   5.256  28.784 -0.0273  0.2002  0.1243
26658W        W33258   1.898   4.075  30.160  0.2818 -0.1666 -0.1479
26659W        W33259  17.049   3.257   0.466  0.0054  0.2089  0.1079
26660W        W33260  19.103   6.206  30.246 -0.0025  0.0941  0.0885
26661W        W33261  14.699   3.159  19.288  0.0629 -0.0794  0.2895
26662W        W33262   2.724   6.606   9.836  0.0225  0.1154  0.0150
26663W        W33263  22.250   1.532  29.508 -0.0807 -0.0016  0.0880
26664W        W33264  21.498   3.883   1.427 -0.1545 -0.2711  0.0211
26665W        W33265  11.732   1.035  22.017  0.0144  0.0043 -0.0308
26666W        W33266  23.678   4.430  27.486 -0.1034 -0.1036 -0.1610
26667W        W33267  14.791   1.836   0.753 -0.0985  0.0654  0.3212
26668W        W33268  24.871   6.655   0.958 -0.0853  0.0994 -0.0080
26669W        W33269   5.581   5.919  10.411  0.1739 -0.1645  0.0796
26670W        W33270   8.695   5.768   1.936 -0.1064  0.1930 -0.1940
26671W        W33271  10.161   6.497  10.820 -0.0056 -0.1356 -0.6364
26672W        W33272  19.428   6.171  21.645  0.2982 -0.6055  0.0278
26673W        W33273  16.654   6.858  25.803 -0.1125  0.0014  0.0872
26674W        W33274   8.073   0.883   4.966  0.4343  0.1067  0.0221
26675W        W33275   9.469   1.419   2.068  0.1746 -0.1354 -0.2646
26676W        W33276   0.318   5.959  24.624  0.1460 -0.0374  0.0135
26677W        W33277  20.471   4.926  29.403  0.1712 -0.3048 -0.4147
26678W        W33278  23.751   2.780  27.907 -0.1107 -0.3938 -0.1442
26679W        W33279   1.095   5.618  18.336  0.3355  0.1505 -0.0151
26680W        W33280  19.326   4.350  17.440 -0.0853  0.1275  0.2008
26681W        W33281   6.673   4.872  16.951  0.0669  0.0886  0.1015
26682W        W33282  20.584   6.436  27.041  0.0763  0.0195 -0.2073
26683W        W33283   0.385   0.782  25.257 -0.0238 -0.0644  0.1544
26684W        W33284   2.901   3.729  28.763 -0.0318 -0.0853  0.0634
26685W        W33285   6.712   4.684  26.302  0.0704 -0.0812 -0.1473
26686W        W33286  19.920   4.305  21.473  0.1903  0.3201 -0.2826
26687W        W33287  21.053   0.976  19.784 -0.1558 -0.0523  0.1012
26688W        W33288   8.622   7.543  11.411  0.3035 -0.0976 -0.3411
26689W        W33289  12.211   3.636  28.037 -0.0192  0.0209 -0.2245
26690W        W33290   7.117   0.911   4.608 -0.1754 -0.1238  0.0117
26691W        W33291  11.799   1.007  26.853  0.0008 -0.1170  0.1356
26692W        W33292  11.834   2.423   8.065  0.0222 -0.0403 -0.0378
26693W        W33293  24.680   1.606   2.949  0.1996 -0.0193  0.1328
26694W        W33294  20.383   7.799  27.498  0.1658  0.1016  0.3872
26695W        W33295   1.316   6.517  28.311  0.1221 -0.1422  0.3286
26696W        W33296  24.649   6.181   0.816 -0.0990 -0.4674 -0.0836
26697W        W33297   2.376   1.229  31.502 -0.1499  0.2020 -0.1980
26698W        W33298   1.179   6.922  18.658  0.2429  0.0797  0.1480
26699W        W33299   8.310   6.326   5.095  0.1816 -0.0632  0.0005
26700W        W33300   6.273   6.719  31.809 -0.0109 -0.0806 -0.1295
26701W        W33301  17.793   0.622  28.485 -0.0151  0.0032 -0.1172
26702W        W33302  12.101   2.572  23.566  0.0602 -0.1220  0.0393
26703W        W33303   3.589   0.727  32.272  0.1965 -0.0460  0.0704
26704W        W33304  14.761   5.611   9.657 -0.0714  0.1441 -0.1490
26705W        W33305  13.701   1.350   0.726 -0.1598 -0.2197 -0.1440
26706W        W33306  16.830   6.627  19.607  0.1051 -0.0073  0.1134
26707W        W33307  10.304   1.773  15.569  0.1901  0.1268 -0.0415
26708W        W33308   9.010   2.672   7.076 -0.3027  0.2133  0.3851
26709W        W33309  17.255   0.782  30.858  0.3384  0.0652  0.2782
26710W        W33310  16.510   6.844  21.798  0.2911  0.0528  0.2020
26711W        W33311  19.189   6.020   7.828 -0.0877  0.2334 -0.0460
26712W        W33312  11.098   5.990  31.200 -0.3476  0.1379 -0.1815
26713W        W33313  16.606   5.464   7.583  0.2074 -0.0095 -0.0352
26714W        W33314   7.012   6.486  15.841  0.2193  0.0788 -0.3604
26715W        W33315  10.417   4.577  18.022 -0.1717  0.0650 -0.2816
26716W        W33316  10.646   6.381  10.587 -0.0202 -0.1489 -0.0200
26717W        W33317  15.864   7.143  29.184 -0.2979  0.0452 -0.3726
26718W        W33318   5.835   4.347   9.083  0.0573 -0.1549  0.2836
26719W        W33319  15.311   4.765  26.783 -0.1377 -0.1145  0.0427
26720W        W33320  11.601   2.397  10.606 -0.1422 -0.2694  0.1307
26721W        W33321  19.415   2.267   8.819 -0.1280 -0.1351  0.0133
26722W        W33322  12.527   5.322  30.786 -0.0648  0.2838  0.1719
26723W        W33323  11.066   2.952  10.301 -0.1293  0.2779 -0.0128
26724W        W33324  19.508   4.455  21.240 -0.0902 -0.0286  0.2424
26725W        W33325   0.548   1.723  25.983 -0.1661  0.0235  0.0131
26726W        W33326  23.327   7.706   2.293 -0.0521 -0.0533  0.1200
26727W        W33327  11.302   1.084  25.799 -0.1499  0.0323  0.3363
26728W        W33328  24.443   5.469  16.589 -0.0474 -0.4036  0.0987
26729W        W33329   6.673   5.209  14.788 -0.0081 -0.3699 -0.1273
26730W        W33330  20.624   2.968   6.898  0.0425  0.0354 -0.1794
26731W        W33331  17.228   4.822  23.462  0.0910  0.0711 -0.1348
26732W        W33332  11.594   4.836   4.297  0.2016 -0.1234 -0.1495
26733W        W33333  17.133   5.792   6.385 -0.0060  0.3170  0.0625
26734W        W33334  14.445   2.594   8.421  0.1390 -0.0468 -0.3453
26735W        W33335  19.131   0.495  26.137 -0.1068 -0.1991  0.3016
26736W        W33336   0.321   2.498  24.306 -0.2813  0.1257  0.0917
26737W        W33337  24.461   5.311   3.462  0.2168  0.0874 -0.1279
26738W        W33338  21.071   6.950  18.197  0.1159  0.1558  0.1495
26739W        W33339  14.682   6.777  10.572 -0.1825 -0.0091 -0.4529
26740W        W33340   5.144   4.142   7.055 -0.3325  0.0754  0.1239
26741W        W33341  22.021   7.454   4.196 -0.2310 -0.0026 -0.1284
26742W        W33342  24.528   3.546  22.098 -0.1186  0.3034 -0.2122
26743W        W33343   2.722   4.370  25.850  0.1246 -0.1648 -0.0119
26744W        W33344   1.196   0.148  25.532 -0.2942  0.0342 -0.0923
26745W        W33345  14.743   3.991  28.841  0.2501  0.3204 -0.0190
26746W        W33346  16.130   1.955   3.090 -0.1413 -0.1005 -0.0148
26747W        W33347  15.736   1.539  28.142  0.0957 -0.0992  0.2521
26748W        W33348   4.731   3.471  15.835 -0.0322  0.1096  0.0828
26749W        W33349  18.916   5.930  27.630  0.1212  0.1794 -0.1015
26750W        W33350  14.971   7.046  22.469 -0.3820 -0.0600  0.0301
26751W        W33351   8.207   1.347  12.414 -0.2396 -0.0500 -0.2866
26752W        W33352  18.442   0.988   7.081  0.1792 -0.1092  0.0983
26753W        W33353  12.278   5.318  10.225  0.3530 -0.0162 -0.2634
26754W        W33354   1.925   3.397  18.249  0.0516 -0.2645  0.3007
26755W        W33355   6.083   5.810  12.557 -0.0639  0.0297 -0.1484
26756W        W33356  19.254   4.825  21.465 -0.1276 -0.2427 -0.2341
26757W        W33357  20.145   3.794  18.735 -0.1694  0.2600  0.4514
26758W        W33358  12.505   7.530  31.122 -0.0052 -0.3724  0.1209
26759W        W33359  13.834   5.628   4.597 -0.3283  0.1589  0.2953
26760W        W33360   9.001   4.402   0.039  0.1402 -0.1970  0.1770
26761W        W33361   9.713   5.168   7.246  0.0212  0.1583  0.0330
26762W        W33362  13.358   4.864   9.011 -0.1938 -0.2056  0.0171
26763W        W33363   7.054   0.647   3.555  0.0540 -0.0149 -0.0741
26764W        W33364  14.591   6.528   5.410  0.1385  0.0612  0.0400
26765W        W33365   0.252   1.140   9.476 -0.0578 -0.1616 -0.0067
26766W        W33366   5.129   6.033  22.514 -0.0956  0.2437  0.2902
26767W        W33367  19.540   3.398  29.242  0.1651 -0.0648 -0.0558
26768W        W33368  24.085   1.901  19.700 -0.1170 -0.1899  0.1196
26769W        W33369   2.100   0.807  23.253 -0.1036 -0.0810 -0.4558
26770W        W33370  14.459   6.622  32.211 -0.0000 -0.0530  0.1615
26771W        W33371  23.361   7.734  18.928  0.0704  0.1503 -0.0545
26772W        W33372  17.930   5.942  22.828 -0.2233 -0.0506 -0.1211
26773W        W33373  11.163   4.310   0.349 -0.0667  0.3319 -0.0847
26774W        W33374  13.866   6.821  12.794 -0.0444  0.3723  0.0200
26775W        W33375  20.475   3.178   0.472 -0.0511 -0.1462  0.1426
26776W        W33376  22.880   6.217   3.543  0.0533 -0.3295 -0.0091
26777W        W33377  12.310   1.267  13.217  0.3310  0.1470 -0.1233
26778W        W33378   6.938   0.403  15.117  0.1883 -0.2559  0.4526
26779W        W33379   6.239   3.760   2.203  0.4357 -0.4497  0.1185
26780W        W33380  19.019   4.360  21.483  0.0728 -0.0111  0.1480
26781W        W33381  12.280   3.057  32.485 -0.3664 -0.1516 -0.0543
26782W        W33382  12.762   7.004   2.083  0.0850 -0.1168 -0.1280
26783W        W33383  24.658   0.910  26.076 -0.4075  0.0342  0.2019
26784W        W33384  18.569   6.191   9.917  0.2133  0.1014 -0.0404
26785W        W33385   9.572   4.620   7.839  0.1293  0.0841  0.0736
26786W        W33386  19.060   7.657   1.382 -0.2415 -0.1015  0.2560
26787W        W33387  23.567   7.729  22.179 -0.0471 -0.0083  0.1580
26788W        W33388   2.282   1.909  20.996  0.1153 -0.1164 -0.0198
26789W        W33389  24.219   2.138   9.198 -0.1654 -0.1549  0.1708
26790W        W33390  20.320   6.500  22.903 -0.0025 -0.1872  0.1474
26791W        W33391  17.888   3.950   2.257  0.1818  0.0894  0.2025
26792W        W33392  10.685   6.741   1.735 -0.2671 -0.0225  0.1582
26793W        W33393  19.715   1.690   3.074 -0.1662  0.1094 -0.0147
26794W        W33394  17.190   6.559  26.489  0.2325  0.0421 -0.0699
26795W        W33395  10.765   6.990  22.875 -0.2047 -0.1717 -0.1125
26796W        W33396  23.337   3.801  30.673  0.0458 -0.1358  0.0621
26797W        W33397  14.407   7.265  19.996  0.0787 -0.0363  0.1189
26798W        W33398  21.564   4.949   5.641  0.1162  0.2874  0.0837
26799W        W33399   2.293   2.992  29.631  0.1345 -0.1033 -0.0364
26800W        W33400  14.736   6.507  25.192  0.1202 -0.4016  0.0101
26801W        W33401  20.764   5.859  31.848  0.3422 -0.0744 -0.2395
26802W        W33402   6.698   3.618   1.836 -0.1410  0.0759  0.1057
26803W        W33403  22.566   3.550  31.018  0.1040 -0.0943  0.0637
26804W        W33404  14.319   3.526   8.764  0.1606 -0.5005 -0.0641
26805W        W33405  18.173   6.223  28.561  0.0236 -0.3854  0.1312
26806W        W33406   3.763   4.118  28.654  0.0230 -0.0359 -0.0424
26807W        W33407  18.457   6.047   4.690 -0.1752 -0.1052 -0.0402
26808W        W33408  11.347   4.854   3.413 -0.2254 -0.1330  0.0144
26809W        W33409  22.825   3.149  22.694 -0.0637  0.4760  0.0926
26810W        W33410   9.851   7.193   9.216 -0.0027  0.2749 -0.0830
26811W        W33411  10.643   6.735   4.844 -0.0219  0.1128 -0.3831
26812W        W33412  11.102   5.712  23.909 -0.1531 -0.2103  0.0398
26813W        W33413  19.893   1.335  20.643  0.0190 -0.1844 -0.2519
26814W        W33414  21.454   4.749   0.720 -0.4735 -0.0185 -0.0119
26815W        W33415   4.579   4.785  15.005  0.2150  0.1578 -0.0530
26816W        W33416   3.107   6.553  31.562  0.1095  0.0505  0.1335
26817W        W33417  21.693   5.002  28.088  0.2695 -0.1355 -0.0942
26818W        W33418  10.640   3.834  15.239  0.3355  0.1252  0.0332
26819W        W33419   2.276   4.806   9.096  0.0749 -0.1830  0.0528
26820W        W33420   8.263   0.612  13.055  0.1434  0.0091 -0.1731
26821W        W33421  23.193   3.457  22.592 -0.1894 -0.0557 -0.1009
26822W        W33422   5.897   2.347  32.573  0.1117  0.1789 -0.2126
26823W        W33423  10.107   6.165  29.101 -0.3458  0.2294 -0.2044
26824W        W33424  20.196   3.848  28.080  0.1845  0.2288 -0.1274
26825W        W33425   4.366   6.926   7.187  0.0256 -0.0003 -0.0295
26826W        W33426  18.622   2.134   3.619 -0.1146  0.0079 -0.0893
26827W        W33427   3.492   0.747   5.235  0.2413  0.0259 -0.0455
26828W        W33428  16.681   7.345   6.767  0.2345  0.0529 -0.0444
26829W        W33429  11.478   1.059  27.227 -0.0504 -0.1179 -0.0329
26830W        W33430  16.663   1.378  20.126  0.1917  0.1161  0.2478
26831W        W33431   7.767   0.627   7.870 -0.0141  0.0656  0.2632
26832W        W33432  19.617   0.218   6.506  0.1765 -0.0043  0.0749
26833W        W33433   4.101   2.481   6.757 -0.0705  0.2747  0.1397
26834W        W33434  13.908   7.170   9.692  0.4100  0.1126  0.0155
26835W        W33435   2.869   5.665  28.005  0.2526 -0.1514  0.1504
26836W        W33436   6.563   4.377  11.255 -0.4508 -0.1251  0.1169
26837W        W33437  17.026   2.711  23.899  0.0362  0.1031  0.0950
26838W        W33438   6.996   3.878  26.161  0.0063  0.3154  0.2306
26839W        W33439  17.394   1.954  23.422  0.1637 -0.4688  0.1611
26840W        W33440  14.738   4.851  22.673  0.0281  0.1855 -0.0328
26841W        W33441  19.310   1.200  31.171  0.0642 -0.2936 -0.0212
26842W        W33442  21.038   2.921  18.095 -0.1146  0.1750 -0.2463
26843W        W33443   0.034   5.961   1.889  0.1137 -0.1390 -0.1666
26844W        W33444  24.872   5.571  25.763 -0.2844 -0.0298 -0.1271
26845W        W33445   4.788   5.935  31.001 -0.2669 -0.0266 -0.5168
26846W        W33446   9.309   7.175   0.334  0.1769  0.1470  0.2271
26847W        W33447  21.907   7.177  10.275  0.0582  0.0144  0.1551
26848W        W33448  24.486   1.227  21.846 -0.0193  0.0323  0.0430
26849W        W33449  18.102   1.058   0.302 -0.1636  0.1836 -0.0200
26850W        W33450   9.158   7.401  29.137 -0.1112 -0.3310 -0.2297
26851W        W33451   3.204   6.342  14.463  0.0623  0.0438  0.0159
26852W        W33452   8.155   2.808   6.654 -0.0757  0.0104  0.0150
26853W        W33453  15.397   7.787  26.120 -0.1364  0.1081  0.2964
26854W        W33454   4.603   4.893   8.766  0.4272  0.0042 -0.1157
26855W        W33455   5.761   6.671  13.806 -0.1722  0.1820  0.0842
26856W        W33456  24.068   5.729  29.259 -0.0531 -0.2327 -0.0227
26857W        W33457   0.772   6.999  23.332 -0.0363 -0.1140  0.2891
26858W        W33458   4.551   0.513  11.065  0.1779 -0.0771 -0.1373
26859W        W33459  19.904   0.137  21.799  0.0173  0.0746  0.0758
26860W        W33460  20.403   4.154   4.827 -0.2415 -0.1369  0.1261
26861W        W33461  14.798   5.809  29.810 -0.0026 -0.0748 -0.0358
26862W        W33462  24.833   5.913   0.383  0.1102  0.0639 -0.1134
26863W        W33463  11.302   5.948  23.291  0.0646  0.0894  0.2283
26864W        W33464  18.840   1.255  15.944 -0.0552 -0.5460 -0.2835
26865W        W33465  19.018   7.538   0.056  0.2276 -0.2379  0.0498
26866W        W33466   3.040   1.996   2.995 -0.0471  0.1076 -0.0835
26867W        W33467   9.424   1.345  29.769  0.1193 -0.0120 -0.0638
26868W        W33468  17.691   4.324   5.162  0.0705 -0.2451  0.1370
26869W        W33469   6.857   3.286  17.962 -0.0991 -0.1562 -0.1735
26870W        W33470   2.351   2.175  27.887  0.5380  0.0250 -0.0440
26871W        W33471  15.534   0.641  29.016 -0.0609 -0.1128  0.0782
26872W        W33472   0.761   4.686   9.167 -0.0016 -0.2104  0.2340
26873W        W33473  10.931   4.771   0.249 -0.2121  0.2445 -0.1027
26874W        W33474  19.008   1.524  29.587 -0.0338  0.3612  0.2845
26875W        W33475   5.130   5.968  26.649  0.0111  0.3174  0.0273
26876W        W33476  21.383   1.434   2.310 -0.0043 -0.0538  0.2100
26877W        W33477  11.581   6.291   3.147 -0.0635  0.0380  0.0071
26878W        W33478   1.957   4.752   8.181  0.3017  0.1205  0.1222
26879W        W33479  20.071   3.560  20.247  0.0191 -0.0245  0.0238
26880W        W33480  16.758   6.841   3.450 -0.1035 -0.0011  0.1397
26881W        W33481  11.161   7.369  16.242  0.0336 -0.0674 -0.0091
26882W        W33482  10.602   6.579  28.388 -0.1004  0.0196  0.0323
26883W        W33483  15.720   1.431  21.043  0.0427  0.0964  0.0309
26884W        W33484   1.720   7.531  10.174  0.5152  0.2593  0.1386
26885W        W33485  16.686   5.544  23.017 -0.2292  0.0041  0.4316
26886W        W33486  15.742   4.388  31.213  0.1141  0.3752 -0.1855
26887W        W33487   6.771   4.946   6.472  0.1000 -0.0448 -0.2157
26888W        W33488   1.914   2.496   2.548  0.0881  0.0352  0.0831
26889W        W33489   9.498   7.373  10.982 -0.1212  0.0826  0.0732
26890W        W33490  23.193   5.681  29.260 -0.1913  0.0771  0.1872
26891W        W33491  22.138   1.327  27.976 -0.0547  0.2387 -0.1421
26892W        W33492  13.868   6.839   0.700  0.0836  0.1847 -0.0082
26893W        W33493  12.581   1.875  21.841 -0.1546 -0.0329  0.2850
26894W        W33494   8.814   0.006   1.309 -0.0903 -0.0504  0.2009
26895W        W33495  22.543   6.755   8.622 -0.1456 -0.1872  0.2189
26896W        W33496  20.584   2.230  28.202 -0.2318  0.0305 -0.3655
26897W        W33497  14.205   0.010  28.632 -0.1407  0.1220  0.1267
26898W        W33498   0.795   7.087   3.046 -0.1567 -0.3216  0.0128
26899W        W33499  11.027   0.923  17.229 -0.1517  0.0596  0.2088
26900W        W33500   7.918   3.751  12.898 -0.1897 -0.1489  0.0249
26901W        W33501   9.444   3.725  22.296  0.1660  0.2431  0.1203
26902W        W33502   3.391   2.502  24.034 -0.0374  0.2867 -0.1963
26903W        W33503   9.903   0.656  32.602  0.0510  0.1679 -0.0513
26904W        W33504   8.589   0.654   4.940 -0.0584 -0.1738 -0.2629
26905W        W33505   1.607   6.991   9.206 -0.3781  0.0724  0.1723
26906W        W33506  19.750   3.827  25.283  0.3304  0.2154  0.2576
26907W        W33507   6.800   6.220  26.375 -0.0621  0.3349 -0.0635
26908W        W33508  18.270   3.595  31.652  0.2531  0.0407 -0.1393
26909W        W33509  17.623   7.667   8.363 -0.0297  0.1594  0.1704
26910W        W33510  18.321   0.076  29.025  0.2110 -0.1793  0.0252
26911W        W33511   8.194   5.498  25.125 -0.2255 -0.1454  0.1525
26912W        W33512   9.032   2.730  25.116 -0.0388  0.2253  0.0001
26913W        W33513   7.371   1.393  28.541  0.1546  0.1573  0.0071
26914W        W33514  24.546   4.633  16.138 -0.0001 -0.0514  0.0674
26915W        W33515   3.923   6.438   3.879  0.3980 -0.0362 -0.0905
26916W        W33516   0.155   3.743  29.876  0.1464  0.0545 -0.0421
26917W        W33517  20.046   2.556   8.881  0.5500  0.2554  0.2025
26918W        W33518  17.128   6.323  22.252 -0.0191  0.0079 -0.2940
26919W        W33519   1.084   4.613  29.319 -0.0523  0.1013 -0.0807
26920W        W33520   0.594   4.477  28.795  0.2486 -0.2750  0.1097
26921W        W33521   8.621   4.802   2.131 -0.3597  0.0038 -0.0254
26922W        W33522  17.363   7.336   1.406  0.2031 -0.0850  0.1478
26923W        W33523   4.085   4.194   4.107  0.0550 -0.1433 -0.1328
26924W        W33524   0.059   4.869  29.291  0.4247  0.0659 -0.0718
26925W        W33525  12.387   1.494  10.109  0.1716  0.1741  0.0300
26926W        W33526  14.602   6.298  19.863  0.2265  0.2381  0.4221
26927W        W33527  11.508   6.482  24.129 -0.1580  0.0768 -0.0239
26928W        W33528  22.507   1.532  22.006 -0.1531  0.5011 -0.0803
26929W        W33529  13.109   1.957   4.591  0.0978 -0.0557  0.0835
26930W        W33530   5.626   4.749   7.807  0.2483 -0.0517 -0.1193
26931W        W33531   1.465   1.306   9.158 -0.2369 -0.0966 -0.0993
26932W        W33532  12.303   0.809   0.983 -0.0392 -0.0758  0.0542
26933W        W33533   7.138   1.951  30.624  0.0119 -0.0506  0.0681
26934W        W33534  22.971   4.952  30.985 -0.0257 -0.1594 -0.1650
26935W        W33535  16.998   4.961   7.972 -0.1020 -0.0859 -0.2985
26936W        W33536  13.912   2.236  27.650 -0.0545  0.0359  0.0160
26937W        W33537   3.441   1.430   4.563  0.0340 -0.5356  0.2370
26938W        W33538  13.770   3.084  10.780 -0.2636  0.3289 -0.1571
26939W        W33539   7.805   1.706  29.401 -0.1638  0.4057 -0.3003
26940W        W33540  12.997   0.019  28.983  0.5234  0.0059 -0.3647
26941W        W33541  20.573   0.556   6.181  0.0620  0.0074  0.0249
26942W        W33542   0.473   3.896   5.353 -0.1481  0.0266  0.2524
26943W        W33543   1.688   2.321   6.394  0.2360  0.3808  0.0955
26944W        W33544  22.415   6.873  17.705 -0.2894  0.1127 -0.1001
26945W        W33545   5.582   0.526  13.113  0.0482 -0.2454 -0.1218
26946W        W33546  10.174   7.433  30.703 -0.2484 -0.1977 -0.0247
26947W        W33547  14.947   2.080   1.207 -0.0033 -0.0575 -0.0077
26948W        W33548  11.199   0.043   4.785  0.1713 -0.0512 -0.2993
26949W        W33549  19.338   0.188  31.050 -0.0962 -0.1848  0.2208
26950W        W33550  11.335   6.588   5.299  0.0291 -0.0073  0.1965
26951W        W33551   4.887   4.581  26.286  0.2374  0.1617  0.1170
26952W        W33552  10.765   2.767  12.085  0.3758  0.0558 -0.0415
26953W        W33553  22.145   5.853  21.345 -0.1297  0.0013  0.0018
26954W        W33554   1.915   2.037  18.709 -0.2537 -0.0018 -0.1805
26955W        W33555  12.195   0.018   8.618  0.1364  0.4714  0.3095
26956W        W33556   4.525   1.735  24.668  0.1386  0.1906  0.0200
26957W        W33557  22.434   6.840  15.139  0.0691  0.0631  0.1143
26958W        W33558  15.774   0.665  31.221  0.1938 -0.1288 -0.1907
26959W        W33559   5.793   3.191   2.075 -0.4729  0.2734  0.3322
26960W        W33560   7.333   6.207  28.830 -0.0807  0.1843  0.0943
26961W        W33561  18.267   4.488  26.754 -0.0867  0.1788  0.1273
26962W        W33562   8.790   7.595   3.944 -0.0357 -0.2553  0.2098
26963W        W33563  24.863   1.902  31.851 -0.3050 -0.0246  0.2630
26964W        W33564   9.308   7.596  23.928  0.0876  0.0451 -0.2785
26965W        W33565  15.316   0.146  27.444  0.0725 -0.0342  0.0084
26966W        W33566  15.491   3.156   1.572 -0.0592 -0.2359 -0.0525
26967W        W33567   9.249   3.467   3.234 -0.3440  0.0271  0.0738
26968W        W33568   0.113   4.632  25.014  0.0691 -0.1791 -0.2155
26969W        W33569  19.713   4.957  16.864 -0.3394  0.3383  0.2336
26970W        W33570   0.188   7.598  24.083  0.2068  0.1786 -0.3432
26971W        W33571   9.857   3.704  13.335 -0.2230  0.1117  0.2015
26972W        W33572  16.314   6.808  23.865  0.1779  0.5017  0.0760
26973W        W33573  10.874   1.218  26.014 -0.2890 -0.2562 -0.0461
26974W        W33574  18.636   0.606   2.833  0.2115 -0.1866 -0.0147
26975W        W33575   6.541   7.216   6.518  0.1482  0.1479  0.1613
26976W        W33576  13.448   2.885  29.722  0.2258  0.4549 -0.0934
26977W        W33577   7.192   6.739   5.209 -0.0045  0.0951 -0.1100
26978W        W33578   9.762   0.666  11.151  0.1892  0.1445  0.1510
26979W        W33579   1.307   6.462   7.533 -0.2884 -0.0005 -0.1160
26980W        W33580   6.918   4.930  12.882  0.1209  0.1265  0.1168
26981W        W33581  22.002   3.776  24.941  0.0178  0.1195 -0.0875
26982W        W33582  12.114   7.420  12.741  0.0661  0.0485 -0.0714
26983W        W33583  20.280   2.124  27.225  0.1238 -0.4079 -0.2127
26984W        W33584  14.535   0.325   4.302 -0.2438  0.0036  0.0758
26985W        W33585  16.288   5.787  20.328  0.0236  0.0520 -0.0693
26986W        W33586  23.313   5.403   5.767  0.2284 -0.0237  0.0703
26987W        W33587  21.012   4.419  32.020 -0.1511 -0.0952 -0.2196
26988W        W33588  18.391   5.095  16.505  0.1039  0.0519  0.1264
26989W        W33589  13.228   1.024   1.456 -0.2194 -0.2597  0.0985
26990W        W33590   6.143   0.880  24.236  0.0102  0.1883  0.3421
26991W        W33591   2.473   2.182   8.097  0.0555 -0.0279  0.1651
26992W        W33592   9.016   3.668   8.895 -0.0799 -0.1733 -0.0025
26993W        W33593  12.486   7.645  10.314 -0.1629 -0.1810  0.0504
26994W        W33594  11.466   7.512  24.285 -0.0683 -0.0319  0.2407
26995W        W33595  14.648   2.731  32.036 -0.3909 -0.2382  0.1580
26996W        W33596   0.880   7.696   4.594  0.2896  0.0843  0.1915
26997W        W33597  21.780   3.516  23.399  0.1778  0.0273 -0.1423
26998W        W33598  10.729   2.587  10.349 -0.1639  0.0894  0.2650
26999W        W33599  17.705   4.957  20.928  0.1305  0.3216 -0.2387
27000W        W33600  13.384   0.096  13.556 -0.2442  0.2317  0.0532
27001W        W33601  14.329   6.355  30.424  0.0700 -0.1558 -0.0275
27002W        W33602   4.327   7.674  24.380  0.0789 -0.1793 -0.0250
27003W        W33603  22.121   6.850  21.595 -0.0142 -0.0112  0.1878
27004W        W33604   3.475   5.845  21.990  0.0576 -0.0581 -0.2142
27005W        W33605   8.956   3.484  18.199  0.1477 -0.0114 -0.5284
27006W        W33606  16.639   6.368  22.063 -0.0354 -0.1129  0.0783
27007W        W33607  20.965   5.197  31.747  0.0724 -0.0567  0.4842
27008W        W33608  13.429   1.913  22.651 -0.1604  0.1845 -0.1444
27009W        W33609  11.263   2.878  22.285  0.1645  0.1345 -0.0658
27010W        W33610  15.278   0.561  26.634 -0.3290  0.0557 -0.2860
27011W        W33611   0.647   6.036  26.372 -0.2733 -0.0207 -0.2140
27012W        W33612  19.288   6.061   1.459 -0.0012  0.1812 -0.0647
27013W        W33613  19.816   1.073  30.979  0.0217  0.0459 -0.2756
27014W        W33614  14.937   5.188  26.892  0.1465  0.1157  0.2647
27015W        W33615   4.764   6.158  22.788 -0.0868 -0.3590 -0.1284
27016W        W33616  20.392   4.149   3.422 -0.1101 -0.0419  0.0920
27017W        W33617   2.232   5.875  21.810  0.1196 -0.1219  0.0684
27018W        W33618   5.153   3.276  14.755 -0.2483  0.0909 -0.4705
27019W        W33619  11.346   3.116   5.445 -0.2873 -0.1567  0.1893
27020W        W33620   7.950   7.370   3.992 -0.1479  0.0962  0.1259
27021W        W33621   1.314   5.722  32.012  0.0476 -0.0982  0.0185
27022W        W33622  13.022   4.430  26.019 -0.4224 -0.2082 -0.2485
27023W        W33623  23.367   4.448   3.906 -0.0093  0.1255 -0.0220
27024W        W33624  24.441   0.181   0.484  0.2113  0.3470  0.0657
27025W        W33625  12.037   2.883   6.995 -0.1088  0.3426 -0.1464
27026W        W33626   1.151   7.777  12.474  0.2659  0.2050  0.0026
27027W        W33627  12.133   0.565   5.797 -0.0177 -0.0710 -0.3794
27028W        W33628  11.233   5.782  22.776  0.2503  0.0627  0.0238
27029W        W33629  17.817   3.289   5.476  0.1569  0.1473 -0.2627
27030W        W33630   6.607   6.358   6.780  0.1076  0.0731 -0.2085
27031W        W33631  13.876   0.089  14.511 -0.2354 -0.0152 -0.3866
27032W        W33632  23.570   4.396   1.595  0.1673  0.0477  0.1530
27033W        W33633  14.549   3.459   5.583 -0.1619 -0.1609 -0.2713
27034W        W33634   5.723   0.458  28.964  0.1511  0.0277  0.0593
27035W        W33635   2.251   1.592  28.081  0.0821  0.1142 -0.1725
27036W        W33636  15.977   2.353  25.864  0.0530  0.1415  0.0296
27037W        W33637  21.976   4.218   1.420  0.0737  0.1905  0.1621
27038W        W33638   4.501   0.775   0.654 -0.2577 -0.4326 -0.2849
27039W        W33639  12.236   3.164   0.299  0.0817  0.0458  0.2335
27040W        W33640  22.367   1.535   1.060 -0.0830  0.3213 -0.1478
27041W        W33641   5.250   3.604  15.691  0.0788 -0.0320  0.2816
27042W        W33642  10.559   1.173   0.937  0.1447  0.1144 -0.0568
27043W        W33643   8.130   3.652   1.382 -0.2095 -0.3384  0.2102
27044W        W33644  23.652   1.007  25.277  0.4340 -0.0019 -0.0275
27045W        W33645  20.065   6.488  20.616 -0.1382 -0.1182 -0.1773
27046W        W33646  12.297   7.425  16.373 -0.0989 -0.3751  0.0659
27047W        W33647  22.065   7.140  31.001  0.0174 -0.2232 -0.0761
27048W        W33648   9.451   7.226  11.423  0.0613 -0.1259 -0.0456
27049W        W33649  18.308   5.367   1.693  0.0814  0.0916  0.0808
27050W        W33650  10.631   2.434  15.844  0.1952 -0.1252 -0.1495
27051W        W33651   9.532   1.863  12.384 -0.0185 -0.1704  0.0251
27052W        W33652  15.519   3.689  24.745 -0.0348 -0.0969 -0.2664
27053W        W33653   6.312   0.557  28.107 -0.1328 -0.0026  0.1834
27054W        W33654  22.378   6.803  22.005 -0.1296 -0.0161 -0.0016
27055W        W33655   6.992   1.472  25.934 -0.2770  0.4656 -0.2607
27056W        W33656  19.769   0.447  19.302  0.2429  0.0013 -0.4200
27057W        W33657  18.341   3.294   1.697 -0.0233  0.1120  0.3359
27058W        W33658   6.051   1.282  23.082 -0.0596  0.0333  0.3278
27059W        W33659  19.883   1.637  22.950 -0.1775 -0.0811  0.0597
27060W        W33660  11.060   4.156  12.750  0.2529  0.1084  0.0127
27061W        W33661  23.456   1.086  30.924  0.3245 -0.0364 -0.1264
27062W        W33662   1.564   7.566  32.540 -0.0172 -0.0922 -0.0399
27063W        W33663   9.317   4.895  24.085  0.1461 -0.0374  0.0794
27064W        W33664   4.963   3.085  29.233  0.2874 -0.0154 -0.1475
27065W        W33665  16.475   6.693  27.822 -0.2463 -0.0067 -0.1506
27066W        W33666  17.997   6.722  24.602 -0.0954 -0.0864 -0.2060
27067W        W33667  10.928   7.406  28.940 -0.1817  0.1792 -0.0221
27068W        W33668  11.324   5.876  32.553 -0.0038 -0.3428 -0.0472
27069W        W33669   9.995   4.147  17.144  0.3453  0.0737  0.0541
27070W        W33670  24.867   4.878  23.439  0.1670  0.0558  0.0396
27071W        W33671   5.404   5.572  13.497  0.0676  0.3266 -0.1963
27072W        W33672   4.884   3.072  22.450  0.0896  0.2194 -0.0845
27073W        W33673  24.511   0.850  31.245  0.0971 -0.1927 -0.1145
27074W        W33674  21.755   6.797  17.599 -0.2917  0.1887  0.4081
27075W        W33675  19.664   5.920   8.224  0.2064  0.1735  0.0070
27076W        W33676  11.342   0.347  30.529  0.1016 -0.2223 -0.1477
27077W        W33677  23.005   2.392   8.938 -0.0201  0.1119 -0.0861
27078W        W33678  24.373   7.734  25.276 -0.1667 -0.0159  0.0133
27079W        W33679  21.126   2.945  28.030 -0.3923 -0.1560 -0.0808
27080W        W33680  21.524   3.103  18.143 -0.1847 -0.0482 -0.1224
27081W        W33681  17.608   3.768   6.716 -0.2054 -0.0218 -0.0495
27082W        W33682  15.132   4.889  13.632 -0.2950 -0.0272  0.0572
27083W        W33683   0.235   3.857   0.266 -0.0325  0.0262 -0.0642
27084W        W33684   0.570   6.497   5.782 -0.2734  0.1603 -0.2374
27085W        W33685  20.816   0.700  22.152  0.1278 -0.0813  0.0838
27086W        W33686  14.079   6.384  29.877  0.2433  0.0365 -0.2780
27087W        W33687  19.805   0.385  24.863 -0.2086  0.2303 -0.4076
27088W        W33688  17.193   2.443   7.835  0.2811 -0.1464  0.1834
27089W        W33689   6.724   1.131  28.815 -0.2043 -0.4231 -0.1289
27090W        W33690  15.092   1.225   2.602 -0.1160  0.2088 -0.0954
27091W        W33691   9.071   7.691  12.567  0.0920  0.1441 -0.1354
27092W        W33692   2.881   4.449   0.959  0.0983 -0.3061 -0.2326
27093W        W33693  13.625   1.264   5.005  0.2258 -0.5650  0.0723
27094W        W33694   1.684   2.749  19.405  0.3356 -0.3973  0.0535
27095W        W33695  13.340   2.891  22.798  0.4255  0.1981  0.0601
27096W        W33696  10.565   4.881   4.977 -0.2669 -0.2310  0.0707
27097W        W33697  23.844   3.188   3.687  0.0776  0.1343 -0.0831
27098W        W33698   3.474   0.178   2.384 -0.2781  0.2525 -0.0381
27099W        W33699   5.588   1.613  16.107 -0.0537 -0.0284 -0.1395
27100W        W33700  11.932   6.212   5.232 -0.3554  0.0015  0.1027
27101W        W33701  16.668   2.161   8.069  0.1005  0.1381 -0.3458
27102W        W33702  25.000   4.172   4.777  0.1810 -0.2207 -0.2972
27103W        W33703  17.655   7.751  31.108 -0.1156 -0.3040 -0.0084
27104W        W33704   3.690   3.057  10.848 -0.1348 -0.1882  0.0413
27105W        W33705   0.801   5.437  18.739  0.0249 -0.4851 -0.1339
27106W        W33706   9.771   7.749   1.794 -0.0024 -0.0721 -0.1229
27107W        W33707   3.372   3.520  27.429 -0.4113  0.0338  0.1784
27108W        W33708  18.067   7.602  25.359  0.1844 -0.0017  0.0144
27109W        W33709   9.006   4.644  11.454  0.3678 -0.1295  0.1472
27110W        W33710   7.931   4.612  13.678 -0.0108 -0.0971  0.1677
27111W        W33711  21.181   0.422  17.085  0.0255  0.3314  0.1279
27112W        W33712  17.678   5.726   2.246 -0.0147 -0.1993  0.1290
27113W        W33713  25.016   0.989  29.237 -0.1643  0.2219 -0.3834
27114W        W33714  16.590   4.300  24.625 -0.0978 -0.2320 -0.0243
27115W        W33715  23.549   3.051  24.072 -0.0313  0.1140 -0.0663
27116W        W33716   2.958   7.457  19.897  0.0604  0.1201 -0.3112
27117W        W33717  11.276   2.097   8.792  0.1054  0.0060 -0.0116
27118W        W33718   9.018   0.732  25.841 -0.4815 -0.2417  0.3081
27119W        W33719  23.968   5.844  15.373 -0.0242 -0.2521  0.3198
27120W        W33720  12.659   6.717   6.641  0.0756  0.0493  0.4670
27121W        W33721  21.680   4.937  30.225  0.1586 -0.1199 -0.1490
27122W        W33722  18.494   5.187   8.837  0.0412 -0.0793  0.0980
27123W        W33723  24.888   0.431   1.547  0.0097  0.0149 -0.0180
27124W        W33724  15.636   5.441   8.554  0.0438  0.1886  0.5151
27125W        W33725   2.965   2.713   1.067  0.2721 -0.2271  0.2542
27126W        W33726  13.845   3.717  13.651  0.0241 -0.0126  0.1855
27127W        W33727   6.358   5.918   6.476 -0.0394  0.0768 -0.1022
27128W        W33728   2.601   0.133   2.136 -0.0726  0.0412 -0.1390
27129W        W33729  21.474   6.939  29.873  0.0426 -0.1899  0.0088
27130W        W33730  14.901   1.462   2.989 -0.0409  0.1015  0.1375
27131W        W33731  10.306   0.327  24.597 -0.1715 -0.0003  0.0614
27132W        W33732   0.573   2.580   8.568 -0.1424  0.0637 -0.3158
27133W        W33733  15.247   6.997  20.269  0.3738 -0.0131  0.0616
27134W        W33734   3.110   2.782  30.206 -0.0654 -0.2152  0.0215
27135W        W33735   1.697   3.699   5.875 -0.0722 -0.1191 -0.5086
27136W        W33736   0.674   0.928  31.543 -0.0878  0.2715  0.0191
27137W        W33737  20.068   0.988   2.475 -0.2058 -0.0648 -0.0249
27138W        W33738   5.439   1.363   5.656 -0.1394 -0.0051 -0.1351
27139W        W33739  18.274   5.476  27.800  0.2717 -0.0861 -0.0203
27140W        W33740   3.499   2.444  32.206  0.0761 -0.1052  0.2598
27141W        W33741   8.531   3.738  29.790  0.0553 -0.1824 -0.0532
27142W        W33742   8.953   2.892  23.544  0.0608  0.0119  0.1924
27143W        W33743   0.343   2.310  10.938 -0.1884  0.0532 -0.0265
27144W        W33744  13.008   6.763   6.208  0.0598  0.0158 -0.0520
27145W        W33745  10.836   4.957   5.594 -0.0301 -0.1537  0.0928
27146W        W33746   3.634   2.018  12.546  0.0407 -0.2454 -0.3999
27147W        W33747   5.696   4.264   8.620 -0.0621 -0.0136 -0.2581
27148W        W33748   6.336   0.509   9.974 -0.3963  0.0672  0.1513
27149W        W33749  18.434   6.033  20.655 -0.0861  0.1242  0.1117
27150W        W33750   7.399   5.363   2.834  0.1785  0.0353 -0.0800
27151W        W33751  22.107   1.331   7.036  0.1400 -0.1181  0.0575
27152W        W33752   0.456   7.229  21.148 -0.2177  0.2329  0.1457
27153W        W33753   3.540   3.894  22.755  0.0039 -0.0318  0.2067
27154W        W33754   2.093   5.534   8.877  0.1361 -0.1124  0.1009
27155W        W33755   8.297   3.061  30.232  0.4541 -0.0553 -0.0142
27156W        W33756  20.610   0.056  18.761 -0.1471  0.0602  0.0078
27157W        W33757   8.674   3.298  17.189 -0.0957 -0.4289  0.0833
27158W        W33758  10.480   7.824   0.262  0.1728 -0.2904  0.3817
27159W        W33759  10.755   4.252   1.945  0.0036  0.1385 -0.2770
27160W        W33760   2.343   6.409  25.283 -0.2222  0.0826  0.2548
27161W        W33761  16.850   3.523   0.867  0.0713  0.3628 -0.1263
27162W        W33762  22.142   2.142  15.239  0.1364 -0.2080  0.0912
27163W        W33763   6.554   5.228  16.610 -0.2956 -0.4063  0.0618
27164W        W33764  20.751   7.199  18.538 -0.1324 -0.4105 -0.1372
27165W        W33765  23.216   7.368   8.133 -0.0547 -0.2107 -0.2785
27166W        W33766  16.599   6.586  30.385  0.2630  0.0202  0.2304
27167W        W33767   7.642   5.236  29.731  0.0681 -0.0239 -0.3812
27168W        W33768   5.901   5.965  27.601 -0.0260 -0.2156 -0.0796
27169W        W33769  17.517   0.053  18.093  0.0544 -0.0753 -0.0736
27170W        W33770   5.763   2.787  15.836 -0.1167 -0.0713 -0.0477
27171W        W33771  10.415   3.812  22.216  0.1024 -0.2131 -0.1702
27172W        W33772  24.985   1.996  23.287  0.0846 -0.0480 -0.0308
27173W        W33773  17.125   1.635  20.378  0.0852 -0.1823 -0.1755
27174W        W33774  22.505   0.295   1.388 -0.0977  0.0775 -0.0714
27175W        W33775  15.217   1.627  13.104 -0.2261  0.1217 -0.0392
27176W        W33776   4.934   1.680  26.652 -0.1275 -0.0592 -0.1311
27177W        W33777  20.966   1.763  31.970 -0.3587 -0.2230  0.2955
27178W        W33778   3.807   2.354  15.291 -0.1445 -0.1901 -0.1464
27179W        W33779  21.316   2.283  14.373  0.1082  0.3929  0.0412
27180W        W33780   3.557   2.081   3.278  0.0723  0.2901  0.1140
27181W        W33781  17.979   4.198   5.654  0.2234  0.1146  0.0661
27182W        W33782   9.383   2.544  29.431  0.0595  0.1702 -0.1755
27183W        W33783   2.232   0.737  24.917 -0.2325 -0.0638  0.1935
27184W        W33784   1.442   6.962  19.095  0.0976 -0.0916 -0.2389
27185W        W33785  21.412   3.665  23.690  0.1111 -0.0318  0.2113
27186W        W33786   5.907   6.172   7.418 -0.0779 -0.3856 -0.2294
27187W        W33787  16.950   1.055   7.663 -0.0366 -0.0124 -0.0590
27188W        W33788   7.549   4.420   6.063 -0.0610  0.1608  0.0320
27189W        W33789  22.455   0.290   3.653  0.2965  0.1562  0.1877
27190W        W33790  20.643   3.223  14.497 -0.1884  0.0225 -0.2023
27191W        W33791   5.710   0.690  10.202 -0.1936  0.0617 -0.0568
27192W        W33792  15.736   2.112  25.465 -0.2525  0.0584 -0.0777
27193W        W33793  24.109   0.327   3.365  0.1787  0.0642 -0.0222
27194W        W33794   8.962   1.844  25.785  0.1395  0.0457 -0.1476
27195W        W33795  22.640   2.891  32.572 -0.1130  0.2241 -0.0491
27196W        W33796  12.158   7.269  30.028  0.0599  0.0132  0.0463
27197W        W33797   4.500   5.849  25.209  0.1644 -0.0002 -0.0286
27198W        W33798  23.716   1.341   1.717  0.1066 -0.3185 -0.0089
27199W        W33799  13.830   6.751  26.324 -0.0188  0.1596 -0.0071
27200W        W33800   8.399   6.989  15.890  0.0893  0.3894 -0.1142
27201W        W33801  20.219   3.984  31.625  0.1208 -0.1482  0.1959
27202W        W33802  11.674   4.806  11.938  0.0398 -0.1063  0.2208
27203W        W33803  20.628   5.706  32.388  0.1006  0.0033  0.2357
27204W        W33804   6.462   3.989   0.964 -0.1299 -0.1401 -0.2812
27205W        W33805   2.191   0.227   5.509 -0.1533 -0.3891 -0.0717
27206W        W33806   9.715   6.191   3.272 -0.0820 -0.1791  0.0083
27207W        W33807   6.921   7.002  13.455  0.1077  0.0684 -0.0911
27208W        W33808   1.313   1.743  24.717  0.0271  0.0478  0.0848
27209W        W33809  16.981   4.778  29.918 -0.2714 -0.0716  0.3581
27210W        W33810   5.012   5.031  28.387 -0.1888 -0.0003  0.0138
27211W        W33811   6.473   7.266  23.580  0.3254 -0.1233 -0.1178
27212W        W33812  17.140   4.641   0.140  0.0794 -0.0174 -0.0860
27213W        W33813   9.390   4.640  29.781 -0.0810 -0.0826  0.3108
27214W        W33814  14.684   4.119   0.315  0.0898 -0.0353  0.0217
27215W        W33815   3.699   3.512  25.565 -0.0242 -0.2894  0.0243
27216W        W33816  14.681   4.577   7.684 -0.1378 -0.4173 -0.0092
27217W        W33817  21.565   5.937  14.964  0.1662 -0.0761 -0.1856
27218W        W33818   4.171   6.663  32.453  0.0689 -0.0144  0.0924
27219W        W33819  17.518   0.117  23.233  0.0892  0.0255  0.1044
27220W        W33820   1.582   4.833  24.806 -0.1308 -0.2685 -0.0051
27221W        W33821  19.298   1.563  29.086 -0.0885 -0.0380 -0.0824
27222W        W33822  23.095   0.591  18.028 -0.1039 -0.1282  0.0738
27223W        W33823   7.129   2.129  27.068  0.0481  0.3758  0.0895
27224W        W33824   4.482   7.574   3.171  0.0571  0.0213  0.3070
27225W        W33825   1.227   4.008   3.835 -0.0291 -0.0789  0.0982
27226W        W33826  22.607   5.945   2.236  0.0222 -0.1596 -0.0499
27227W        W33827  13.622   5.178   2.570 -0.3747  0.0158  0.0510
27228W        W33828   3.819   0.517   7.415 -0.0351 -0.1480  0.1846
27229W        W33829  15.888   5.920  18.736  0.4061  0.0202 -0.1815
27230W        W33830  11.292   7.170  27.166  0.1140 -0.0496  0.1796
27231W        W33831   9.250   4.000  12.446 -0.1267 -0.2715 -0.0324
27232W        W33832   2.165   6.611  28.799 -0.2311 -0.0096 -0.2164
27233W        W33833  18.179   2.039   4.739  0.1180  0.1175  0.2254
27234W        W33834  14.347   7.398  11.611  0.3257  0.0355  0.0738
27235W        W33835  22.640   0.213  24.828 -0.0755  0.0515 -0.2635
27236W        W33836   9.815   4.439  23.547 -0.1885 -0.0866  0.0646
27237W        W33837  11.829   7.180   6.153  0.2189 -0.1710 -0.2453
27238W        W33838  10.182   5.706   5.890  0.0625 -0.0859  0.3658
27239W        W33839  10.976   4.509  30.703  0.0103  0.2464 -0.1560
27240W        W33840  24.222   5.359  21.338  0.0179  0.1244 -0.3874
27241W        W33841   5.793   2.736   9.415  0.2959 -0.1299 -0.0622
27242W        W33842   5.760   5.172   1.431 -0.0647 -0.0230 -0.0559
27243W        W33843  23.086   1.393  24.734  0.1339  0.2917  0.1766
27244W        W33844  23.313   2.930   0.683 -0.1203  0.2926  0.1844
27245W        W33845  10.987   0.312   2.425  0.3550  0.0071  0.1682
27246W        W33846   8.699   1.881   8.446 -0.1530  0.1516 -0.0775
27247W        W33847  13.148   3.501   3.442  0.2583 -0.2195 -0.1487
27248W        W33848  19.773   3.275  17.986 -0.2032 -0.1100  0.2659
27249W        W33849  19.041   3.399   9.214  0.1597  0.2232  0.1383
27250W        W33850  15.792   5.936  31.073  0.0580 -0.2211  0.0050
27251W        W33851  11.737   0.461   7.009 -0.0081  0.2996  0.0286
27252W        W33852  20.223   5.189   3.616  0.4012 -0.2462  0.0513
27253W        W33853  24.812   6.830   5.353 -0.3899 -0.3327  0.0781
27254W        W33854  13.249   4.762  27.230  0.0636  0.0344  0.0169
27255W        W33855  17.883   0.350   1.994  0.1483 -0.0114  0.0788
27256W        W33856  20.862   1.840   6.315 -0.1877 -0.2681  0.4570
27257W        W33857  23.021   1.770  27.262  0.2284 -0.1108  0.3888
27258W        W33858  12.597   2.788  23.053 -0.2896  0.0901 -0.1018
27259W        W33859   8.624   3.962  30.566 -0.0669 -0.1973  0.0019
27260W        W33860  11.876   0.873  23.070  0.2163  0.0099  0.1137
27261W        W33861   9.429   4.328  13.754  0.0548 -0.1098  0.1500
27262W        W33862   4.470   7.242  10.161 -0.1771 -0.2844 -0.3054
27263W        W33863   3.715   2.209   5.927  0.2572  0.0483  0.1154
27264W        W33864  11.678   5.590  13.552  0.3491 -0.0367 -0.1562
27265W        W33865  10.138   4.408  14.657  0.0083 -0.0497 -0.0763
27266W        W33866  15.225   7.575  19.586 -0.0425  0.1422  0.3025
27267W        W33867  13.603   6.945  28.654  0.0067  0.1723  0.1719
27268W        W33868   7.852   3.249  22.885 -0.3409  0.1026  0.1504
27269W        W33869  22.133   6.368  21.607  0.1146  0.1137 -0.0928
27270W        W33870   6.526   1.193   2.180 -0.2804 -0.3307  0.0174
27271W        W33871  22.681   1.805  28.613 -0.0182  0.0956  0.1922
27272W        W33872  21.533   7.672  17.746 -0.0010  0.2843 -0.1479
27273W        W33873   9.061   6.330   0.827 -0.1773  0.0359  0.0453
27274W        W33874  18.953   7.116   0.853 -0.0816  0.1280 -0.3825
27275W        W33875   7.688   4.462  10.006 -0.0974 -0.0463 -0.0953
27276W        W33876  17.038   6.677  24.489 -0.1950  0.1506 -0.2221
27277W        W33877   6.587   6.752  15.843  0.1292  0.2753 -0.4666
27278W        W33878  24.898   5.684  22.805  0.1910  0.3595 -0.0353
27279W        W33879  13.758   2.664  23.056 -0.0269  0.1752 -0.4631
27280W        W33880  15.827   6.926  23.638  0.1152 -0.2645 -0.1704
27281W        W33881  14.666   2.628  28.996  0.0136  0.0172  0.3894
27282W        W33882  15.714   2.524  12.370  0.0007 -0.0352 -0.1193
27283W        W33883  15.850   2.349   7.521 -0.4256 -0.1501  0.1016
27284W        W33884  11.218   2.422  10.192 -0.0037 -0.0972  0.1641
27285W        W33885  11.574   0.209  28.615  0.1989 -0.0722  0.1233
27286W        W33886  18.103   4.187  10.583  0.4915 -0.0588 -0.0671
27287W        W33887  21.174   1.828   6.779 -0.0182 -0.0153  0.1376
27288W        W33888   0.899   0.481  26.743 -0.0745 -0.1075 -0.1813
27289W        W33889  12.658   5.516  23.895  0.2703 -0.0583  0.1392
27290W        W33890  13.573   0.400   5.911 -0.0408 -0.2473 -0.1067
27291W        W33891  15.024   7.542   0.926 -0.0865 -0.1614 -0.2133
27292W        W33892   6.531   2.049   1.675  0.0606 -0.2431  0.1049
27293W        W33893   5.800   7.176  11.632  0.1106 -0.0416 -0.1376
27294W        W33894  11.115   1.970  23.846 -0.0819 -0.1399 -0.1576
27295W        W33895  13.106   6.295  30.455 -0.0528  0.0894 -0.0467
27296W        W33896  16.198   3.134  21.491 -0.0359 -0.2314 -0.2804
27297W        W33897   6.352   4.539   1.108 -0.1460  0.0678  0.0599
27298W        W33898   4.943   7.081   6.213 -0.0932  0.1345  0.0336
27299W        W33899   5.303   0.292   4.460 -0.0738  0.1553 -0.1342
27300W        W33900   0.345   1.915   8.464 -0.3240 -0.0190 -0.2926
27301W        W33901   8.543   7.188  23.976  0.3192  0.0360 -0.3394
27302W        W33902  21.933   7.161   6.624  0.0936  0.0462  0.0555
27303W        W33903  20.403   2.873  10.687 -0.0024 -0.2286  0.0472
27304W        W33904   3.978   0.017  32.319  0.3610 -0.1837  0.2425
27305W        W33905  22.041   4.711  20.835  0.1413 -0.0961 -0.0241
27306W        W33906  20.297   4.852  19.845  0.2354 -0.0526  0.0020
27307W        W33907   1.072   6.910  27.273  0.0287  0.0329 -0.1132
27308W        W33908  23.345   4.775  13.874  0.1692  0.1344  0.2356
27309W        W33909   4.413   3.684   9.614  0.0145 -0.1842  0.1114
27310W        W33910  22.055   6.535  17.914  0.1358  0.2750  0.1185
27311W        W33911  13.283   6.830   6.647 -0.3150 -0.0339 -0.2504
27312W        W33912   2.059   1.325   8.662  0.1155  0.1639 -0.1066
27313W        W33913  13.781   6.591   5.932  0.2988  0.1031 -0.2280
27314W        W33914  19.174   2.631  29.156 -0.3302  0.1321  0.1374
27315W        W33915  22.144   5.479   3.239  0.2622  0.0662 -0.0304
27316W        W33916  22.854   4.806  23.942 -0.4232 -0.2521 -0.0845
27317W        W33917   5.974   4.694  25.600 -0.1026  0.0992  0.1611
27318W        W33918   9.100   4.697   4.980  0.0197  0.3312  0.0405
27319W        W33919   3.010   5.252  11.855 -0.1086  0.2773  0.0809
27320W        W33920   5.322   3.851  26.560  0.1027  0.0036  0.0198
27321W        W33921   0.959   7.757  21.870  0.0037  0.0842  0.1581
27322W        W33922  21.766   6.726  24.543  0.0597  0.1656  0.1274
27323W        W33923  15.838   3.344  24.961 -0.0665  0.1663  0.4255
27324W        W33924  14.424   6.381  27.125  0.2958  0.2410  0.0671
27325W        W33925  18.958   5.283  21.524  0.1040  0.1482  0.1507
27326W        W33926  21.671   3.731   5.402 -0.0739 -0.3944 -0.1474
27327W        W33927   0.994   3.731  31.849 -0.0145  0.1575  0.0534
27328W        W33928  16.106   1.279  22.281 -0.0093 -0.0328 -0.0850
27329W        W33929  12.228   5.880   4.825  0.0275  0.3037  0.0551
27330W        W33930   0.837   3.767  20.875 -0.1307 -0.1705 -0.3272
27331W        W33931  23.252   0.721   3.731 -0.0560  0.2310  0.1134
27332W        W33932  22.441   1.151   0.089 -0.0386  0.2292  0.1739
27333W        W33933  14.764   0.021   6.425  0.0604  0.0080 -0.1610
27334W        W33934   6.467   1.467   6.750 -0.2067  0.2412  0.1095
27335W        W33935  22.047   0.881  27.777  0.0621  0.4351 -0.2521
27336W        W33936  16.707   2.058  31.557 -0.2888 -0.1774  0.3016
27337W        W33937   2.329   2.515  29.816  0.1229  0.1547  0.1825
27338W        W33938  10.172   6.474   9.761 -0.0062 -0.0903  0.0675
27339W        W33939   8.204   6.710  30.328 -0.1067  0.2781 -0.1893
27340W        W33940   8.108   1.401  13.571 -0.0781 -0.0330 -0.2622
27341W        W33941  14.994   1.894   8.026 -0.0457  0.0906  0.0810
27342W        W33942  21.433   6.573   9.268  0.1670 -0.1923 -0.1032
27343W        W33943  14.286   0.849   7.390  0.0883  0.1054 -0.1957
27344W        W33944  15.660   6.400  11.509  0.2180  0.0525 -0.3383
27345W        W33945   3.673   0.631   0.704 -0.2299  0.1814 -0.2154
27346W        W33946  13.989   4.577   3.152  0.0806  0.0743 -0.1156
27347W        W33947  23.136   5.563  19.331 -0.0048  0.2484  0.1415
27348W        W33948  10.367   1.501  22.305  0.0137 -0.0619  0.2212
27349W        W33949   3.795   2.915  32.034  0.1712  0.0997  0.2549
27350W        W33950  22.076   6.869   4.985  0.0056  0.0913 -0.3832
27351W        W33951  23.571   4.732  14.404 -0.0801 -0.2349 -0.1714
27352W        W33952   4.844   2.807  10.314 -0.0043 -0.0416  0.0864
27353W        W33953   4.754   3.607  10.892 -0.2825 -0.1126  0.1960
27354W        W33954  22.254   1.557  18.206  0.3949  0.0131  0.2149
27355W        W33955   8.612   7.013  15.373 -0.0377  0.1129 -0.1212
27356W        W33956   8.869   4.345  10.033 -0.1199 -0.1599  0.0628
27357W        W33957  12.877   7.092   4.879 -0.2537  0.2345  0.1547
27358W        W33958  24.482   5.379  24.068  0.0110 -0.0635 -0.1470
27359W        W33959  15.072   6.893  27.457 -0.1504  0.0102 -0.5677
27360W        W33960   6.990   3.762   6.175 -0.0901 -0.1475 -0.1209
27361W        W33961   9.894   1.658   4.670 -0.0390  0.0089  0.1652
27362W        W33962   7.794   3.953  32.163  0.1509 -0.0336 -0.2195
27363W        W33963  12.934   0.762  27.955 -0.0616 -0.1470 -0.0879
27364W        W33964   1.401   3.099  31.342 -0.2043  0.2601  0.1691
27365W        W33965   4.384   2.190  31.257 -0.1436 -0.0131 -0.1264
27366W        W33966   5.144   7.537  15.364  0.0281 -0.0315  0.1326
27367W        W33967  16.477   1.414  11.489 -0.0339  0.0565  0.0539
27368W        W33968   5.976   7.446  15.970  0.2848  0.0886  0.2377
27369W        W33969   6.926   4.330  14.655 -0.0714 -0.1465 -0.3886
27370W        W33970   4.891   5.155  21.759  0.0963  0.0896  0.0281
27371W        W33971  19.070   6.338  27.364  0.1522  0.0061 -0.3291
27372W        W33972  14.895   2.931   6.714  0.0134  0.2715  0.0928
27373W        W33973   2.762   1.885   5.190 -0.0200  0.3076 -0.3381
27374W        W33974   8.504   0.552  14.907  0.0125  0.5167  0.1047
27375W        W33975  24.555   0.982   1.047  0.1590 -0.2903  0.1377
27376W        W33976  14.641   5.201   5.296  0.0417 -0.1799 -0.3795
27377W        W33977   1.955   6.729  26.415 -0.0098 -0.0845 -0.1533
27378W        W33978   0.773   5.444  26.575  0.0013 -0.0623  0.0211
27379W        W33979   8.886   5.002  28.549  0.0645  0.0222  0.2221
27380W        W33980   6.208   7.511  11.076  0.1575 -0.0111 -0.0083
27381W        W33981   9.310   1.571  25.922  0.0792  0.0148  0.1184
27382W        W33982   6.111   3.379   4.026 -0.0711  0.0313 -0.1203
27383W        W33983  23.138   4.916   8.045 -0.1659  0.2244 -0.2190
27384W        W33984  17.743   6.762  10.447 -0.3111 -0.0295  0.0996
27385W        W33985   9.771   1.675  25.725 -0.0769  0.1722 -0.0709
27386W        W33986   6.470   3.209  15.785  0.1447 -0.1068 -0.2686
27387W        W33987  12.643   3.604   3.655  0.0365 -0.2027 -0.0129
27388W        W33988  21.334   7.018   7.586 -0.0208 -0.2568 -0.1836
27389W        W33989  18.925   2.978  28.882 -0.1136 -0.1708  0.0946
27390W        W33990  24.314   2.157  17.411  0.0856 -0.1792 -0.2489
27391W        W33991  24.023   7.640  23.642  0.0092  0.2260 -0.0119
27392W        W33992   6.520   1.143  22.905 -0.0496  0.1793 -0.1172
27393W        W33993  10.751   5.068  27.924 -0.0735  0.0695 -0.2141
27394W        W33994   7.710   5.317  25.661  0.1782  0.0358  0.1053
27395W        W33995   0.389   1.230   0.270 -0.1054  0.3826  0.1586
27396W        W33996   7.698   0.587   3.898  0.1158  0.2362  0.2604
27397W        W33997  21.547   4.133  16.900 -0.1085  0.0986 -0.1336
27398W        W33998   1.704   2.579  27.754 -0.1223 -0.2338 -0.2518
27399W        W33999   1.363   5.525  19.781 -0.1659 -0.0501 -0.1087
27400W        W34000  15.721   2.763   5.691 -0.3105  0.0080  0.0676
27401W        W34001  18.275   0.049  26.964  0.1317  0.1112 -0.1162
27402W        W34002   2.017   4.358  20.380  0.2661 -0.2099  0.4362
27403W        W34003  12.451   6.044  27.203  0.2922 -0.0523  0.1270
27404W        W34004   1.204   3.481  28.082 -0.0283  0.3866  0.4659
27405W        W34005   7.812   7.561   9.337 -0.2156 -0.1130  0.1698
27406W        W34006  14.426   4.303  29.628  0.2941  0.5362  0.3656
27407W        W34007  12.020   6.418  26.353 -0.1524  0.2026 -0.0008
27408W        W34008   8.862   5.316  26.019 -0.0521  0.0728  0.1313
27409W        W34009   7.812   7.113  27.931  0.2049  0.0288  0.0813
27410W        W34010   7.102   1.169  10.418  0.1142  0.1132 -0.2313
27411W        W34011   8.534   1.608  13.944  0.0896  0.3504 -0.1496
27412W        W34012   0.350   5.163  29.614  0.0697 -0.2542 -0.3003
27413W        W34013   3.515   2.060  26.842  0.1593 -0.0487  0.2926
27414W        W34014   3.025   6.156   9.245  0.4970 -0.1428 -0.2677
27415W        W34015  17.257   5.482  24.443  0.0433 -0.0201 -0.1285
27416W        W34016   0.322   1.657   0.529 -0.0515 -0.2820  0.0131
27417W        W34017  20.219   6.243   6.607 -0.1644 -0.0480  0.1250
27418W        W34018   4.782   0.427  13.696 -0.1103  0.1941 -0.0657
27419W        W34019  23.932   1.603  15.576 -0.1227  0.0257  0.2428
27420W        W34020   2.991   7.030   4.573  0.3976 -0.1243 -0.1836
27421W        W34021   1.956   6.011   8.806 -0.1200 -0.3132 -0.1978
27422W        W34022  18.829   5.316  20.142  0.0047 -0.1066  0.1619
27423W        W34023   1.442   7.188  32.199  0.2356  0.1262  0.0229
27424W        W34024  16.808   3.474  22.073 -0.3834 -0.0497 -0.2639
27425W        W34025  19.011   2.397   1.605  0.0416  0.1914 -0.3780
27426W        W34026  10.697   2.686  30.437 -0.1610  0.2683 -0.1166
27427W        W34027  20.899   3.735   1.009  0.0422  0.3418 -0.1172
27428W        W34028  13.418   3.802  24.535  0.0289  0.1192 -0.1826
27429W        W34029  13.825   6.566   3.319  0.0650 -0.2387  0.0850
27430W        W34030  13.837   7.058  29.138 -0.3568  0.2194  0.1067
27431W        W34031  14.448   5.181  32.375  0.2555 -0.0222 -0.1607
27432W        W34032  22.779   7.313   0.492 -0.0691  0.0466 -0.2914
27433W        W34033   6.108   4.902   8.011 -0.3431 -0.1034 -0.1695
27434W        W34034   5.089   6.767   2.004  0.2192 -0.0278  0.1412
27435W        W34035  21.632   7.778  29.426  0.2595 -0.0162 -0.2409
27436W        W34036  15.160   3.419  30.329  0.0714  0.2167 -0.1192
27437W        W34037  14.027   4.852  14.536  0.1221 -0.1503 -0.0852
27438W        W34038   7.016   6.600  31.097  0.1352  0.3457 -0.1653
27439W        W34039  24.087   6.075  27.330  0.0156  0.1453 -0.1268
27440W        W34040   6.972   4.147  15.500 -0.0621  0.0976  0.1533
27441W        W34041  24.703   4.331   0.713 -0.3406 -0.0705  0.1013
27442W        W34042   2.571   0.836   0.977  0.2857 -0.0231  0.1480
27443W        W34043   2.135   6.237  21.491  0.0269 -0.2187 -0.0086
27444W        W34044  13.375   3.577  11.346 -0.0705  0.1141  0.1919
27445W        W34045   6.745   3.105  31.887 -0.0625  0.1661  0.0343
27446W        W34046   9.480   0.375  31.949  0.0370  0.0400  0.0772
27447W        W34047   5.732   1.074  31.600 -0.0062 -0.0592 -0.1810
27448W        W34048   3.008   2.476  31.459  0.0198  0.1666  0.2948
27449W        W34049  23.535   0.860   8.031 -0.3951  0.1713 -0.2868
27450W        W34050  24.813   3.773   1.001 -0.3737  0.1774  0.3271
27451W        W34051  21.937   1.663  28.563  0.1715  0.3306  0.3770
27452W        W34052  12.199   0.651  11.886  0.1901 -0.0954  0.1369
27453W        W34053   2.959   2.849   0.466  0.1229  0.1252  0.1613
27454W        W34054  12.069   4.188   1.707 -0.1837 -0.2187 -0.1652
27455W        W34055   0.346   6.233   8.446  0.2768  0.0299  0.0216
27456W        W34056  23.988   1.621   8.558 -0.2028 -0.0679  0.0200
27457W        W34057  21.643   0.547  27.869 -0.0162 -0.4288 -0.0084
27458W        W34058   4.932   3.252   0.323 -0.1424  0.2545  0.2997
27459W        W34059  12.658   5.137  26.091 -0.1687 -0.0237 -0.3070
27460W        W34060   4.620   6.780   7.943 -0.0071  0.1365 -0.0531
27461W        W34061  10.171   7.463   1.458 -0.0560 -0.0094  0.0126
27462W        W34062   7.453   7.137  11.775 -0.2049 -0.0186  0.1533
27463W        W34063   7.160   6.964  31.464  0.0567  0.0502  0.1508
27464W        W34064  22.469   0.969   7.007  0.0858 -0.2576 -0.0251
27465W        W34065  24.451   1.362  16.402 -0.0657 -0.2139 -0.1249
27466W        W34066   7.705   7.136   9.053  0.0853  0.0720 -0.0843
27467W        W34067   2.783   5.037  23.847 -0.0387  0.1518 -0.1664
27468W        W34068   3.005   0.450  24.660 -0.2522  0.4112  0.2499
27469W        W34069   1.602   7.232   7.569  0.1987 -0.0671 -0.0713
27470W        W34070  21.773   5.783  16.986 -0.0453  0.0808  0.0428
27471W        W34071   1.645   2.390   8.060  0.0865 -0.3473 -0.1974
27472W        W34072  10.942   2.744   9.852 -0.1968  0.1148  0.0105
27473W        W34073  23.729   4.278  18.627 -0.1140 -0.1136 -0.1223
27474W        W34074   1.346   3.159   6.340  0.0070  0.4746  0.3407
27475W        W34075   3.525   3.042   9.824  0.1580  0.2353 -0.2127
27476W        W34076  16.085   3.234  27.539 -0.0481  0.0209  0.1609
27477W        W34077   4.990   7.145  30.302 -0.2657 -0.0101 -0.0011
27478W        W34078  24.665   7.728  24.885 -0.2807  0.0320  0.3993
27479W        W34079  11.777   6.711   2.825 -0.0164  0.1227 -0.0954
27480W        W34080  15.681   6.424   4.675  0.0756 -0.1329  0.1386
27481W        W34081   2.713   0.677  25.015 -0.0306  0.2619  0.1108
27482W        W34082   6.495   3.862   8.860  0.2019  0.3136  0.0414
27483W        W34083   2.230   6.335   5.644  0.1045  0.3244  0.1803
27484W        W34084  20.433   3.774   1.230 -0.0607  0.3957 -0.0386
27485W        W34085  20.253   7.804   7.934 -0.2968  0.0950 -0.0004
27486W        W34086  15.800   0.546  20.997 -0.2379 -0.2382  0.0987
27487W        W34087  17.290   4.541  27.887 -0.3576  0.0733  0.1174
27488W        W34088   0.905   6.074  20.439 -0.3393 -0.0623 -0.1031
27489W        W34089  15.264   6.781  32.667 -0.0118 -0.2604 -0.1681
27490W        W34090   6.174   7.391  14.715  0.2220 -0.2066  0.4598
27491W        W34091  14.627   2.281  30.170 -0.0110 -0.1462  0.0667
27492W        W34092   5.569   2.302  29.051  0.1288 -0.0759  0.0283
27493W        W34093  11.815   1.832  11.340 -0.0550 -0.0872  0.1336
27494W        W34094  20.715   0.125  23.162 -0.1424 -0.1173 -0.1865
27495W        W34095  14.906   6.854  20.655 -0.2115 -0.0682 -0.4078
27496W        W34096   2.893   3.540   3.601  0.3125  0.3099 -0.0998
27497W        W34097   9.918   0.816  15.603 -0.0110  0.0496  0.0114
27498W        W34098  13.055   4.476  13.404 -0.0795 -0.0568 -0.2890
27499W        W34099  21.154   1.788  23.365  0.1621  0.1105 -0.0944
27500W        W34100   1.321   4.792   2.862 -0.0964  0.2346 -0.3277
27501W        W34101  11.838   0.596  12.772 -0.0237  0.0800  0.1368
27502W        W34102   4.164   4.573   5.944 -0.1984  0.4402 -0.0190
27503W        W34103   4.602   2.229  11.043  0.1527 -0.2121 -0.1561
27504W        W34104  14.827   3.708   8.701 -0.1637 -0.2529  0.1348
27505W        W34105  23.022   3.080   4.873  0.1765 -0.0668  0.0123
27506W        W34106  19.438   0.234  24.490  0.0232  0.0465  0.1561
27507W        W34107  12.436   0.013  27.293  0.1045 -0.2287  0.1578
27508W        W34108  19.750   7.165  25.628 -0.4273 -0.0802 -0.1275
27509W        W34109  19.346   5.962  25.931 -0.3231  0.0147  0.0293
27510W        W34110  12.252   7.477  23.612 -0.0829 -0.3261 -0.0272
27511W        W34111   5.827   0.986  28.942  0.1136 -0.0899 -0.0575
27512W        W34112  19.642   5.368  17.193 -0.1953  0.0928 -0.5423
27513W        W34113   9.629   2.033  11.566 -0.0753  0.2151  0.0030
27514W        W34114  24.552   3.619   0.002  0.1983  0.0555  0.3212
27515W        W34115   4.907   1.330   9.738  0.2786  0.1811  0.0307
27516W        W34116  16.104   3.621   9.977  0.0559 -0.1482  0.0799
27517W        W34117  18.769   6.514   4.469 -0.0556  0.0183  0.1764
27518W        W34118  13.918   0.766   8.278  0.1424  0.1647 -0.0010
27519W        W34119  23.413   6.603  29.210  0.2263 -0.0809 -0.0116
27520W        W34120  12.160   0.159  12.087 -0.2397 -0.3328  0.0133
27521W        W34121  16.886   3.084   9.107  0.1518 -0.2617  0.3856
27522W        W34122  16.377   0.852  32.084 -0.2324 -0.0568  0.0677
27523W        W34123  13.580   1.212   7.537  0.0263 -0.1095 -0.3014
27524W        W34124  22.345   4.619  23.964 -0.2351  0.3004 -0.1291
27525W        W34125  21.627   1.136  22.612  0.1221  0.3268 -0.0367
27526W        W34126   4.057   7.292  25.132 -0.0203  0.0483  0.2262
27527W        W34127  12.626   2.342   2.780 -0.0066  0.2390 -0.0145
27528W        W34128   5.374   1.595   6.108 -0.0781 -0.1825 -0.1571
27529W        W34129  24.559   3.184  23.192 -0.0491 -0.2291 -0.0556
27530W        W34130   4.701   4.195   5.077  0.0770  0.2127  0.0923
27531W        W34131   9.338   3.982   8.048 -0.1894 -0.1633 -0.4044
27532W        W34132  18.911   4.418  25.008  0.1556  0.1637  0.0669
27533W        W34133  12.487   0.673  16.168  0.1108 -0.1158 -0.0736
27534W        W34134  22.480   4.336  26.302 -0.2297 -0.1565  0.4044
27535W        W34135  10.025   3.079  16.944  0.0086  0.0162 -0.1124
27536W        W34136   7.335   0.393   9.614  0.0535  0.1547  0.1704
27537W        W34137  16.969   0.654  31.268 -0.3262  0.1798  0.2946
27538W        W34138   1.231   1.312   6.557  0.3061  0.1260 -0.2486
27539W        W34139  18.096   0.596   7.194 -0.1097  0.2511  0.1320
27540W        W34140  14.382   1.180   2.125  0.1852 -0.2122  0.1410
27541W        W34141  24.165   1.248  25.437 -0.0599 -0.0475 -0.0993
27542W        W34142   6.064   5.882  14.179  0.2638 -0.0072  0.0667
27543W        W34143  15.159   4.128  28.209 -0.2359 -0.3145  0.0021
27544W        W34144  13.726   3.814  25.683  0.2157  0.0293 -0.1791
27545W        W34145  17.944   3.816  20.787  0.1307 -0.0535 -0.0956
27546W        W34146  11.597   2.401   0.185 -0.2416 -0.0860 -0.0190
27547W        W34147  22.703   2.716  30.178 -0.2694 -0.0544 -0.0310
27548W        W34148   3.693   2.308   9.800 -0.1115  0.2223 -0.1169
27549W        W34149  14.364   1.738  23.506  0.1583  0.2932  0.3047
27550W        W34150  21.155   6.170  23.839  0.3620 -0.0514  0.0607
27551W        W34151  16.435   2.458  20.946 -0.0570 -0.0290 -0.1175
27552W        W34152   5.506   6.985  25.079  0.0990 -0.0195 -0.1105
27553W        W34153  24.570   1.244  25.740  0.1068 -0.3079 -0.1530
27554W        W34154   1.953   5.838  12.092 -0.0595 -0.1865  0.0765
27555W        W34155  18.645   7.402   4.088 -0.1654  0.1073  0.0642
27556W        W34156   3.808   1.074  32.571  0.0367  0.1521 -0.0719
27557W        W34157  19.223   6.560   6.498 -0.0459 -0.5072 -0.1428
27558W        W34158  18.686   6.213  32.301  0.2650  0.0795  0.0073
27559W        W34159  18.672   2.547   6.234  0.3413 -0.0949 -0.1398
27560W        W34160  15.264   1.711  28.906 -0.1637  0.0140 -0.2172
27561W        W34161   8.483   0.260  10.394  0.1115 -0.2143  0.0592
27562W        W34162  12.499   6.726  13.174  0.1918  0.2916  0.0750
27563W        W34163   4.372   6.913  27.905 -0.0998 -0.0409  0.2594
27564W        W34164   4.437   0.888  13.591  0.1718 -0.1474 -0.0017
27565W        W34165  21.508   1.740  25.808  0.0175  0.1075 -0.2071
27566W        W34166   2.896   5.730  26.526  0.0279 -0.3362  0.2008
27567W        W34167  22.152   5.904  14.954 -0.0721 -0.2142 -0.1743
27568W        W34168  18.626   2.115  30.041 -0.0418 -0.0482 -0.4199
27569W        W34169   8.411   1.294   2.279 -0.1920 -0.2092 -0.3916
27570W        W34170   2.585   1.637  29.884 -0.2467  0.1832 -0.1883
27571W        W34171  12.046   6.348   6.576  0.1827 -0.0638  0.1016
27572W        W34172  10.364   6.775   6.392  0.0459 -0.1614 -0.1962
27573W        W34173  15.663   4.321  25.641  0.1395 -0.0013 -0.3469
27574W        W34174  16.072   2.140  10.436  0.3084 -0.1380 -0.1510
27575W        W34175   4.187   6.794  26.888 -0.2786 -0.0180 -0.0684
27576W        W34176   1.161   5.505  24.729 -0.2544 -0.3072 -0.2776
27577W        W34177   5.510   2.643  28.173  0.0050 -0.4786  0.1682
27578W        W34178  15.650   2.377   3.063  0.3675  0.0602 -0.2883
27579W        W34179  15.927   4.942  23.835 -0.2122  0.1954  0.0606
27580W        W34180   9.544   6.218   9.677  0.1318 -0.4162 -0.0866
27581W        W34181  17.522   5.395  17.593  0.2067 -0.0180  0.1868
27582W        W34182  11.220   6.900  12.800 -0.1180  0.1755  0.2795
27583W        W34183   7.188   0.653   1.464 -0.2192  0.0244 -0.0539
27584W        W34184  24.743   3.997  31.307 -0.0370 -0.3375 -0.1808
27585W        W34185   8.325   1.193  27.782  0.0559  0.0789  0.1907
27586W        W34186   6.129   2.126  24.126 -0.0243  0.1650 -0.1644
27587W        W34187   4.914   4.164  31.312 -0.1374  0.2225  0.0872
27588W        W34188  13.098   5.992  23.047 -0.1104  0.1192  0.2587
27589W        W34189  18.596   6.874  17.779 -0.0551 -0.0898  0.0994
27590W        W34190   1.543   7.597  25.756  0.0380  0.0905 -0.0320
27591W        W34191  12.802   7.064  10.911  0.0850 -0.0411  0.0448
27592W        W34192   5.225   5.956  21.743  0.3989  0.2134  0.0849
27593W        W34193  16.485   0.397  32.239  0.0145  0.1415  0.0099
27594W        W34194  11.231   4.392   7.267 -0.0160  0.1259 -0.0998
27595W        W34195  22.004   2.440  28.634  0.0443 -0.1604 -0.0259
27596W        W34196  21.219   1.949  30.761  0.1873  0.2179  0.1864
27597W        W34197  19.233   2.978   3.311  0.0533  0.0453 -0.1326
27598W        W34198  20.122   3.856   9.468  0.0557  0.0143  0.2096
27599W        W34199  11.809   1.467   3.087 -0.1604 -0.2068 -0.2022
27600W        W34200  24.650   2.971   9.430 -0.0712  0.0748 -0.2860
27601W        W34201  13.898   3.102  32.103 -0.2016 -0.1375  0.2767
27602W        W34202   0.621   4.923  18.176  0.1346  0.1636  0.0583
27603W        W34203  10.997   1.292  29.835 -0.2534 -0.0883  0.0506
27604W        W34204  20.151   7.720  32.493 -0.0744  0.2682 -0.0726
27605W        W34205  20.488   2.827  22.193 -0.0030 -0.0144 -0.2052
27606W        W34206  12.630   0.419  27.787  0.0660 -0.1674  0.2847
27607W        W34207  13.392   0.793   3.996 -0.0981 -0.3674 -0.0306
27608W        W34208  13.987   1.481   1.899 -0.2211  0.0222  0.4073
27609W        W34209  12.255   2.326   3.773 -0.2246  0.1335  0.0310
27610W        W34210  14.726   1.450  28.292  0.0061  0.3004  0.0436
27611W        W34211  20.118   6.402  18.591 -0.1621 -0.1136 -0.0573
27612W        W34212  21.223   1.006  20.283  0.1625 -0.1366  0.2213
27613W        W34213  22.587   6.676  16.393  0.0135  0.0927  0.1327
27614W        W34214   3.944   1.007  27.801  0.0165  0.1191  0.2512
27615W        W34215   6.841   6.908  28.833  0.0354 -0.2145 -0.0365
27616W        W34216   3.557   6.640  29.479 -0.1403  0.1520  0.1088
27617W        W34217   0.137   3.355  32.151  0.1281  0.0921  0.0076
27618W        W34218  22.520   0.920   2.169 -0.1269 -0.2461  0.1626
27619W        W34219  24.701   2.918   8.157 -0.2498  0.2487 -0.0985
27620W        W34220  19.961   7.375   5.175  0.0403 -0.0441  0.1749
27621W        W34221  12.465   7.133  23.232  0.1653  0.1222 -0.1176
27622W        W34222   2.066   2.015   1.556 -0.1241  0.0170  0.0814
27623W        W34223   1.420   6.121  10.873 -0.2133 -0.0871 -0.1188
27624W        W34224  23.372   7.774  15.759 -0.2806 -0.0073 -0.0695
27625W        W34225   2.956   3.421   8.796  0.3062  0.0101 -0.2076
27626W        W34226   6.525   2.438   6.729  0.1424 -0.1461 -0.0983
27627W        W34227  19.041   2.207  21.128  0.1840  0.3662  0.1496
27628W        W34228  21.153   5.688   8.833  0.2463 -0.2021  0.2346
27629W        W34229  24.779   1.440  17.419 -0.5039  0.2660  0.3306
27630W        W34230   0.138   0.987  28.777 -0.0703  0.0157 -0.2414
27631W        W34231  15.282   1.133   9.478  0.1323 -0.0769  0.0232
27632W        W34232  17.989   2.631  25.529  0.0921 -0.1151  0.0274
27633W        W34233  17.896   7.099   6.595 -0.0253  0.1533  0.1783
27634W        W34234   7.754   3.088  29.954 -0.0177 -0.0161 -0.0913
27635W        W34235  11.374   2.972   3.909 -0.2851 -0.2567 -0.2225
27636W        W34236   3.060   3.910  29.212 -0.0906  0.0935  0.1199
27637W        W34237  16.167   7.159   6.577 -0.0930  0.0971 -0.1903
27638W        W34238   1.564   4.493   8.581 -0.0517  0.1115  0.0388
27639W        W34239  22.866   2.840  27.301  0.2376  0.1177 -0.2854
27640W        W34240   3.535   1.467   0.875  0.2299  0.0355 -0.1645
27641W        W34241   3.915   3.573  20.744  0.1123  0.3535  0.1149
27642W        W34242   9.024   5.493   8.721 -0.0960 -0.0536  0.0692
27643W        W34243  13.124   2.248   6.467 -0.1668  0.1252 -0.0496
27644W        W34244  11.044   0.102  24.447  0.2013 -0.2258 -0.0245
27645W        W34245  11.499   6.907  11.700  0.0437 -0.1772 -0.3865
27646W        W34246  24.047   3.819   2.093 -0.1656 -0.4104 -0.1270
27647W        W34247   4.276   2.026   6.961 -0.3316 -0.0844  0.0362
27648W        W34248  23.403   6.189  30.386  0.1021  0.1622  0.0721
27649W        W34249  14.926   4.681   4.285 -0.0996 -0.1551  0.0972
27650W        W34250   8.782   1.635  22.852 -0.1052 -0.1463 -0.0924
27651W        W34251  22.368   1.079   5.302 -0.0415  0.2102 -0.2231
27652W        W34252  24.631   4.907  29.481  0.0580  0.0163  0.0553
27653W        W34253  22.680   1.255  31.533 -0.3602 -0.0224 -0.0981
27654W        W34254  15.285   4.666  10.268 -0.2020  0.0506  0.1548
27655W        W34255  15.148   5.908   9.549 -0.1827  0.1482  0.1731
27656W        W34256   3.462   6.632   2.135 -0.2066 -0.3618  0.3930
27657W        W34257  20.399   5.666   2.588 -0.0759 -0.1619 -0.1011
27658W        W34258  14.341   3.799  29.780  0.0852  0.0116  0.1034
27659W        W34259  22.102   4.152  27.407  0.1444 -0.0063  0.0145
27660W        W34260  10.213   3.714   1.476  0.1742  0.1028 -0.1390
27661W        W34261   6.483   2.222  25.219 -0.1654  0.2028  0.0360
27662W        W34262   3.204   2.635  12.799 -0.1125 -0.0233 -0.1570
27663W        W34263  24.993   0.498   8.474  0.3397 -0.0783  0.0574
27664W        W34264   5.805   2.952  25.114  0.0505  0.2756 -0.3222
27665W        W34265  18.864   1.278   3.750  0.1182  0.3977 -0.3975
27666W        W34266   6.932   7.232  24.380  0.0101 -0.0331  0.0309
27667W        W34267  18.666   4.440  28.116 -0.2079 -0.0131  0.3296
27668W        W34268  19.892   5.392  16.293 -0.3266  0.2698 -0.0823
27669W        W34269  16.496   1.908  24.346  0.0264  0.1810 -0.1195
27670W        W34270  17.045   6.519  25.661 -0.0124 -0.0443  0.2231
27671W        W34271  12.300   0.472  27.080  0.1798  0.2320 -0.1258
27672W        W34272  18.949   0.994  30.490  0.0376 -0.1109  0.0094
27673W        W34273  19.102   2.157  31.334 -0.0574 -0.3283  0.0169
27674W        W34274  21.377   2.903  27.199  0.0530 -0.0987 -0.2178
27675W        W34275  18.473   7.223  20.040  0.1412 -0.0368 -0.3162
27676W        W34276  10.922   6.612  23.650 -0.1864 -0.0682  0.0662
27677W        W34277  20.507   5.083  24.017 -0.2625  0.2089  0.1044
27678W        W34278  10.861   7.540   0.110 -0.1514  0.0849 -0.1353
27679W        W34279  12.324   3.064  22.795  0.2301  0.0745  0.2914
27680W        W34280   0.122   7.103   0.815 -0.2243 -0.0817 -0.1952
27681W        W34281  14.656   3.506  25.843 -0.4808 -0.2019  0.1176
27682W        W34282  12.725   1.355  30.916 -0.1263 -0.2356  0.1089
27683W        W34283   8.968   2.432   9.889 -0.3768 -0.2593 -0.0604
27684W        W34284  22.958   6.396  25.236  0.2757 -0.2351 -0.1281
27685W        W34285   9.832   1.761  28.018 -0.2624 -0.0978  0.1036
27686W        W34286  11.696   1.887  14.534 -0.0655  0.1039 -0.0632
27687W        W34287   4.049   4.364  10.584  0.0780  0.0573  0.0322
27688W        W34288   8.505   4.176  26.917 -0.2148  0.1265 -0.0486
27689W        W34289   0.637   3.807  31.249  0.2160  0.0401  0.0519
27690W        W34290  13.323   1.426  10.818  0.2804  0.0332  0.1166
27691W        W34291  14.815   6.136  26.746 -0.1227  0.0379 -0.0528
27692W        W34292  14.702   5.935   1.982  0.1697  0.4211 -0.1881
27693W        W34293   1.211   7.378  27.262  0.3029  0.0436 -0.1288
27694W        W34294  24.233   4.181  20.774  0.1630 -0.1174  0.0132
27695W        W34295  23.417   6.609   9.233  0.0453  0.0966  0.0145
27696W        W34296   2.651   3.527  32.005 -0.1771  0.1187  0.1146
27697W        W34297   0.190   0.085  11.787 -0.1587  0.0474 -0.0252
27698W        W34298  24.125   5.315  24.474  0.0494 -0.0135 -0.1373
27699W        W34299  18.455   1.828  19.164 -0.0806 -0.0904  0.0259
27700W        W34300  20.620   5.345   2.926  0.0787  0.0890  0.3814
27701W        W34301   9.391   0.527  26.153  0.3236  0.2025  0.1662
27702W        W34302   1.632   5.745   1.733 -0.0126  0.1050 -0.1505
27703W        W34303   9.260   5.212   3.215  0.1363 -0.0728 -0.0632
27704W        W34304  24.140   6.724  23.006  0.4478  0.1809  0.2215
27705W        W34305   7.006   5.982   9.068 -0.1194 -0.2565 -0.0172
27706W        W34306   6.643   6.748  23.164 -0.0028  0.1621  0.0959
27707W        W34307  12.667   0.313  23.146  0.0657 -0.1599 -0.0952
27708W        W34308   2.167   2.221  20.443 -0.1570 -0.3134  0.2126
27709W        W34309   3.463   6.086  31.286  0.0266  0.2590  0.1436
27710W        W34310   3.217   4.364   9.872  0.3530  0.0248 -0.0966
27711W        W34311   2.211   6.108   0.933  0.2225 -0.0985  0.2249
27712W        W34312  20.595   5.305  29.144 -0.0699  0.1548 -0.0385
27713W        W34313  24.305   0.739   9.173 -0.0881  0.2180  0.0078
27714W        W34314   9.476   6.777  18.295 -0.1931  0.0881  0.0148
27715W        W34315  17.183   1.254  30.601  0.0609 -0.2112 -0.0585
27716W        W34316   4.161   4.102  30.080 -0.5112 -0.1221  0.0932
27717W        W34317  14.171   6.277   0.661  0.1364  0.0043  0.0415
27718W        W34318  24.643   2.621   4.887  0.1271  0.1097 -0.0677
27719W        W34319  18.549   3.313   8.256  0.0276 -0.1997  0.0607
27720W        W34320   3.301   1.536   7.257  0.1153  0.2959  0.1429
27721W        W34321   9.869   0.290   7.041 -0.0565  0.1051  0.2458
27722W        W34322   0.369   0.798   1.169 -0.1196 -0.0302  0.1677
27723W        W34323  11.398   1.884   0.514  0.1240  0.1151  0.1366
27724W        W34324  13.813   5.901   5.108  0.0273 -0.0676  0.3017
27725W        W34325   5.593   3.545  23.693 -0.2770 -0.0622  0.1332
27726W        W34326  16.208   7.825  22.056  0.3179  0.0098 -0.2318
27727W        W34327   3.907   3.493  10.532  0.1744  0.2168 -0.1549
27728W        W34328  10.870   1.623  11.474 -0.1157 -0.0049  0.1012
27729W        W34329   5.600   6.472   8.818  0.0854 -0.1883  0.0703
27730W        W34330   6.011   5.829   8.156  0.0812  0.1480  0.0203
27731W        W34331   8.550   0.518  23.117  0.0073 -0.2489  0.0621
27732W        W34332   5.163   4.454   2.936 -0.0047 -0.0985 -0.0540
27733W        W34333  24.306   0.261  20.440  0.4969  0.2267  0.0479
27734W        W34334  15.574   5.706  23.975 -0.1668  0.1694  0.2756
27735W        W34335  18.043   4.649  32.545  0.0671 -0.1746  0.0900
27736W        W34336   6.750   1.264   7.348  0.0732  0.2849 -0.0799
27737W        W34337  10.076   7.009  29.623  0.2400 -0.0511 -0.1756
27738W        W34338  10.389   2.999  10.228  0.1841 -0.1488  0.2273
27739W        W34339  19.537   6.741  21.914  0.4131  0.5166  0.3690
27740W        W34340  13.460   1.020   1.885  0.0769  0.2578  0.1652
27741W        W34341   2.937   3.650   5.620  0.3260  0.3221  0.2736
27742W        W34342  11.342   1.895   1.006  0.1563  0.2339 -0.2643
27743W        W34343  11.872   7.574  29.480  0.0816  0.3478  0.1747
27744W        W34344  11.818   5.391  24.948 -0.0795  0.2573  0.1557
27745W        W34345  16.195   0.288  25.507 -0.0465  0.1782 -0.2322
27746W        W34346  21.405   0.520   1.675  0.0331  0.1053 -0.0377
27747W        W34347  17.822   2.555  19.607 -0.0119 -0.0447  0.0175
27748W        W34348  11.075   3.602  22.802 -0.1983 -0.2628 -0.0465
27749W        W34349  17.978   3.696  17.293 -0.0177 -0.2479 -0.3442
27750W        W34350  13.957   0.296  28.293 -0.3402  0.3923  0.1633
27751W        W34351  22.133   2.358  18.006 -0.0647  0.0430 -0.0477
27752W        W34352   8.788   6.729   5.902 -0.0965 -0.1846 -0.2598
27753W        W34353   5.202   1.779   6.554 -0.0112 -0.3008 -0.0580
27754W        W34354  15.655   2.506  25.168  0.0331 -0.1359 -0.2802
27755W        W34355   5.955   5.279  22.332 -0.0400 -0.2040 -0.1404
27756W        W34356   5.689   4.010  13.369 -0.1835  0.2508  0.0856
27757W        W34357  11.378   3.895  15.381 -0.1885  0.0279 -0.1203
27758W        W34358  14.290   4.081  12.139  0.0655 -0.1127  0.1908
27759W        W34359   7.623   4.529  17.675 -0.2081  0.1096 -0.2186
27760W        W34360  14.941   7.638   6.826  0.0074  0.0236  0.1173
27761W        W34361  17.235   0.029  26.056 -0.0503  0.0710 -0.1990
27762W        W34362  23.096   5.355  30.194  0.0607 -0.0132 -0.0508
27763W        W34363  22.730   5.011  25.469 -0.1179  0.0660 -0.0657
27764W        W34364  11.854   2.550  14.170 -0.0387 -0.3102  0.1734
27765W        W34365   9.351   3.534  26.308 -0.0969 -0.0643 -0.2116
27766W        W34366   6.277   7.225   1.915 -0.0833 -0.0949  0.1158
27767W        W34367   0.041   5.055   5.020 -0.1426 -0.0625 -0.0393
27768W        W34368   1.774   5.094  30.203 -0.3955  0.2358 -0.0353
27769W        W34369  14.724   2.822  10.483  0.3676  0.1242 -0.1798
27770W        W34370  15.127   4.389  22.865  0.0058 -0.1366 -0.1406
27771W        W34371  13.379   1.416  27.278  0.3417  0.2284  0.0426
27772W        W34372  12.713   6.609  22.452  0.0550  0.1014 -0.2191
27773W        W34373  11.607   5.075   0.745  0.0583 -0.0110 -0.2198
27774W        W34374  11.894   7.512   9.085  0.0113  0.0066 -0.0097
27775W        W34375  24.856   3.584  23.425  0.1362  0.0444  0.0780
27776W        W34376   9.015   6.724  19.375 -0.1198  0.0637 -0.1352
27777W        W34377  21.569   5.790  30.644 -0.0756 -0.0604 -0.0065
27778W        W34378  19.681   5.869  17.311 -0.2565 -0.0468  0.2535
27779W        W34379  24.606   3.181   7.692 -0.1195 -0.1949 -0.4963
27780W        W34380  22.254   6.593  21.053  0.0571 -0.0250  0.0129
27781W        W34381   9.308   2.762   1.703  0.0456 -0.1155  0.1553
27782W        W34382  17.048   5.569  17.359  0.1602  0.1679 -0.0957
27783W        W34383   4.177   5.720  30.271 -0.1635 -0.2206 -0.0174
27784W        W34384   5.551   0.425  14.662 -0.0789  0.3885 -0.0390
27785W        W34385  12.711   1.267  22.990  0.2646  0.2485 -0.1699
27786W        W34386   4.863   6.510   6.533  0.1107  0.0237 -0.1970
27787W        W34387  16.108   5.782  28.669  0.0396  0.0796  0.2125
27788W        W34388  16.697   2.539  29.873  0.1057 -0.2114 -0.0598
27789W        W34389   2.464   2.927  22.647  0.0943  0.0368 -0.1099
27790W        W34390   5.260   5.044  22.597 -0.2003  0.2156  0.0525
27791W        W34391   3.488   1.691  29.375  0.1180  0.0204  0.2505
27792W        W34392   0.938   6.415   8.813  0.0976 -0.1885  0.0314
27793W        W34393  10.611   7.394  10.855 -0.0154  0.1187  0.4153
27794W        W34394   8.653   5.252  16.370 -0.0207  0.1197 -0.0951
27795W        W34395  12.651   1.155   7.395  0.0733 -0.0355 -0.0384
27796W        W34396  22.167   4.426  19.640  0.1230 -0.1029  0.0583
27797W        W34397   4.099   5.105   1.603 -0.1163  0.2235  0.1021
27798W        W34398  23.192   6.312   4.536 -0.0995 -0.0423  0.1404
27799W        W34399   6.656   1.023  27.874 -0.2521 -0.1298 -0.0521
27800W        W34400   3.981   1.410  31.726 -0.4081  0.1071 -0.3694
27801W        W34401  12.354   0.597  31.404  0.3240  0.0601  0.2279
27802W        W34402   3.649   0.250   0.400 -0.1432  0.0149  0.0801
27803W        W34403  21.521   2.068  26.172 -0.1106 -0.0983 -0.1590
27804W        W34404   0.693   7.347   0.071 -0.2081 -0.1517 -0.0233
27805W        W34405   2.139   1.755  21.845 -0.1308 -0.3692  0.2721
27806W        W34406  22.076   5.358  29.298  0.0066  0.0860 -0.2698
27807W        W34407   7.086   3.531   5.002 -0.1489 -0.0404 -0.0017
27808W        W34408  21.234   1.234  31.789 -0.1614 -0.3994 -0.0136
27809W        W34409  15.717   7.077   2.043  0.1412 -0.2652  0.2896
27810W        W34410  12.197   0.588  28.925 -0.2127  0.1646  0.1620
27811W        W34411   0.733   7.264  26.279  0.1892 -0.2528 -0.3041
27812W        W34412  23.232   6.046   7.966 -0.0868 -0.1710  0.3208
27813W        W34413   7.175   0.331  24.023 -0.3036 -0.0762  0.0447
27814W        W34414  18.156   2.648   9.894  0.0086 -0.1920 -0.3697
27815W        W34415  20.948   4.415  28.890 -0.0624 -0.0005 -0.0376
27816W        W34416   7.847   7.736  25.796 -0.1150 -0.0317 -0.3351
27817W        W34417   6.886   2.797   8.201  0.3130 -0.1052 -0.2943
27818W        W34418  23.502   0.276   4.096  0.1787 -0.0910 -0.1411
27819W        W34419  17.564   6.216  24.283  0.2397 -0.1530 -0.0383
27820W        W34420   2.864   2.371   0.704 -0.2790 -0.1210 -0.2115
27821W        W34421  10.454   3.394   2.410 -0.2446 -0.2313 -0.1417
27822W        W34422  24.129   2.154  20.639 -0.0801 -0.1046  0.0211
27823W        W34423   7.629   6.871  12.987  0.0572  0.2839  0.1891
27824W        W34424  11.438   0.531  11.544  0.0740  0.1967 -0.0578
27825W        W34425   7.712   6.981  28.406  0.1382 -0.0215  0.2439
27826W        W34426   7.701   5.955  29.248 -0.3329 -0.0561  0.1703
27827W        W34427   9.518   4.643  11.075 -0.0441 -0.1200 -0.0587
27828W        W34428  23.761   3.939  18.991  0.1643 -0.2728  0.0655
27829W        W34429  10.545   7.303  12.690  0.0997 -0.0290 -0.1331
27830W        W34430  21.090   6.028  19.825 -0.1193  0.1609 -0.1617
27831W        W34431  23.642   3.418  15.777  0.1771 -0.1111  0.0863
27832W        W34432  13.306   4.910  23.696 -0.2302  0.1472 -0.1267
27833W        W34433   8.970   7.258  17.520  0.1411  0.0699 -0.1092
27834W        W34434   1.587   4.676  31.442  0.1021  0.2876  0.2527
27835W        W34435  21.280   4.292   7.774  0.2321 -0.1272 -0.1593
27836W        W34436  18.804   5.636  19.663 -0.2317 -0.0576 -0.2136
27837W        W34437  11.561   6.048  25.459 -0.0428 -0.1262  0.1012
27838W        W34438  15.163   2.426  23.128 -0.1312 -0.2500 -0.1944
27839W        W34439  18.617   7.083  28.920  0.0581  0.1537  0.0471
27840W        W34440  10.311   5.113  30.577  0.2306 -0.2033  0.0272
27841W        W34441  12.503   0.233   5.938  0.0623  0.3515  0.0491
27842W        W34442  12.795   3.700   7.146 -0.2575  0.3042 -0.0234
27843W        W34443   8.365   6.545   6.809  0.1834 -0.0252  0.1554
27844W        W34444   8.673   3.892  25.959 -0.0288 -0.2333 -0.0267
27845W        W34445  22.716   0.588  18.934 -0.0783  0.0407 -0.2782
27846W        W34446   8.559   0.528  16.148  0.1303  0.1718  0.1442
27847W        W34447  19.999   2.553  21.384  0.0084  0.0440 -0.0861
27848W        W34448  12.773   7.788   9.873 -0.3191  0.0204  0.3141
27849W        W34449  22.615   1.715  16.386  0.2299  0.0202  0.3011
27850W        W34450  11.505   3.524   7.112  0.1600  0.1839 -0.1116
27851W        W34451  14.324   1.907  12.625 -0.0517  0.1288  0.0168
27852W        W34452  21.694   0.332  28.625  0.0236  0.2386  0.0017
27853W        W34453   4.478   7.622   7.643 -0.1426 -0.1002 -0.2725
27854W        W34454   6.822   3.457  16.143  0.2064  0.1338  0.0303
27855W        W34455  16.220   7.390  10.933  0.0955  0.0475 -0.0715
27856W        W34456  14.788   4.495   0.021 -0.0517 -0.1353  0.2885
27857W        W34457  18.297   0.007   9.554 -0.0900  0.0316  0.0389
27858W        W34458  11.956   3.698  15.146 -0.0681  0.2011  0.0479
27859W        W34459  22.245   3.076  20.096  0.1059  0.0217 -0.4028
27860W        W34460  18.258   3.846   4.342  0.0945  0.1739 -0.0184
27861W        W34461   2.651   5.582  22.653  0.0262 -0.2181 -0.0012
27862W        W34462  14.771   7.733  10.579 -0.0180  0.2633  0.0481
27863W        W34463  24.102   0.908  28.930  0.3363 -0.1179 -0.2421
27864W        W34464  17.545   0.468  20.567 -0.0046  0.1539 -0.1528
27865W        W34465  16.114   6.945   9.239 -0.4417  0.0034 -0.1423
27866W        W34466  16.951   3.255  30.227 -0.0225 -0.0584  0.1355
27867W        W34467  17.699   0.677   4.044  0.2046 -0.1826 -0.1427
27868W        W34468  10.618   4.623  29.849  0.2073  0.1699  0.1721
27869W        W34469  14.605   5.543   3.860 -0.2220 -0.1875 -0.1100
27870W        W34470  24.730   6.637   5.783 -0.2217  0.1024 -0.0351
27871W        W34471   1.100   4.545  30.174 -0.2492  0.0858  0.0260
27872W        W34472   9.771   4.896  29.963 -0.1952  0.0163  0.1853
27873W        W34473   1.375   1.753   6.722 -0.0888  0.3582  0.1451
27874W        W34474   7.697   7.803  31.389 -0.3161 -0.1572 -0.0333
27875W        W34475   4.257   3.573  31.270  0.0011 -0.0817 -0.1278
27876W        W34476  13.298   1.322   5.369 -0.0288 -0.1242  0.2588
27877W        W34477  15.609   7.581  20.837  0.0711  0.1401  0.0298
27878W        W34478  18.849   0.418  21.672 -0.2428 -0.1298 -0.0728
27879W        W34479  15.222   1.898  20.275  0.4463 -0.2209 -0.2936
27880W        W34480   5.806   6.729  31.564  0.1075  0.0983  0.0120
27881W        W34481  12.440   3.013   2.386 -0.0126  0.0540 -0.0514
27882W        W34482  18.925   0.888  22.172  0.0811 -0.0127  0.0065
27883W        W34483  19.427   7.804  25.221  0.0093 -0.0105 -0.0351
27884W        W34484  15.477   6.442  27.249  0.0619  0.1639  0.1283
27885W        W34485   5.436   4.689  11.975  0.0311  0.0552 -0.0267
27886W        W34486  17.396   4.323   4.011 -0.0830  0.2002  0.1439
27887W        W34487  23.833   2.325   6.938  0.0114 -0.0876  0.0198
27888W        W34488  15.808   6.878   8.122 -0.1266  0.1228  0.2398
27889W        W34489  16.548   3.776  20.372  0.1909 -0.1669 -0.0358
27890W        W34490  10.998   7.584   5.534  0.1972 -0.1534  0.1119
27891W        W34491   3.704   5.371   6.298  0.2025  0.1251 -0.0466
27892W        W34492   9.016   7.134  23.749 -0.1105 -0.1823  0.0085
27893W        W34493  10.348   1.648  24.003  0.0523 -0.1360  0.0813
27894W        W34494  20.023   0.886  24.436 -0.0888 -0.0081  0.0399
27895W        W34495   0.754   2.213   9.898  0.0572  0.2350  0.2883
27896W        W34496   1.998   2.703   7.539  0.1758  0.1890 -0.0689
27897W        W34497  19.472   3.484  30.126  0.0995  0.1197  0.5658
27898W        W34498  16.414   6.119  19.119  0.2646 -0.2589  0.1312
27899W        W34499   9.947   2.473   2.261  0.1102  0.2275  0.1504
27900W        W34500  18.018   6.991  28.053  0.0400  0.1413 -0.0694
27901W        W34501  15.511   4.294  10.025  0.1578  0.1559  0.0637
27902W        W34502   6.293   6.647   4.344  0.7228 -0.0563  0.1230
27903W        W34503   8.951   7.004   9.726 -0.0043  0.0237  0.0980
27904W        W34504   9.916   1.277  13.824  0.0481  0.0032  0.1997
27905W        W34505  21.926   5.226   4.185 -0.1011  0.1589 -0.0369
27906W        W34506   1.673   6.972  25.489 -0.0245 -0.0730  0.0887
27907W        W34507  15.244   4.326   5.700 -0.1724 -0.1470 -0.0085
27908W        W34508  12.622   5.470  32.646 -0.1520 -0.1685 -0.0911
27909W        W34509  20.049   3.730  29.137 -0.2096  0.3629 -0.3550
27910W        W34510   1.503   4.108  10.962  0.0423  0.2731 -0.5880
27911W        W34511  12.819   4.198   4.782 -0.2224 -0.0697 -0.1656
27912W        W34512  12.275   5.751  10.588 -0.2316  0.1022  0.0888
27913W        W34513  15.202   2.125   4.129 -0.4122  0.0422 -0.0616
27914W        W34514   3.333   2.182  12.948  0.2238  0.0489  0.0801
27915W        W34515  12.256   5.415   7.957 -0.1058 -0.1514  0.6018
27916W        W34516  20.783   4.829  20.761 -0.1614  0.0029  0.0583
27917W        W34517   0.443   2.036  30.325 -0.1425 -0.0640 -0.0615
27918W        W34518   2.932   0.190   3.176 -0.1777  0.1369  0.1526
27919W        W34519   7.517   3.056   7.268 -0.1847  0.0271  0.1101
27920W        W34520  20.588   0.776  21.176  0.0084  0.1614  0.0459
27921W        W34521  22.640   2.328   0.127 -0.1234  0.0987 -0.1925
27922W        W34522  13.557   1.641  24.325 -0.2896 -0.1194 -0.2847
27923W        W34523  24.872   3.224  26.788 -0.0815  0.1224 -0.0814
27924W        W34524  11.179   0.985  16.380  0.2023 -0.0495 -0.0925
27925W        W34525  24.847   1.271  28.453 -0.3174 -0.2500  0.1745
27926W        W34526   4.206   4.182   5.111 -0.0278 -0.0272 -0.1872
27927W        W34527   6.263   5.086  23.572 -0.0185 -0.1243 -0.1613
27928W        W34528  11.670   2.204   6.800  0.0014 -0.2370 -0.1332
27929W        W34529  12.863   2.623   9.163 -0.1316 -0.0504  0.0931
27930W        W34530  22.819   4.445  26.986 -0.0015 -0.2874 -0.0960
27931W        W34531   3.254   4.963  25.190 -0.0879  0.0481  0.0214
27932W        W34532  23.016   0.879  30.239  0.0347  0.1413 -0.0277
27933W        W34533  14.699   1.239  20.285 -0.1868  0.1698 -0.1717
27934W        W34534  19.829   2.140  15.835 -0.0522  0.1264  0.3016
27935W        W34535  24.568   0.350   3.740 -0.1523 -0.2059 -0.3698
27936W        W34536  22.907   4.150  21.376 -0.0640  0.1389 -0.1430
27937W        W34537  24.101   3.992   3.369 -0.2715  0.4158  0.0002
27938W        W34538  22.193   3.212  26.566 -0.2257 -0.1195  0.3756
27939W        W34539  11.851   3.614   6.221 -0.0082 -0.2227 -0.1486
27940W        W34540   8.492   3.305   4.079 -0.0379 -0.0359 -0.1804
27941W        W34541  21.497   3.549  28.888  0.1102  0.1346 -0.3638
27942W        W34542  17.623   2.523  17.326  0.0716  0.0505 -0.0226
27943W        W34543   9.399   0.305  29.195  0.1399 -0.2588 -0.0140
27944W        W34544  12.468   5.630  27.962 -0.2327 -0.0642  0.2477
27945W        W34545  17.002   1.004  18.828  0.1444 -0.1618  0.1122
27946W        W34546  23.378   7.567  17.260 -0.1145 -0.2858  0.0611
27947W        W34547   8.996   4.890  30.225  0.0960 -0.0125  0.2355
27948W        W34548  20.512   2.603  27.280 -0.0418 -0.0226  0.2021
27949W        W34549   3.752   1.323  22.152 -0.2001 -0.0323 -0.4592
27950W        W34550   4.203   7.648  21.886 -0.1243 -0.0978  0.1503
27951W        W34551   5.156   5.371   0.606 -0.2893  0.1487 -0.1278
27952W        W34552   1.526   3.597  11.140  0.0074 -0.0530 -0.1627
27953W        W34553   8.472   6.118  12.769  0.0780  0.3111 -0.0844
27954W        W34554  13.000   4.283   8.334 -0.0141 -0.3344  0.1269
27955W        W34555  18.606   6.860  30.475  0.1811 -0.2848 -0.0508
27956W        W34556  19.856   5.001  17.541  0.0825  0.0354  0.1934
27957W        W34557   5.922   6.219   3.164 -0.0654  0.0109 -0.0965
27958W        W34558  14.206   4.479  13.367 -0.0081  0.0160 -0.0833
27959W        W34559   9.104   1.170   3.084  0.1315  0.2315 -0.1901
27960W        W34560   7.155   2.902   0.811  0.2585  0.4038  0.0599
27961W        W34561   3.420   7.036  25.802  0.1970 -0.0178 -0.1406
27962W        W34562   5.550   3.561  29.811 -0.0837 -0.2203 -0.1189
27963W        W34563  18.114   4.354  22.829  0.3257  0.3056  0.3359
27964W        W34564  19.467   6.899  24.462 -0.3002 -0.3898 -0.1496
27965W        W34565  10.479   6.924  12.260 -0.0690  0.0210 -0.0874
27966W        W34566   4.163   6.721  14.687 -0.0202 -0.1222  0.0248
27967W        W34567  22.318   0.584   7.305 -0.4754  0.3039  0.5926
27968W        W34568   0.749   3.676   2.194  0.0948  0.0987 -0.0799
27969W        W34569  22.051   1.975  22.303  0.0637  0.0624 -0.2663
27970W        W34570  18.632   5.098  30.548  0.5232 -0.2242 -0.1886
27971W        W34571  21.419   2.482  17.277  0.0095  0.0192  0.0823
27972W        W34572  11.013   7.516  12.145 -0.4847 -0.0241 -0.0314
27973W        W34573  13.811   4.767   6.537  0.1990  0.0422 -0.1816
27974W        W34574   1.217   1.771  26.617  0.1533  0.2380 -0.1015
27975W        W34575   8.691   3.806   9.338  0.0727 -0.0764 -0.0109
27976W        W34576   3.334   4.379  27.260  0.0274  0.1299 -0.1052
27977W        W34577   3.912   5.104  21.464 -0.0810  0.2984  0.1564
27978W        W34578  19.800   0.463   2.555  0.0836 -0.0632 -0.3107
27979W        W34579   9.560   0.549   1.855 -0.0335  0.0689 -0.0716
27980W        W34580  22.320   1.016  24.465  0.0160 -0.0598  0.0911
27981W        W34581  21.256   5.610  18.267  0.1204 -0.2286  0.0972
27982W        W34582  12.292   5.191   3.473 -0.0610 -0.0407 -0.2087
27983W        W34583   9.062   1.065  30.301 -0.1137  0.0037  0.2934
27984W        W34584  16.536   1.023  19.725 -0.1535 -0.2090  0.0014
27985W        W34585  24.816   5.237  32.045 -0.0415 -0.0760  0.0119
27986W        W34586  22.852   3.106  16.712  0.2987 -0.0729  0.1138
27987W        W34587  10.763   0.640  23.813 -0.0689 -0.0274  0.3106
27988W        W34588  19.126   0.203  26.562  0.3814 -0.1973  0.0223
27989W        W34589   2.113   2.325   1.157 -0.0656 -0.2854 -0.3846
27990W        W34590   4.809   1.860  14.313 -0.1311 -0.0811  0.1119
27991W        W34591  11.291   7.282  32.708  0.1342 -0.3992  0.0172
27992W        W34592  15.560   5.695   7.155  0.4163  0.1722 -0.0817
27993W        W34593  19.307   1.865  15.830  0.1355  0.1809 -0.0866
27994W        W34594  21.063   4.883   3.267  0.0233  0.1100 -0.2461
27995W        W34595  18.196   4.942  26.427 -0.0088 -0.3441 -0.0376
27996W        W34596  22.326   7.212  16.226  0.0951  0.0558 -0.0377
27997W        W34597   8.745   0.719  26.686  0.1686  0.1384  0.0929
27998W        W34598  19.174   4.207  29.447 -0.4384 -0.1053 -0.0359
27999W        W34599  11.318   0.236  10.950 -0.2866 -0.0082 -0.1277
28000W        W34600   5.354   3.966  25.655 -0.2399 -0.0841  0.0666
28001W        W34601   4.837   6.375   2.691 -0.0361 -0.0397  0.0500
28002W        W34602  13.274   7.643   3.442 -0.4275  0.0847 -0.0724
28003W        W34603  23.714   2.858  22.127  0.0204  0.1060 -0.1098
28004W        W34604  16.119   5.028   8.702  0.1454  0.2240 -0.2057
28005W        W34605  18.012   0.401  10.174 -0.2226 -0.2058 -0.2274
28006W        W34606  16.511   0.652  20.490 -0.0479  0.0804 -0.0287
28007W        W34607  20.788   7.206   5.348  0.2633  0.1292 -0.1192
28008W        W34608  21.808   7.516   9.828  0.1498 -0.0947 -0.0229
28009W        W34609   1.818   5.968   2.646  0.0412  0.0441  0.0676
28010W        W34610  14.864   1.765   6.332 -0.1475  0.2856 -0.0272
28011W        W34611  17.798   0.660  32.542  0.0547 -0.1431  0.0825
28012W        W34612  24.272   2.958   1.051  0.1439 -0.0755  0.2999
28013W        W34613   6.831   0.594  30.245 -0.0288  0.0593  0.1178
28014W        W34614   3.290   7.198  26.700 -0.0500 -0.0931 -0.1975
28015W        W34615   4.153   7.750   6.894 -0.0511  0.0725  0.0801
28016W        W34616  19.780   1.920   1.672  0.3780  0.3760 -0.0596
28017W        W34617   6.585   0.184  15.707 -0.0916  0.0759 -0.0897
28018W        W34618   0.823   2.628  30.808  0.0605  0.1507 -0.1313
28019W        W34619  19.299   2.793   3.867 -0.1915  0.2209 -0.1487
28020W        W34620   6.688   2.867  21.473  0.2530 -0.1387  0.0374
28021W        W34621  16.709   4.820   8.694  0.1076 -0.3693 -0.3611
28022W        W34622  24.382   4.842  17.914 -0.3560  0.2614 -0.0253
28023W        W34623  12.180   0.617  25.581  0.1215  0.1055 -0.0763
28024W        W34624  20.437   2.665   9.172 -0.4889 -0.1829 -0.1533
28025W        W34625  13.192   0.094  10.024 -0.0973 -0.0826 -0.0159
28026W        W34626  18.421   6.563  30.856 -0.1857  0.0689  0.2639
28027W        W34627   6.232   4.063  14.224 -0.3264 -0.0879  0.0870
28028W        W34628  14.804   7.691  25.930  0.3440  0.0724 -0.0732
28029W        W34629   5.711   7.497   6.679  0.0196  0.1400  0.0912
28030W        W34630   1.153   5.384  27.290 -0.1368  0.1028  0.1466
28031W        W34631   2.130   2.306  24.229 -0.0901  0.2209 -0.0941
28032W        W34632  10.596   6.919  28.028  0.1209 -0.0458  0.1469
28033W        W34633   4.579   4.382   2.206  0.1654  0.2402 -0.0136
28034W        W34634  10.450   1.560  27.416  0.0752  0.2675 -0.0772
28035W        W34635  18.453   1.678  26.190  0.0500  0.0281 -0.0619
28036W        W34636   1.270   4.312  25.399  0.1090 -0.0084  0.3687
28037W        W34637   7.389   3.885   7.304  0.1076  0.1460 -0.2932
28038W        W34638  18.415   7.674  19.345 -0.0536 -0.0156  0.1983
28039W        W34639   6.802   2.313   4.790 -0.0104  0.1020 -0.2236
28040W        W34640  24.736   2.397  22.990 -0.1857 -0.0029 -0.1933
28041W        W34641  19.057   6.301  23.188 -0.3171  0.1816  0.0599
28042W        W34642   3.768   3.389  24.048 -0.0920  0.3326 -0.2143
28043W        W34643  20.991   4.411   8.160 -0.1043 -0.2084  0.1628
28044W        W34644   0.252   7.723  28.311 -0.2187  0.2782  0.1404
28045W        W34645   7.643   0.734  25.151  0.0366  0.3997 -0.0819
28046W        W34646  15.272   6.537   8.785  0.0756 -0.1262 -0.3534
28047W        W34647  12.708   5.852   9.670  0.3064 -0.3107  0.0766
28048W        W34648   7.077   6.902  15.626  0.2080  0.1050 -0.0723
28049W        W34649   9.598   2.725   8.261 -0.1233 -0.2199  0.1105
28050W        W34650  17.254   5.209  17.082 -0.0627 -0.1971  0.1090
28051W        W34651  19.792   4.789  21.396 -0.1195  0.1562  0.3336
28052W        W34652   0.446   1.622   7.511 -0.0358  0.1581 -0.0581
28053W        W34653  17.239   7.480  26.928 -0.2246  0.0847 -0.0450
28054W        W34654  22.536   3.679  15.374 -0.4313 -0.1870  0.1030
28055W        W34655   4.623   2.644  28.198 -0.0227  0.0856 -0.3431
28056W        W34656  13.795   0.498  21.618 -0.2080 -0.0760  0.1706
28057W        W34657  12.020   5.376   6.312  0.0039 -0.1162  0.0106
28058W        W34658  23.500   7.538  24.507 -0.0833 -0.1748 -0.1081
28059W        W34659  10.035   5.575  16.216 -0.2301 -0.4081 -0.3409
28060W        W34660  12.573   7.366  14.613 -0.2343  0.1299  0.2720
28061W        W34661   6.916   4.179   7.994  0.3884  0.0501 -0.0337
28062W        W34662  18.085   5.498  27.258 -0.0828  0.2805  0.2252
28063W        W34663   6.037   0.129  28.727  0.2557  0.2208 -0.0310
28064W        W34664  10.012   5.005   2.804 -0.1612 -0.0250 -0.2639
28065W        W34665  11.539   2.867  10.580  0.4761 -0.2610 -0.1648
28066W        W34666   2.485   1.541  12.098  0.0041  0.1556  0.1153
28067W        W34667   7.576   2.506  24.786 -0.0200 -0.2444 -0.0779
28068W        W34668  11.848   4.042   8.814 -0.2107 -0.0630  0.1460
28069W        W34669  21.998   1.731  21.853 -0.2700  0.1494  0.0184
28070W        W34670  21.274   7.504  18.173 -0.2445 -0.2232  0.1615
28071W        W34671   7.365   7.710  27.473  0.2119  0.0300  0.0795
28072W        W34672  20.740   4.549   3.047  0.1291 -0.0912  0.3098
28073W        W34673   3.722   1.811  31.008 -0.1823  0.1370 -0.1653
28074W        W34674   7.347   4.917  18.006 -0.0681  0.1306 -0.0403
28075W        W34675   4.127   3.028  12.669 -0.1852  0.1159  0.1447
28076W        W34676  22.505   7.337  27.653 -0.0425  0.0935  0.0379
28077W        W34677   8.800   2.520  12.336 -0.2534  0.1110 -0.0912
28078W        W34678  12.344   4.732   5.231 -0.0026 -0.1034 -0.0016
28079W        W34679  21.249   4.974  18.727 -0.1704  0.1438  0.0660
28080W        W34680  20.628   1.245  19.859  0.1688 -0.1388 -0.2110
28081W        W34681  12.061   5.059  28.573 -0.1058 -0.0255  0.3157
28082W        W34682  15.126   5.023  24.748  0.4686 -0.1099 -0.0741
28083W        W34683   7.930   6.161  13.753  0.1492 -0.3540 -0.2889
28084W        W34684   7.527   2.176   6.215 -0.1528 -0.0797 -0.0239
28085W        W34685  17.718   6.809   8.357 -0.1097 -0.1611 -0.0264
28086W        W34686  21.599   2.418  21.667  0.0642 -0.0029 -0.0494
28087W        W34687  11.626   6.613  12.702  0.3546 -0.1428  0.1174
28088W        W34688   9.485   3.271  26.733 -0.0406  0.2432 -0.2981
28089W        W34689   9.672   2.472  11.277 -0.2002  0.0537  0.2456
28090W        W34690  11.470   0.719  32.190 -0.0135 -0.1555  0.0462
28091W        W34691  23.938   4.260   3.873 -0.0778  0.0926  0.0308
28092W        W34692   9.879   7.289  26.889 -0.1920 -0.1275 -0.0020
28093W        W34693  15.226   4.927  27.930 -0.2401 -0.3684  0.1533
28094W        W34694   6.231   4.857  28.504 -0.2735  0.0046 -0.0009
28095W        W34695  10.206   1.437  29.155 -0.2268  0.1204  0.0218
28096W        W34696   6.880   1.488   8.977 -0.0331 -0.2382 -0.0254
28097W        W34697  12.846   4.165   9.585 -0.0023  0.0160  0.0466
28098W        W34698   9.756   0.507  23.798  0.1022 -0.0392 -0.0559
28099W        W34699   7.904   6.287  28.823  0.2188  0.0356  0.0599
28100W        W34700  14.602   1.273   7.203  0.1798  0.0373 -0.1691
28101W        W34701  12.570   1.167  26.680 -0.2743 -0.1532 -0.1766
28102W        W34702  22.809   4.462  22.209 -0.0202  0.0422  0.2184
28103W        W34703   5.359   6.063  31.535 -0.1397 -0.1212 -0.2708
28104W        W34704  21.660   2.875   3.881 -0.2122 -0.1321 -0.2805
28105W        W34705  12.423   3.108  16.225  0.0823  0.0977 -0.0887
28106W        W34706  12.094   1.903   9.986 -0.0642  0.1371  0.2667
28107W        W34707   5.379   0.982  13.272  0.1788  0.0740 -0.2138
28108W        W34708  10.896   6.791  25.302  0.1093  0.2026 -0.0768
28109W        W34709   0.898   5.762   2.920 -0.0335  0.1881 -0.2034
28110W        W34710  22.831   2.862  23.160  0.2543 -0.2337  0.0655
28111W        W34711  18.730   1.560  15.481  0.3141 -0.0794 -0.0191
28112W        W34712  22.492   0.084  27.717  0.1543 -0.2510  0.0415
28113W        W34713  12.626   1.346   6.546 -0.1093 -0.0321 -0.1609
28114W        W34714   6.382   3.975  10.269 -0.1519 -0.0651  0.0078
28115W        W34715  21.993   4.106  31.539  0.0466  0.2075 -0.1400
28116W        W34716  13.493   4.087  22.900  0.1219  0.1444  0.0584
28117W        W34717  20.097   1.369   3.369  0.0398 -0.0975 -0.0614
28118W        W34718   2.780   5.404   6.272 -0.0444  0.1613 -0.0596
28119W        W34719  20.817   5.551   0.106  0.0728 -0.0726 -0.3597
28120W        W34720  14.357   5.866   0.455 -0.1249  0.0120 -0.1261
28121W        W34721  18.242   6.096   7.566  0.1481 -0.0579  0.2388
28122W        W34722   7.228   6.576   1.366 -0.0755  0.0406  0.0010
28123W        W34723   9.910   3.612  17.027  0.1875  0.1052 -0.0511
28124W        W34724   7.576   1.431   1.475  0.0990 -0.0677 -0.0493
28125W        W34725   3.072   6.424  24.977  0.1253 -0.0379  0.4111
28126W        W34726  20.805   2.376   6.058  0.0321 -0.1615  0.0427
28127W        W34727  16.012   7.124  21.068  0.1880  0.3267 -0.2698
28128W        W34728  15.169   5.474   8.548  0.2363 -0.1202 -0.1833
28129W        W34729  13.568   0.749  21.938  0.1300 -0.1614  0.0161
28130W        W34730   5.060   2.782   4.925 -0.2043 -0.1532 -0.1918
28131W        W34731  24.896   7.518   9.619  0.0919 -0.0022  0.1165
28132W        W34732   4.864   0.959  23.531 -0.4249  0.3293  0.1058
28133W        W34733  21.709   1.965  21.434 -0.0881  0.1246  0.0127
28134W        W34734   2.825   6.499  25.445  0.1161 -0.1402 -0.0561
28135W        W34735   5.098   5.288  11.177  0.0299 -0.2288  0.4147
28136W        W34736   2.337   7.620   6.693 -0.1534  0.0035 -0.0268
28137W        W34737  15.842   2.343  28.611  0.1415 -0.4334  0.2695
28138W        W34738  24.319   4.150  16.076 -0.0343 -0.1756 -0.1717
28139W        W34739   0.973   3.750  24.666 -0.0690 -0.0749  0.2186
28140W        W34740  18.266   0.636  28.961 -0.1516  0.0020  0.1506
28141W        W34741   5.570   2.153  26.003  0.1083  0.0834  0.0288
28142W        W34742   3.690   6.968  29.823  0.1046 -0.2413 -0.1594
28143W        W34743  10.272   2.417  30.072  0.1674  0.1086  0.0808
28144W        W34744  11.118   1.297  15.073  0.0274 -0.2242 -0.3310
28145W        W34745   8.102   7.300  15.006 -0.1785  0.0550  0.0682
28146W        W34746   8.555   7.121   8.204 -0.0183  0.0283  0.3521
28147W        W34747  23.525   4.540   8.316  0.0450 -0.2014  0.3169
28148W        W34748  20.981   1.863  14.478 -0.1967 -0.3234  0.0072
28149W        W34749   8.553   5.711   0.346  0.0809  0.0741  0.2339
28150W        W34750   4.826   1.445  11.139 -0.0670 -0.2139 -0.2104
28151W        W34751  20.771   5.502  15.339 -0.1896 -0.0998  0.0925
28152W        W34752  24.369   0.869  10.500  0.1204 -0.0236  0.0550
28153W        W34753  19.057   3.405  19.018 -0.0482 -0.1166 -0.0328
28154W        W34754  22.379   0.665  14.951  0.0542  0.2295  0.0454
28155W        W34755  14.484   3.606  31.623 -0.1159 -0.4196 -0.2289
28156W        W34756   9.940   7.265  26.140 -0.0816 -0.0789  0.0722
28157W        W34757  19.562   6.095  10.146 -0.0293 -0.0496  0.0483
28158W        W34758   5.579   1.591  25.270  0.0542  0.1196 -0.0373
28159W        W34759  17.526   4.267   0.210  0.0663 -0.1985  0.2340
28160W        W34760  21.105   6.043  32.137 -0.0292 -0.1463 -0.0982
28161W        W34761   8.459   2.275  10.122 -0.1819  0.0864  0.2695
28162W        W34762  12.214   5.088   0.043  0.2033  0.1727  0.2132
28163W        W34763   1.889   0.310   5.909  0.3115 -0.1287  0.0757
28164W        W34764  16.602   5.245  21.352  0.0213  0.1298 -0.0247
28165W        W34765   5.047   7.693   1.553  0.3706 -0.3119  0.2754
28166W        W34766   5.175   0.775  28.233 -0.2487  0.0386 -0.1817
28167W        W34767   6.550   6.082   9.851 -0.1660 -0.4212  0.0097
28168W        W34768  11.727   5.987   4.085  0.2712 -0.0080 -0.2624
28169W        W34769  15.566   4.764  10.763  0.0541 -0.1349 -0.2384
28170W        W34770  14.255   3.499   5.979  0.1761  0.1556  0.2052
28171W        W34771   6.167   5.785  13.050 -0.3939  0.2928  0.1940
28172W        W34772  21.892   4.205  32.588 -0.1534  0.2861  0.2765
28173W        W34773   7.427   7.320   2.363  0.0768 -0.1319  0.0092
28174W        W34774  21.410   1.426   8.131  0.0462 -0.1803  0.4392
28175W        W34775   8.635   4.990   7.998 -0.0624  0.0965  0.0467
28176W        W34776   6.633   5.759  31.848 -0.0354  0.0665  0.0606
28177W        W34777  21.275   7.080  26.633  0.2876  0.2250  0.1892
28178W        W34778  11.124   1.172  25.351 -0.1917 -0.1109  0.0898
28179W        W34779  21.246   0.277  25.117  0.0861 -0.1855 -0.1115
28180W        W34780  15.991   3.704  21.223  0.1233 -0.1806  0.3761
28181W        W34781  15.771   6.983  10.182  0.1222 -0.2865  0.1564
28182W        W34782   3.875   2.179  28.144 -0.1908 -0.1798 -0.0402
28183W        W34783  18.403   6.007  18.323  0.1155 -0.1793  0.0302
28184W        W34784   8.895   6.994  15.953 -0.2589  0.0003  0.3797
28185W        W34785  18.659   6.054  18.945 -0.1267 -0.3401 -0.3018
28186W        W34786  20.265   7.247   3.683  0.0669 -0.0175  0.0930
28187W        W34787   7.931   4.084  13.269  0.0040  0.2372  0.1807
28188W        W34788  15.337   2.751   0.418 -0.1093  0.3846  0.2003
28189W        W34789  13.114   0.410  12.192 -0.0910  0.1719  0.1107
28190W        W34790  17.375   6.732   0.100 -0.2603 -0.0270 -0.0900
28191W        W34791  16.367   0.091  30.762  0.1174 -0.1150  0.1582
28192W        W34792  10.003   5.713  28.960 -0.0149 -0.1387  0.0452
28193W        W34793   7.364   0.147  10.048  0.1047  0.0505  0.1907
28194W        W34794  16.647   7.676  24.119 -0.4626 -0.1145 -0.2898
28195W        W34795  11.491   2.362  14.513 -0.0922 -0.0892  0.0255
28196W        W34796  20.897   5.381   9.110  0.1897 -0.3821 -0.1047
28197W        W34797  14.100   2.068   7.266 -0.0380  0.0668 -0.0099
28198W        W34798  13.758   2.857  11.731 -0.1138 -0.1049 -0.0879
28199W        W34799  15.767   7.707  29.693  0.1095 -0.2429 -0.1642
28200W        W34800   2.703   1.438   6.036  0.0622 -0.0510  0.4677
28201W        W34801  21.964   6.445  30.572  0.0394  0.1265  0.1738
28202W        W34802  20.352   7.018  22.838 -0.0425 -0.2853  0.2183
28203W        W34803  23.486   0.713  10.257  0.1170 -0.0251 -0.1284
28204W        W34804  16.033   0.414  11.923  0.0650 -0.0642 -0.0136
28205W        W34805   2.558   3.463   8.226  0.0833 -0.4134  0.0238
28206W        W34806   4.022   5.971  11.955 -0.4847 -0.1671 -0.3651
28207W        W34807  17.028   3.827   4.710  0.1107 -0.0017  0.1545
28208W        W34808   4.845   1.569  13.491  0.1333  0.1907  0.0685
28209W        W34809   9.343   3.811  28.772 -0.3674  0.1024  0.1613
28210W        W34810  18.812   4.486   1.262 -0.2573 -0.1008 -0.0462
28211W        W34811  13.881   1.149   2.231 -0.0680  0.0519  0.1815
28212W        W34812  17.173   6.367  27.463 -0.2651  0.0654 -0.2322
28213W        W34813   3.338   7.596  31.217 -0.2204  0.1690  0.3428
28214W        W34814  22.702   2.364   8.420 -0.0049  0.0052  0.1252
28215W        W34815  11.002   6.732  29.977  0.2813  0.3425  0.2293
28216W        W34816  19.362   3.909  22.626 -0.0583 -0.1070  0.1554
28217W        W34817  17.475   1.167   0.601 -0.0474  0.3022 -0.0878
28218W        W34818  18.371   5.457  15.471 -0.2177  0.2127 -0.0634
28219W        W34819  15.055   3.061   3.831 -0.1762 -0.1167 -0.3147
28220W        W34820  20.542   2.215   3.259  0.1302  0.0167  0.0105
28221W        W34821   0.763   6.272   0.864 -0.2478 -0.0497  0.1018
28222W        W34822  18.038   0.814  16.034  0.3180 -0.0305  0.1137
28223W        W34823  10.493   2.038   0.644  0.2563  0.0129 -0.1163
28224W        W34824  10.051   2.670   5.213 -0.0483  0.0782  0.1969
28225W        W34825  14.231   1.623   6.978  0.1053  0.0473  0.2402
28226W        W34826  18.588   6.337   5.586 -0.2714 -0.1858 -0.1545
28227W        W34827  10.800   5.153   6.059  0.0009  0.2613  0.1249
28228W        W34828   6.691   2.409  16.427 -0.0042  0.2135  0.1075
28229W        W34829  11.081   1.247   0.583  0.1659 -0.1367  0.1640
28230W        W34830   8.428   5.297  32.043  0.2812  0.2171  0.0691
28231W        W34831   1.681   1.201  32.033  0.0382 -0.2452  0.0225
28232W        W34832  23.085   4.999  23.107 -0.2503  0.1197  0.0311
28233W        W34833  11.482   3.806  22.632 -0.0071  0.0359  0.3649
28234W        W34834  23.089   0.646  19.265  0.2500 -0.1250 -0.0088
28235W        W34835  18.526   4.168   9.183 -0.0295 -0.0836  0.4752
28236W        W34836  23.990   0.244   3.956 -0.1066  0.3247 -0.0207
28237W        W34837   0.302   2.001  19.658  0.0157  0.1384  0.3971
28238W        W34838  20.691   7.212  21.020 -0.1101 -0.2395  0.2740
28239W        W34839  23.679   7.432   3.016  0.1164  0.0636  0.1999
28240W        W34840  12.511   1.347  27.532  0.0479 -0.3149 -0.3267
28241W        W34841  14.838   3.068   5.629  0.0230 -0.0661 -0.1256
28242W        W34842   3.283   4.510   9.247  0.0953  0.2624 -0.2149
28243W        W34843  15.010   4.317   6.735  0.0075 -0.0525  0.2024
28244W        W34844   3.889   2.104  30.540 -0.1626 -0.2415  0.1717
28245W        W34845  23.095   3.641   0.085 -0.4049  0.1237  0.1102
28246W        W34846  24.693   3.981  21.016  0.0887 -0.1160  0.0399
28247W        W34847   5.529   7.568   3.506  0.1759 -0.1671  0.2880
28248W        W34848   5.295   7.823  27.542 -0.2877 -0.1994 -0.2351
28249W        W34849   6.000   1.348  23.547 -0.1831 -0.1582  0.0180
28250W        W34850   9.540   4.451   0.699  0.0772  0.0952 -0.1478
28251W        W34851  10.464   3.984   2.457  0.0506  0.0949 -0.1752
28252W        W34852  14.433   6.282   7.842  0.0939 -0.0671  0.0723
28253W        W34853   9.448   6.138  27.647  0.0286  0.0710  0.0586
28254W        W34854   9.642   4.520  29.114  0.1570 -0.1272  0.1726
28255W        W34855   5.332   2.554  31.052 -0.2328  0.3937 -0.0698
28256W        W34856  16.339   6.414  22.941  0.3485 -0.1097  0.1963
28257W        W34857  18.905   4.004  23.586  0.1463  0.0149 -0.0430
28258W        W34858   1.298   2.921  17.774 -0.1187 -0.0571 -0.3244
28259W        W34859  14.889   5.800  29.053 -0.1771 -0.0649 -0.0412
28260W        W34860  22.822   2.541  19.741 -0.0854  0.0941  0.0205
28261W        W34861  15.123   4.052   3.118  0.1487  0.1154  0.1960
28262W        W34862  20.101   2.781   5.639 -0.0600 -0.1051 -0.1396
28263W        W34863  22.288   7.722  29.790  0.2511  0.4339 -0.0126
28264W        W34864  17.430   0.273   9.457  0.1502 -0.1376  0.0113
28265W        W34865   4.294   7.015  22.720 -0.1084 -0.2151  0.2916
28266W        W34866  16.764   1.507  30.869  0.1878  0.0428  0.1349
28267W        W34867   8.225   2.549  26.281  0.1385 -0.2005  0.1207
28268W        W34868  24.488   1.122  28.031 -0.1211  0.2383 -0.0824
28269W        W34869  11.088   5.423  12.807  0.2081  0.1561  0.0072
28270W        W34870   8.347   3.451   0.346 -0.2760  0.2484  0.1435
28271W        W34871   3.911   3.993  31.343  0.2480  0.3590  0.2808
28272W        W34872   3.269   6.263   1.809 -0.0174 -0.1197 -0.2378
28273W        W34873  10.048   1.970   2.185  0.1172 -0.0575  0.1639
28274W        W34874   5.099   4.056   0.564 -0.0047 -0.0448 -0.2065
28275W        W34875  13.327   5.064  27.652 -0.1996  0.0550 -0.1893
28276W        W34876  24.608   5.843   4.907 -0.0270  0.3940 -0.2041
28277W        W34877  15.752   0.880  31.688 -0.1483 -0.1445 -0.1147
28278W        W34878   3.553   3.525  21.143 -0.0413 -0.1679 -0.0086
28279W        W34879   5.268   3.062   7.527 -0.0464  0.1200 -0.0240
28280W        W34880  19.617   2.433  28.592 -0.1622  0.2806 -0.0322
28281W        W34881  13.808   4.555  29.608 -0.4108 -0.3116 -0.1898
28282W        W34882  13.449   7.071  31.365 -0.0398 -0.0368 -0.0347
28283W        W34883  14.131   0.112  29.129  0.2269 -0.0887  0.0942
28284W        W34884  10.771   0.404   7.025 -0.0005  0.3140 -0.3957
28285W        W34885  15.723   7.348  24.864  0.1222 -0.1776 -0.2654
28286W        W34886  23.492   1.792  28.219 -0.1240 -0.1160  0.1155
28287W        W34887  16.054   3.734  11.002  0.0899 -0.1437  0.0759
28288W        W34888   9.064   1.640  12.746  0.0787  0.1132  0.0637
28289W        W34889   6.957   7.316  27.513 -0.2010  0.0105 -0.1844
28290W        W34890   6.276   0.103  16.266  0.1660 -0.1876 -0.1008
28291W        W34891   4.465   3.238   7.881 -0.1197  0.1693  0.0993
28292W        W34892  13.615   7.319  29.515 -0.4453  0.1895 -0.1805
28293W        W34893  17.053   7.060  22.784  0.3035  0.0905  0.0369
28294W        W34894  23.347   5.909   2.002 -0.4727 -0.0013 -0.0294
28295W        W34895   8.241   1.331  31.193  0.1162 -0.0548 -0.1605
28296W        W34896  20.855   2.462  21.523  0.0552 -0.1349 -0.1088
28297W        W34897   8.262   1.575  11.936  0.3291  0.0586 -0.0419
28298W        W34898   0.055   5.121  30.326 -0.2119  0.0453 -0.1089
28299W        W34899  11.957   0.754  13.249  0.3564  0.3675  0.3200
28300W        W34900  12.688   5.723  24.905 -0.1739 -0.0384  0.2242
28301W        W34901   8.796   2.090  17.917  0.2121  0.0166 -0.0879
28302W        W34902   8.766   7.680  27.505 -0.1329 -0.1319 -0.3991
28303W        W34903   0.997   5.341  19.451  0.1145 -0.1451 -0.2027
28304W        W34904  10.801   0.303  24.837  0.2202  0.0789 -0.1310
28305W        W34905  10.479   6.441  16.356 -0.0660  0.1616  0.2234
28306W        W34906  19.781   4.130  16.122 -0.0259 -0.1815 -0.1398
28307W        W34907   7.315   6.615  23.642 -0.1185  0.0158 -0.0879
28308W        W34908  19.050   7.240   9.725 -0.0949  0.4580 -0.2095
28309W        W34909  22.957   6.205   2.999 -0.1193  0.0898 -0.0834
28310W        W34910  11.265   1.835  24.395 -0.4029  0.2302 -0.1888
28311W        W34911  23.017   0.753  21.145  0.0746  0.2676  0.1764
28312W        W34912  20.753   2.850  32.018  0.0713 -0.0955 -0.1140
28313W        W34913  12.357   1.065   9.807 -0.0847 -0.5816  0.0833
28314W        W34914  14.492   4.621   2.850  0.0592 -0.0786 -0.0419
28315W        W34915  23.622   6.371  23.746 -0.2210  0.0363  0.1087
28316W        W34916  23.885   1.426  27.235 -0.2080  0.1519 -0.2101
28317W        W34917   4.186   2.379   4.998 -0.0012  0.0366  0.2244
28318W        W34918   4.085   1.613  10.618 -0.2876  0.2234 -0.0282
28319W        W34919   9.814   3.884  15.318 -0.0356  0.3096 -0.3659
28320W        W34920   3.686   4.711  21.104 -0.0052 -0.2384  0.2391
28321W        W34921  24.124   3.759  25.074 -0.3079 -0.3028  0.1125
28322W        W34922   7.771   6.869  11.306 -0.1336  0.0112 -0.0189
28323W        W34923  21.059   6.631   1.666 -0.1800  0.3742  0.0785
28324W        W34924  20.657   0.534  20.591  0.1779  0.1592  0.1049
28325W        W34925   2.844   6.789  31.122  0.1397  0.1633 -0.1675
28326W        W34926  11.700   4.873   2.404 -0.1868  0.1388 -0.1019
28327W        W34927  21.270   7.364  10.280 -0.1379  0.6510  0.2133
28328W        W34928  21.406   7.557   5.870  0.0740  0.1740  0.3581
28329W        W34929   7.833   3.297  28.918 -0.1205  0.0005 -0.1214
28330W        W34930   3.439   1.068   6.734 -0.1415  0.2565  0.0082
28331W        W34931  22.059   6.473  26.491 -0.2152 -0.1280 -0.1778
28332W        W34932  24.979   2.677  17.857  0.0514 -0.2533  0.0566
28333W        W34933  19.929   3.542   2.506  0.3168 -0.1901  0.2180
28334W        W34934   3.020   4.400  10.326  0.2138  0.2135  0.1745
28335W        W34935   5.601   4.311   0.649  0.0079 -0.1384  0.0195
28336W        W34936   3.257   1.963  19.970  0.0324  0.0426 -0.2192
28337W        W34937   1.967   6.362  31.301 -0.0568 -0.0758 -0.3845
28338W        W34938  24.096   0.119  22.647 -0.1375  0.0019  0.1288
28339W        W34939  18.946   2.446  24.147 -0.1130  0.0299 -0.0609
28340W        W34940   1.119   5.901   7.665  0.0167  0.3020 -0.3521
28341W        W34941  18.945   3.875  25.418 -0.0507  0.0300  0.1234
28342W        W34942  16.289   3.547  10.415  0.1656 -0.0041  0.1499
28343W        W34943  10.400   4.846  16.381 -0.1125  0.0844  0.0362
28344W        W34944   1.295   4.830  30.947 -0.1135 -0.2073  0.1508
28345W        W34945  21.806   6.856   3.183 -0.1541 -0.0446 -0.1477
28346W        W34946  12.981   6.472  23.376 -0.0500 -0.1536  0.2312
28347W        W34947  13.729   6.829  29.778  0.2458  0.0421  0.0157
28348W        W34948  12.168   5.217   2.250 -0.1487  0.0035 -0.1360
28349W        W34949   0.247   2.389   6.842  0.1915  0.2237 -0.1702
28350W        W34950  24.049   4.657  27.262 -0.0516 -0.0398  0.1129
28351W        W34951   8.192   6.954  27.714 -0.3379 -0.5034  0.3328
28352W        W34952  22.673   5.687  19.402 -0.0126  0.1421 -0.0504
28353W        W34953   9.707   6.768  15.079  0.1660  0.0400  0.4656
28354W        W34954   6.530   0.156  29.037 -0.1246  0.2641  0.1688
28355W        W34955   1.666   0.657  23.507  0.1569 -0.2981  0.0951
28356W        W34956   7.387   7.247  16.020  0.2025 -0.1102  0.0411
28357W        W34957   7.375   2.919   6.220  0.0087 -0.3611 -0.0877
28358W        W34958   4.428   4.509   4.509 -0.1075  0.0694 -0.1411
28359W        W34959  12.471   5.786   7.090 -0.0037 -0.3988  0.0673
28360W        W34960   3.794   2.358  11.562 -0.0329  0.0101  0.1730
28361W        W34961  18.346   0.214   3.069 -0.1938  0.0680 -0.2118
28362W        W34962  17.798   3.637   7.981  0.2515 -0.0737  0.2898
28363W        W34963   0.380   5.025   4.620  0.0350  0.0700 -0.3381
28364W        W34964  10.307   6.576  29.351  0.1044 -0.1689 -0.0058
28365W        W34965  15.199   5.748   7.543  0.2510 -0.1519 -0.1374
28366W        W34966  23.286   1.137  21.975  0.2096 -0.2587  0.0395
28367W        W34967  13.777   0.009  10.440  0.1534  0.0275  0.0595
28368W        W34968  17.896   2.892  18.389  0.2843  0.1330  0.0908
28369W        W34969  10.028   0.584  31.772  0.0151  0.0018 -0.1442
28370W        W34970   0.246   0.578  29.074  0.1201  0.2937 -0.0174
28371W        W34971   2.788   3.054  24.374 -0.1898  0.0681 -0.0864
28372W        W34972   5.075   2.656   6.666  0.3196 -0.1188 -0.3757
28373W        W34973  12.367   1.636   2.284  0.2451 -0.3457  0.0415
28374W        W34974   9.314   4.134   0.415  0.1202  0.4411  0.0861
28375W        W34975   2.502   5.287  11.078 -0.5164  0.0093 -0.1913
28376W        W34976  10.562   5.830  24.222 -0.0369  0.2518  0.2151
28377W        W34977  21.548   6.741  30.316  0.0363 -0.0068 -0.1268
28378W        W34978  14.393   5.025  28.602 -0.1924  0.2108  0.0956
28379W        W34979  24.088   1.205  20.608 -0.2671  0.1170 -0.1490
28380W        W34980   7.942   0.215   4.859  0.0398  0.0271 -0.1659
28381W        W34981   9.160   0.649   0.234  0.3800  0.1268 -0.1220
28382W        W34982  17.633   0.566   3.589 -0.2219 -0.0533  0.2360
28383W        W34983  21.986   1.764  27.710  0.0015 -0.3906  0.1450
28384W        W34984  15.928   4.698   6.612 -0.1997 -0.1441 -0.0666
28385W        W34985   7.287   5.784   1.048  0.0755 -0.1475 -0.0174
28386W        W34986  18.772   0.482  25.800 -0.1225 -0.0863  0.0819
28387W        W34987  22.024   1.614   8.490  0.1872  0.1234  0.0951
28388W        W34988  24.139   0.345  19.916  0.3224 -0.1638  0.1060
28389W        W34989  20.536   5.139  21.221  0.0972 -0.0108 -0.0023
28390W        W34990   0.877   4.220  20.165 -0.0803  0.2248 -0.0400
28391W        W34991   6.325   7.146  11.368 -0.2129  0.2828  0.1615
28392W        W34992  24.227   7.338  26.115 -0.1192  0.2418  0.0904
28393W        W34993  21.664   3.907   2.515 -0.0092  0.0243 -0.0285
28394W        W34994  12.948   6.529  14.574  0.1550 -0.1311  0.0420
28395W        W34995  11.483   0.529   2.088  0.1384  0.3144 -0.2189
28396W        W34996   3.791   3.665  11.025  0.0125 -0.2559 -0.0354
28397W        W34997  12.919   4.355  29.406  0.0237  0.0670 -0.2194
28398W        W34998   0.767   1.168   1.095 -0.2553 -0.0722 -0.0323
28399W        W34999  16.648   1.273  32.038  0.0959 -0.0866  0.2331
28400W        W35000   8.483   6.304  32.346 -0.2964 -0.1895  0.2713
28401W        W35001  13.417   1.298  11.291  0.0728 -0.0336 -0.0337
28402W        W35002  10.648   7.674  31.500  0.2454  0.0983 -0.1173
28403W        W35003  13.702   7.724  12.800 -0.0558  0.1109 -0.0435
28404W        W35004  14.454   7.231  12.879 -0.2440  0.1531 -0.1492
28405W        W35005  13.011   4.484   9.254 -0.0806 -0.2315  0.0196
28406W        W35006   4.353   3.666   5.626 -0.1225 -0.1452 -0.1484
28407W        W35007  12.516   4.444  13.173  0.0393 -0.1298  0.0019
28408W        W35008   8.538   3.723   2.295 -0.2266 -0.2573  0.1340
28409W        W35009   1.942   2.886  19.814  0.0712 -0.1630  0.2345
28410W        W35010   5.804   4.392  22.134  0.1153  0.1240 -0.1037
28411W        W35011   1.673   6.193  30.566  0.0397 -0.2472  0.0541
28412W        W35012   3.892   5.849  31.489 -0.3590  0.1679 -0.0967
28413W        W35013  21.481   2.884  31.376 -0.0264  0.2538  0.2249
28414W        W35014  11.651   2.158  25.268  0.1334 -0.0114 -0.2381
28415W        W35015   0.759   5.096  20.468  0.1218 -0.3135  0.0092
28416W        W35016  11.972   1.760  25.626 -0.1444 -0.3894  0.1943
28417W        W35017   3.264   6.101  10.925  0.1766  0.1502  0.0302
28418W        W35018  10.994   3.240  16.500  0.0252  0.1125 -0.2566
28419W        W35019  23.731   6.512   7.743 -0.0582  0.2765 -0.0992
28420W        W35020  24.477   5.480  25.465 -0.0531 -0.1428  0.0183
28421W        W35021  18.791   3.918  28.743 -0.2602 -0.0342  0.0215
28422W        W35022  23.354   0.426  21.432 -0.1179  0.1924  0.4600
28423W        W35023  18.872   2.464  22.458 -0.3881 -0.0356  0.3894
28424W        W35024  22.099   2.438  23.655 -0.0850 -0.1236 -0.1039
28425W        W35025   4.976   5.588  28.245  0.1647  0.0899  0.0445
28426W        W35026  12.909   0.434   2.391 -0.0313 -0.2552 -0.0308
28427W        W35027   5.611   4.754   8.940 -0.1192 -0.2837  0.0574
28428W        W35028   5.738   1.924  24.862 -0.2523 -0.0619  0.0322
28429W        W35029  21.630   4.399   1.120 -0.1013  0.0374  0.3571
28430W        W35030  14.447   4.247  30.288 -0.0157  0.0408 -0.1545
28431W        W35031  14.629   5.773  19.870  0.0786 -0.0906  0.1148
28432W        W35032  20.682   6.334  28.966  0.0296  0.0745 -0.1017
28433W        W35033  13.031   4.302  12.713 -0.1430 -0.1897 -0.3355
28434W        W35034  19.118   6.379  26.249  0.2093  0.0054 -0.0906
28435W        W35035  24.508   6.973   7.867 -0.0812  0.0453 -0.0823
28436W        W35036  20.582   2.306  17.571 -0.0470 -0.2060 -0.1525
28437W        W35037  21.543   3.349  30.628 -0.0586  0.0496 -0.0890
28438W        W35038  18.262   5.099  31.586  0.0141  0.2181 -0.1620
28439W        W35039  22.993   4.156  29.223  0.0620  0.1388 -0.1345
28440W        W35040  12.674   2.332  25.422  0.1115  0.1256 -0.0419
28441W        W35041  24.200   5.227  31.411  0.3614 -0.0064  0.0470
28442W        W35042  22.059   7.803  22.094 -0.2364 -0.2607 -0.2275
28443W        W35043  21.673   0.023  27.986  0.2085  0.0480 -0.0314
28444W        W35044  10.491   0.888  25.702 -0.0909 -0.0381 -0.1047
28445W        W35045   8.878   1.354   4.623 -0.2748 -0.1927 -0.2670
28446W        W35046   2.503   3.731  31.143 -0.0287 -0.1467  0.0512
28447W        W35047   1.005   4.508   0.729 -0.0643  0.2112 -0.5444
28448W        W35048  12.838   2.323  27.841  0.2471  0.1274 -0.0396
28449W        W35049   3.937   2.928  14.189  0.2882  0.2871 -0.2839
28450W        W35050   8.559   1.556  26.450  0.0720 -0.0769  0.1639
28451W        W35051  18.780   7.015  22.283  0.0607 -0.0566 -0.0095
28452W        W35052  15.875   3.292   8.013 -0.0422 -0.3282 -0.3489
28453W        W35053  15.739   4.761   2.863  0.2044  0.1820  0.0971
28454W        W35054  10.845   4.906   1.227  0.1889 -0.1116  0.0068
28455W        W35055  15.868   5.739  19.561 -0.3056 -0.0615  0.1624
28456W        W35056  21.573   0.428  17.588 -0.0834  0.1674  0.1060
28457W        W35057  17.116   2.840  28.801 -0.1648 -0.2411 -0.1212
28458W        W35058   2.070   3.507   1.720 -0.0345  0.0549 -0.1162
28459W        W35059  10.393   0.380  28.387 -0.1525 -0.0429  0.1765
28460W        W35060  15.656   3.248   4.975  0.1038  0.1122 -0.1822
28461W        W35061  14.749   3.197   4.335 -0.2531 -0.2326  0.2144
28462W        W35062  16.588   6.419   0.557 -0.0380 -0.2323  0.0198
28463W        W35063  24.806   5.230   2.333 -0.0259 -0.1442  0.0047
28464W        W35064  20.353   4.158  28.431 -0.2033 -0.0550 -0.0394
28465W        W35065  20.756   3.996  28.740 -0.1638  0.0428 -0.0357
28466W        W35066  19.820   0.079   8.154 -0.4247  0.0827 -0.3252
28467W        W35067   9.586   3.417   5.698 -0.1191  0.1662  0.0107
28468W        W35068  15.651   7.341   6.764 -0.2581 -0.1579  0.0525
28469W        W35069  13.038   0.397   5.057 -0.2137  0.2867 -0.1170
28470W        W35070  16.567   6.535  10.637  0.3892  0.0423  0.2675
28471W        W35071  11.988   4.522  28.775 -0.0762 -0.0271  0.4388
28472W        W35072  23.271   5.698   1.106 -0.2412  0.2767  0.3169
28473W        W35073  15.326   1.063  32.045 -0.2476  0.1817 -0.0433
28474W        W35074   9.496   3.033  24.209  0.1662 -0.1391  0.1863
28475W        W35075  11.598   4.516  31.307 -0.1134 -0.2681 -0.1348
28476W        W35076  14.242   2.854  27.259 -0.3258  0.1325  0.1136
28477W        W35077   4.943   6.902  25.801  0.0862  0.1483  0.1931
28478W        W35078  20.126   6.964  20.121  0.0064 -0.0155 -0.1840
28479W        W35079   5.138   1.254   5.251  0.1618 -0.2324 -0.0792
28480W        W35080  14.123   1.087  27.542 -0.0434 -0.0341  0.2708
28481W        W35081   5.674   4.797   8.362 -0.0663 -0.2351  0.2187
28482W        W35082   8.883   0.672   6.277 -0.0497  0.0574  0.1698
28483W        W35083   4.510   5.063  29.762 -0.3602  0.4289 -0.0600
28484W        W35084  22.801   5.674  20.801  0.0371  0.2196 -0.2653
28485W        W35085   6.728   4.842  18.682  0.0806 -0.0183  0.0804
28486W        W35086  10.859   5.081   3.108  0.0670 -0.2365  0.0704
28487W        W35087   0.822   7.743  27.466 -0.2043  0.0099  0.2047
28488W        W35088  11.323   5.997   9.428 -0.1658 -0.0508  0.0886
28489W        W35089  21.200   4.422  26.136 -0.0527 -0.1019  0.1769
28490W        W35090  10.806   0.019   0.687 -0.0949 -0.1922 -0.0488
28491W        W35091  10.729   1.737  28.160 -0.1227 -0.0649 -0.1203
28492W        W35092   0.845   0.145   7.318  0.0676 -0.0224  0.2879
28493W        W35093  11.106   5.460  14.006  0.2812  0.0270 -0.2975
28494W        W35094   7.013   2.783   1.823 -0.0120 -0.0722  0.2395
28495W        W35095   2.405   2.438   8.578 -0.1256  0.2542  0.0024
28496W        W35096  16.779   3.251  23.968  0.0249  0.0403  0.2916
28497W        W35097   7.451   3.703   1.153  0.1458  0.0292  0.0528
28498W        W35098  19.427   5.289  16.112  0.0705 -0.0480 -0.2727
28499W        W35099   0.886   1.404  23.753  0.1903  0.1388 -0.1526
28500W        W35100   5.108   5.052  31.867 -0.0930  0.2709  0.0164
28501W        W35101  11.840   6.988  27.096 -0.0002  0.1660  0.0231
28502W        W35102  23.820   3.805  15.185  0.1584 -0.1570 -0.1545
28503W        W35103  10.059   7.767  25.556 -0.0085  0.1023  0.1703
28504W        W35104  24.966   6.385   5.109 -0.0336 -0.1006 -0.0116
28505W        W35105   7.593   3.310  26.548  0.4714  0.1544  0.0320
28506W        W35106   9.212   0.303  28.301 -0.3131  0.0172  0.0881
28507W        W35107   0.841   7.118  25.643 -0.2184 -0.3490 -0.1089
28508W        W35108   0.805   7.210   1.341  0.1868 -0.0959  0.0426
28509W        W35109  12.910   7.512  24.068  0.1271  0.0151 -0.3170
28510W        W35110   8.730   5.228  23.647 -0.0537  0.1657 -0.3323
28511W        W35111  15.154   2.251   2.299  0.1038 -0.0955  0.1039
28512W        W35112   5.181   3.792  22.761 -0.1552 -0.1348  0.2470
28513W        W35113  12.166   5.617  15.401  0.0246 -0.0548 -0.1093
28514W        W35114  13.991   2.209  25.935 -0.1420  0.5525  0.0125
28515W        W35115  22.152   0.485  23.354  0.2723  0.0216  0.0058
28516W        W35116  18.327   3.757   8.139 -0.0214  0.1109 -0.1987
28517W        W35117  20.410   0.773  25.526  0.0039 -0.0031 -0.1674
28518W        W35118  23.192   5.860  30.705 -0.0080 -0.1308  0.0828
28519W        W35119  13.578   0.454  14.382  0.1042 -0.0611  0.1489
28520W        W35120  21.388   1.453  30.882 -0.0203 -0.2618  0.3896
28521W        W35121   6.642   5.497  13.359  0.4119  0.1226  0.2457
28522W        W35122  15.709   1.030  20.150  0.1356  0.1160 -0.0324
28523W        W35123  20.328   6.988   8.244  0.0263  0.4277  0.0782
28524W        W35124   1.998   7.464   7.618  0.0286  0.1531 -0.1191
28525W        W35125  21.539   0.582  26.078  0.1650  0.3185 -0.0622
28526W        W35126  21.766   7.599   7.808 -0.0937 -0.1719 -0.0936
28527W        W35127  18.132   6.556  18.704  0.0312  0.0383  0.1051
28528W        W35128  20.897   6.983  27.068  0.0492  0.0596 -0.2495
28529W        W35129  16.382   7.019  30.493  0.0621  0.0572  0.0498
28530W        W35130  14.129   5.266   1.397 -0.1546  0.2105 -0.2432
28531W        W35131  21.170   2.874  29.699 -0.0618 -0.0964  0.0836
28532W        W35132   7.662   3.750  25.345 -0.0698 -0.1494  0.0366
28533W        W35133  19.562   0.014  29.078 -0.3519  0.2897  0.0291
28534W        W35134  16.655   2.972   7.305 -0.1278 -0.0522 -0.0205
28535W        W35135  16.013   4.793  26.792  0.0118 -0.0531  0.2168
28536W        W35136  16.615   0.441  10.354  0.2503  0.0864 -0.1619
28537W        W35137  15.436   2.630   8.370 -0.0109  0.0668  0.0333
28538W        W35138   6.550   0.071  26.098 -0.0091 -0.1335 -0.1106
28539W        W35139  20.707   5.923  31.013 -0.2775 -0.2510 -0.1767
28540W        W35140  15.646   7.192  30.092 -0.0654  0.0782 -0.0244
28541W        W35141  15.659   5.250  21.280 -0.0335  0.1682 -0.1880
28542W        W35142  22.387   4.858  31.191 -0.0595 -0.0047  0.0381
28543W        W35143  13.704   6.498  27.664  0.2920  0.0576  0.1138
28544W        W35144  12.749   7.136  32.468  0.2908 -0.0089  0.1412
28545W        W35145   2.219   1.660   8.331  0.0573  0.1949  0.1113
28546W        W35146   5.631   1.361   5.140  0.1918 -0.1435 -0.0275
28547W        W35147  17.365   3.935  24.268 -0.0548 -0.1114 -0.0463
28548W        W35148   0.669   6.781  22.159 -0.2156  0.1292  0.0457
28549W        W35149   7.786   3.174  30.877  0.0134  0.0646 -0.0539
28550W        W35150  23.205   1.142   7.745  0.2432  0.0414 -0.2701
28551W        W35151   8.942   1.478   5.897 -0.0766  0.0846 -0.0974
28552W        W35152  17.609   6.630  29.650  0.0305  0.0746  0.0251
28553W        W35153   7.528   4.191  29.974  0.1234 -0.1436 -0.0600
28554W        W35154   6.861   2.935  30.041 -0.2443  0.1553  0.3526
28555W        W35155   6.334   0.062  23.569  0.1407  0.1196  0.0036
28556W        W35156  11.879   0.494  15.693 -0.3188 -0.1031 -0.0403
28557W        W35157  10.808   5.736  28.419 -0.1281  0.3362 -0.5496
28558W        W35158   8.104   0.522   1.043  0.2093  0.1362 -0.0743
28559W        W35159  20.794   3.818  16.871 -0.4879  0.0427  0.0553
28560W        W35160   7.811   3.374   0.339  0.1382 -0.0205  0.1919
28561W        W35161  23.051   2.904  18.501  0.0444 -0.2672 -0.0364
28562W        W35162  11.862   5.692   3.685  0.4232 -0.0311  0.0367
28563W        W35163  20.702   6.876  28.809 -0.3116  0.1852 -0.1901
28564W        W35164   5.132   6.625   8.670 -0.0567  0.1792  0.3435
28565W        W35165  13.152   7.188  25.877 -0.0254 -0.0468  0.2362
28566W        W35166  14.886   5.108  11.068  0.0667 -0.1611 -0.0421
28567W        W35167  24.451   4.566   8.941  0.0321 -0.1574 -0.3472
28568W        W35168  13.927   4.473  10.951 -0.0004 -0.0099 -0.1934
28569W        W35169  21.808   0.176   8.474 -0.2082 -0.0509  0.0943
28570W        W35170  13.007   2.095  12.285  0.0231  0.2594  0.1636
28571W        W35171  15.914   7.652  23.986  0.0241 -0.2608 -0.1737
28572W        W35172   8.155   3.384  29.326  0.0291  0.2395  0.0490
28573W        W35173  21.689   0.239  16.665 -0.0318  0.0466  0.1856
28574W        W35174  22.335   2.668  31.759  0.1185  0.1468 -0.1073
28575W        W35175  19.563   2.690   9.012  0.1972 -0.1960 -0.1454
28576W        W35176   8.577   1.203  16.002 -0.0205 -0.2566 -0.0210
28577W        W35177  20.805   0.747  32.612  0.0278 -0.0693  0.0571
28578W        W35178  11.237   7.663   3.522  0.3019 -0.2204  0.4004
28579W        W35179   1.771   5.169   2.949  0.0017  0.2104 -0.0471
28580W        W35180  24.426   3.285  16.383  0.1990 -0.1367 -0.1942
28581W        W35181  19.033   7.560  29.777 -0.1079 -0.3620 -0.1020
28582W        W35182   2.099   3.403  20.068 -0.1499 -0.2243 -0.3902
28583W        W35183  21.313   4.537   5.068 -0.0838 -0.0027  0.2148
28584W        W35184  21.356   0.973  18.395 -0.3568 -0.2052  0.1026
28585W        W35185  22.086   2.882  22.011  0.0590 -0.2089  0.2384
28586W        W35186  17.211   3.446   4.325  0.6687  0.1228 -0.0963
28587W        W35187  17.793   5.950   0.292  0.3481 -0.0689 -0.0534
28588W        W35188   3.861   5.161   3.659 -0.1189 -0.0487  0.0013
28589W        W35189   3.305   4.475  32.649  0.3153 -0.0441 -0.0491
28590W        W35190   2.319   0.696  21.915  0.0623  0.0710 -0.1122
28591W        W35191   1.124   3.749  25.537  0.1933 -0.1954  0.3059
28592W        W35192   0.014   5.486  21.835  0.4134 -0.1598 -0.0373
28593W        W35193  15.221   1.915  32.186  0.1436  0.2725  0.0731
28594W        W35194   3.252   5.143   9.354  0.1249  0.1517 -0.4162
28595W        W35195  15.026   5.617  10.587  0.1195 -0.2571 -0.1680
28596W        W35196  11.947   2.668  25.946  0.1661 -0.0768 -0.1904
28597W        W35197  14.012   1.375  26.165 -0.2674  0.3814 -0.0218
28598W        W35198   9.414   1.936   7.758  0.2430 -0.1793  0.1436
28599W        W35199  13.037   1.978   9.329 -0.0857  0.1558  0.1075
28600W        W35200   2.400   2.630  28.203 -0.0260  0.0754 -0.0471
28601W        W35201  19.365   4.576  19.593  0.0659  0.1431 -0.0602
28602W        W35202   2.660   6.138   9.623 -0.0200  0.3633  0.5220
28603W        W35203  18.354   3.621  30.655 -0.0703  0.0488 -0.0813
28604W        W35204  20.069   3.283   0.738 -0.3351 -0.1273 -0.1561
28605W        W35205  15.405   0.886  10.195 -0.1058  0.0931  0.0227
28606W        W35206  22.845   4.730   1.422  0.0509  0.2338  0.0144
28607W        W35207  23.310   1.036   5.077 -0.0515 -0.2515  0.2174
28608W        W35208  22.912   2.565   7.450  0.2825 -0.0801 -0.3606
28609W        W35209   1.950   5.736   0.358  0.3988  0.0474 -0.1370
28610W        W35210  12.781   2.018  29.976 -0.3477 -0.1075 -0.2412
28611W        W35211   5.090   1.336  30.551  0.0252  0.0794 -0.0118
28612W        W35212   6.291   2.335   0.162  0.3737  0.1287 -0.4455
28613W        W35213  23.908   1.984  20.228  0.2630 -0.1559  0.1760
28614W        W35214  10.032   7.470  27.583  0.0108 -0.1563  0.2517
28615W        W35215   4.385   1.407   5.819  0.0064  0.0114  0.1726
28616W        W35216  20.704   0.742   5.724 -0.1268  0.2099  0.1598
28617W        W35217   7.330   2.583  24.381 -0.1483  0.0186 -0.0158
28618W        W35218  12.858   2.095  11.254  0.1766  0.1068 -0.1286
28619W        W35219  13.642   1.156   9.826 -0.1117 -0.1009 -0.0177
28620W        W35220   6.508   7.519   0.615 -0.0631  0.0232 -0.0658
28621W        W35221   7.058   5.821   4.925  0.0602 -0.1037  0.2024
28622W        W35222  21.540   1.267   3.631 -0.0824  0.4363 -0.1285
28623W        W35223  13.966   7.126  21.204  0.1871 -0.0988 -0.0172
28624W        W35224  12.263   0.458  11.403  0.2035 -0.2482  0.0792
28625W        W35225  14.187   6.130  11.718  0.2498  0.1579 -0.4228
28626W        W35226  16.474   5.878  32.114 -0.5014 -0.0694 -0.0828
28627W        W35227   0.463   6.377  10.751 -0.0327  0.0383 -0.0200
28628W        W35228  15.062   3.189  24.434 -0.0662  0.0808  0.0795
28629W        W35229  21.572   2.195   1.816  0.0363 -0.3929  0.0389
28630W        W35230   8.010   6.974  17.315 -0.0422  0.1484  0.1745
28631W        W35231  12.156   5.234  10.956  0.0827  0.0236 -0.0211
28632W        W35232  21.830   2.664  20.181  0.0661 -0.1723 -0.1193
28633W        W35233  13.659   3.409   5.431 -0.0322  0.1062  0.1333
28634W        W35234   5.279   5.486   6.383  0.1867  0.1024  0.0085
28635W        W35235  23.630   4.764  10.386  0.1448 -0.0170  0.1519
28636W        W35236  10.876   6.646  16.528  0.0784 -0.1171  0.0062
28637W        W35237  15.274   0.673  19.365  0.0952  0.1032  0.2263
28638W        W35238  19.340   1.152  28.310 -0.0421  0.0002 -0.1085
28639W        W35239  17.688   2.202   7.070  0.0663 -0.1500  0.0011
28640W        W35240   7.212   6.331   4.867  0.3679 -0.1385 -0.0727
28641W        W35241  14.490   6.601   8.768 -0.0073  0.1354 -0.1335
28642W        W35242  17.949   2.713   3.905 -0.0733 -0.0701  0.1966
28643W        W35243  22.196   4.986   3.197 -0.2134  0.1400  0.0221
28644W        W35244   8.061   1.873  14.005 -0.0121  0.0936  0.2855
28645W        W35245  17.488   5.401   5.575  0.0069  0.2136  0.1414
28646W        W35246   2.621   1.310  23.262  0.1004  0.1484 -0.2308
28647W        W35247  10.566   3.597   5.503  0.1943  0.1160  0.2152
28648W        W35248  23.108   7.819   9.634  0.0722 -0.1945 -0.0579
28649W        W35249  14.610   1.702   9.779  0.3445 -0.1914  0.2476
28650W        W35250   7.220   0.026  17.293 -0.3293 -0.1365  0.0350
28651W        W35251  20.853   0.908  21.660  0.0361  0.1576 -0.0969
28652W        W35252   1.164   5.011  24.499 -0.3127  0.1574 -0.0950
28653W        W35253  17.240   6.363  32.171  0.0748  0.0467  0.0531
28654W        W35254   8.318   4.129  12.854 -0.0730 -0.0964  0.0636
28655W        W35255   1.945   5.626   7.853  0.2111  0.1408 -0.0094
28656W        W35256  21.659   3.768  27.371  0.0003  0.0235  0.0640
28657W        W35257  22.128   6.058   4.552 -0.1387  0.0617  0.2903
28658W        W35258  20.827   0.538  10.062  0.1077  0.0573 -0.0952
28659W        W35259   3.841   5.023  25.871  0.1504  0.0598 -0.0815
28660W        W35260  23.274   4.840   2.872 -0.0705 -0.1531 -0.0001
28661W        W35261   9.347   5.507  11.734  0.1268 -0.2282  0.0460
28662W        W35262   2.970   3.508  20.515 -0.2028 -0.0105 -0.1928
28663W        W35263  14.949   5.244  23.828 -0.1510 -0.2905 -0.0506
28664W        W35264   7.439   7.188   0.952 -0.0376  0.1929  0.0291
28665W        W35265   3.672   0.486  13.324 -0.1046 -0.0343 -0.0887
28666W        W35266   6.396   6.655   8.636 -0.1976  0.2056 -0.3017
28667W        W35267   3.280   5.306   6.906 -0.3051 -0.2546  0.0645
28668W        W35268  20.845   4.597  18.261  0.0077 -0.3254 -0.0095
28669W        W35269  19.687   0.459  27.797  0.0611  0.0543 -0.1040
28670W        W35270   4.150   4.716  27.419  0.1202  0.1391  0.0459
28671W        W35271   3.728   4.980   4.670 -0.4489 -0.1935  0.0259
28672W        W35272   1.249   3.562   3.604 -0.3223 -0.1724 -0.0823
28673W        W35273  13.410   3.686   5.759 -0.3846 -0.2364  0.1793
28674W        W35274   1.459   3.149  32.333 -0.3516  0.1906 -0.1406
28675W        W35275  20.416   2.930  26.840 -0.1439 -0.5118  0.2972
28676W        W35276  18.558   6.414   3.782  0.2018  0.3969  0.2445
28677W        W35277   2.335   2.827   9.620  0.1494 -0.1123  0.2067
28678W        W35278  19.843   7.463   1.178  0.1568 -0.2731  0.1476
28679W        W35279   7.855   7.598  30.792 -0.0865 -0.0907  0.0349
28680W        W35280   8.427   6.188  27.455 -0.0003 -0.1936  0.0690
28681W        W35281  17.128   2.012  24.228 -0.0470 -0.0928  0.0416
28682W        W35282   6.693   6.700  32.595 -0.1968  0.4128 -0.1369
28683W        W35283   3.478   7.157   9.608  0.0464 -0.1640 -0.2334
28684W        W35284   3.961   6.618  26.419 -0.1873 -0.0086  0.0255
28685W        W35285  22.564   3.656  20.487 -0.1787  0.0708 -0.1728
28686W        W35286   4.019   6.883  25.998 -0.0195  0.1442  0.0987
28687W        W35287  14.289   1.629   0.741 -0.0386  0.1892  0.0391
28688W        W35288   1.765   3.666   9.152 -0.2701 -0.2374 -0.4299
28689W        W35289  22.484   7.821   0.370 -0.1664 -0.1373 -0.1280
28690W        W35290  20.965   5.086  17.067 -0.2606 -0.1915 -0.3353
28691W        W35291  18.830   1.370  29.140 -0.0586  0.4243 -0.0332
28692W        W35292   1.775   5.155  22.267 -0.0471  0.0424  0.0206
28693W        W35293   0.743   2.317  24.521 -0.0137  0.0431  0.2069
28694W        W35294  19.342   7.281  18.021  0.0710  0.1435  0.2503
28695W        W35295  22.249   0.670   0.168  0.1365  0.1536  0.0909
28696W        W35296   8.220   0.103   8.041 -0.0844 -0.0107  0.2189
28697W        W35297   2.987   6.984  29.184 -0.3550  0.3537 -0.0195
28698W        W35298  14.402   7.684   4.185 -0.1252  0.2480 -0.1729
28699W        W35299   4.720   6.856   9.521  0.4005  0.0723 -0.0259
28700W        W35300  24.850   2.918  27.787 -0.0292  0.0467 -0.2963
28701W        W35301   9.875   1.161  27.955 -0.0333  0.0198 -0.1328
28702W        W35302  12.099   2.807  26.411 -0.0924  0.1742 -0.3515
28703W        W35303   7.670   1.313  16.069  0.0476  0.2540 -0.1063
28704W        W35304   1.690   1.070   5.198 -0.2642  0.0856 -0.0086
28705W        W35305  12.155   1.552  29.386  0.0223  0.2351 -0.3504
28706W        W35306   2.737   1.936  12.314 -0.1762 -0.0145  0.3037
28707W        W35307  16.339   5.390  25.212 -0.0037  0.0314  0.2749
28708W        W35308   8.835   5.636  15.109  0.0321 -0.4738 -0.3137
28709W        W35309  12.104   1.310   7.315 -0.0480 -0.3017  0.0660
28710W        W35310  18.107   7.279   7.613  0.3473 -0.0928 -0.1741
28711W        W35311   7.605   1.620   4.074  0.0138  0.0795  0.0908
28712W        W35312   9.270   7.265  23.129  0.1683  0.2513 -0.1233
28713W        W35313  23.750   4.467   7.480 -0.0462 -0.0463  0.2317
28714W        W35314  14.442   0.378  29.555  0.0610  0.1738  0.0237
28715W        W35315  12.465   0.932   3.806 -0.1080 -0.1655 -0.1448
28716W        W35316   3.113   7.313   0.868 -0.2583  0.1825  0.1083
28717W        W35317  17.392   0.652   0.562  0.0016  0.1910  0.1781
28718W        W35318  16.517   2.316  31.093  0.0911 -0.0357  0.1044
28719W        W35319  20.012   7.532  28.888 -0.0814  0.0149  0.3155
28720W        W35320  15.165   1.281   8.004 -0.2306  0.1971 -0.0548
28721W        W35321   0.958   4.390   3.344  0.1295 -0.0200  0.1324
28722W        W35322  24.227   7.086   0.533  0.1380 -0.1877  0.2560
28723W        W35323   9.248   5.139   5.675  0.1032  0.1390  0.0830
28724W        W35324  19.315   7.177  17.525 -0.2321  0.0093  0.4109
28725W        W35325   6.864   0.603  12.344 -0.0359 -0.1719 -0.0105
28726W        W35326   3.517   0.619   1.202  0.1778 -0.1847  0.0380
28727W        W35327  12.154   0.914  15.566 -0.1581  0.0376 -0.0140
28728W        W35328   8.503   6.956  13.459  0.2577 -0.1290  0.1736
28729W        W35329  23.747   5.668   3.787  0.3191 -0.4708  0.1359
28730W        W35330   3.694   5.557  29.547 -0.3850 -0.1082  0.0937
28731W        W35331  19.657   0.765   5.596 -0.1867 -0.1217  0.0164
28732W        W35332  21.783   5.042  19.061 -0.0492  0.1622  0.1061
28733W        W35333   2.278   4.290  10.693 -0.0873 -0.1236  0.3606
28734W        W35334  12.161   1.574   6.364 -0.0239  0.2000  0.0039
28735W        W35335  23.677   5.144  26.451  0.0714  0.1273  0.0866
28736W        W35336   5.980   7.057  29.382 -0.2317 -0.3800  0.2543
28737W        W35337  19.357   0.954   8.819 -0.0704 -0.0043  0.0133
28738W        W35338   0.054   3.341  15.534  0.2232  0.0624 -0.0688
28739W        W35339  14.170   1.755   5.521 -0.1278 -0.1917 -0.1787
28740W        W35340  10.574   5.604  14.716 -0.1520  0.1246 -0.3752
28741W        W35341  18.603   5.801  28.820 -0.3833 -0.0896  0.2177
28742W        W35342  19.080   2.387   4.992 -0.1726 -0.0391 -0.1503
28743W        W35343  14.576   3.697  21.242  0.3261 -0.3022  0.2192
28744W        W35344   3.623   5.892   5.178 -0.0602  0.1971 -0.0546
28745W        W35345  18.767   2.364  20.292 -0.2736 -0.0487 -0.0217
28746W        W35346  18.891   5.938   6.459  0.3209  0.0166  0.2537
28747W        W35347  20.406   7.561   9.961  0.0948 -0.0543  0.0155
28748W        W35348  16.470   2.779  22.738 -0.1030 -0.0055 -0.0973
28749W        W35349  23.221   1.998   6.595 -0.0522 -0.0868  0.1478
28750W        W35350  22.078   3.776  24.433  0.1824 -0.3032  0.2052
28751W        W35351   8.465   4.596   6.864  0.0383  0.0606  0.2146
28752W        W35352  21.479   5.963  23.477  0.1983 -0.1802 -0.1575
28753W        W35353  10.160   0.985  10.841  0.0985 -0.2089  0.1255
28754W        W35354  21.124   1.839   2.314 -0.0666  0.1740  0.0308
28755W        W35355   8.269   5.062   2.000  0.2532 -0.2698  0.1272
28756W        W35356  20.159   5.517  30.427 -0.1707  0.0042  0.1225
28757W        W35357   3.156   5.215  11.383  0.1903  0.0390  0.0595
28758W        W35358  22.722   7.606  28.617  0.1226  0.2871 -0.2231
28759W        W35359  24.080   3.727   0.372 -0.1509 -0.0356 -0.1294
28760W        W35360  23.892   2.212   1.416 -0.1573 -0.1615  0.1325
28761W        W35361   2.982   7.751   2.531 -0.0825  0.1274 -0.2356
28762W        W35362  16.398   6.281   5.224  0.0454  0.0610 -0.0791
28763W        W35363   9.422   4.929  25.296  0.1033 -0.0605 -0.2118
28764W        W35364  14.138   1.221  21.226  0.0314  0.0166 -0.0509
28765W        W35365   5.100   0.506  12.750 -0.1809  0.2318 -0.0079
28766W        W35366  24.135   6.343  25.123  0.2054 -0.1481 -0.0135
28767W        W35367  21.821   7.091  32.277  0.0001  0.2322 -0.1376
28768W        W35368   4.495   7.577  25.241  0.0648 -0.1697 -0.5953
28769W        W35369  24.789   5.927  19.339  0.1240  0.0113  0.1038
28770W        W35370  16.076   4.751   4.070 -0.1119  0.1680  0.1360
28771W        W35371   9.667   6.705   9.862 -0.0311 -0.0115  0.3238
28772W        W35372  17.432   6.778  22.224 -0.0516 -0.1647  0.1881
28773W        W35373  13.990   0.652  25.266  0.2441  0.1821 -0.0782
28774W        W35374   8.380   4.583  12.622 -0.2602  0.0855  0.1770
28775W        W35375   4.665   1.352  22.125  0.1481 -0.0331  0.1024
28776W        W35376   9.200   2.673  12.977  0.2016  0.3510  0.0776
28777W        W35377  21.074   1.337  18.570  0.2866 -0.1608  0.2760
28778W        W35378  23.359   4.530  16.298 -0.0117  0.0102 -0.1047
28779W        W35379   3.949   2.028  31.879 -0.2121 -0.4517 -0.3521
28780W        W35380  23.043   6.259  20.042  0.0653  0.3041 -0.0852
28781W        W35381  16.855   5.997  23.426 -0.0200 -0.2145  0.2575
28782W        W35382  13.376   6.397   1.488  0.1464 -0.0152  0.0375
28783W        W35383   7.043   0.510  23.582  0.0585  0.1495  0.1712
28784W        W35384   7.132   2.498   6.128  0.1954  0.2218  0.1998
28785W        W35385  15.566   1.703  18.445  0.2034  0.0856  0.1524
28786W        W35386   3.955   2.119   4.516  0.0011 -0.1010  0.0054
28787W        W35387  10.728   0.040  30.082 -0.1270  0.1241  0.1417
28788W        W35388  13.943   0.985   7.814 -0.2443  0.1731  0.2358
28789W        W35389   4.411   0.722  27.104 -0.2674 -0.2810  0.0950
28790W        W35390  13.415   6.149  22.214  0.1258 -0.0290  0.1423
28791W        W35391  22.508   4.137  20.448 -0.0055 -0.1067  0.3183
28792W        W35392  10.467   4.367  15.255  0.2138 -0.1942 -0.3639
28793W        W35393  14.011   3.686   3.323 -0.2055 -0.1826 -0.1201
28794W        W35394   8.479   7.506   0.042 -0.0394 -0.0034 -0.1030
28795W        W35395  13.343   3.772  28.380  0.1311 -0.2393 -0.0737
28796W        W35396   2.138   0.063  32.286 -0.0442 -0.2320 -0.2519
28797W        W35397   1.998   0.075   3.600  0.2025  0.0733 -0.1126
28798W        W35398  22.376   0.134   4.654 -0.0488 -0.0854 -0.1163
28799W        W35399  24.643   5.481  27.287 -0.0615  0.0740  0.1425
28800W        W35400   0.993   4.084  29.002  0.3480  0.0974 -0.1206
28801W        W35401  17.822   5.282   1.530 -0.0951 -0.3617 -0.3071
28802W        W35402   0.960   7.328  31.585  0.3042  0.0631  0.0781
28803W        W35403  12.290   2.296   3.164 -0.1595  0.1426  0.3076
28804W        W35404  11.084   1.757   8.305 -0.1762  0.0596 -0.1212
28805W        W35405  24.310   4.337   7.943  0.1055 -0.0942  0.0818
28806W        W35406  14.504   7.127   3.499 -0.0201  0.0260 -0.2265
28807W        W35407   1.423   6.864   0.392  0.1389  0.1891  0.3625
28808W        W35408  17.061   4.666  20.270  0.0463 -0.0354  0.1038
28809W        W35409  23.796   5.741   5.041  0.0120 -0.2948  0.2225
28810W        W35410   1.016   3.778   8.583 -0.0688 -0.1045  0.0089
28811W        W35411   1.779   2.236  29.138 -0.0657  0.0148 -0.2776
28812W        W35412  24.762   2.371  16.787  0.1842  0.3655  0.0302
28813W        W35413  18.687   5.152   4.670  0.0326  0.0417  0.0362
28814W        W35414   4.027   2.225   8.294  0.2688 -0.0887  0.1596
28815W        W35415  14.029   2.901   9.976  0.0189 -0.0775  0.2936
28816W        W35416  15.941   2.815  24.860  0.3304 -0.2225 -0.0325
28817W        W35417  17.480   4.764   2.478 -0.1193  0.2886 -0.0505
28818W        W35418  11.608   7.051  16.044  0.2047 -0.2897 -0.1442
28819W        W35419  11.386   3.714   5.393 -0.0431 -0.0060 -0.0216
28820W        W35420   8.264   3.117  31.088 -0.0168 -0.1792 -0.0220
28821W        W35421  13.116   5.055   5.465 -0.1166  0.0424 -0.5136
28822W        W35422  18.752   1.483   5.771  0.2799  0.1534  0.0676
28823W        W35423  10.581   5.275  23.252  0.4251 -0.3562 -0.0981
28824W        W35424  14.671   1.524  25.789  0.0679 -0.0322 -0.0052
28825W        W35425  13.844   3.945  11.908 -0.0479 -0.1455 -0.1430
28826W        W35426  14.431   6.041   2.710 -0.1000 -0.1474 -0.0122
28827W        W35427  10.424   1.955  15.114 -0.1046 -0.2859  0.0589
28828W        W35428  24.526   3.986   2.884  0.0354  0.2032 -0.1522
28829W        W35429   6.706   5.179  30.110 -0.0813 -0.0331  0.1057
28830W        W35430   6.108   2.874  30.404  0.0177 -0.0909  0.2905
28831W        W35431  14.190   5.621  22.851 -0.3140  0.0278 -0.0684
28832W        W35432  12.797   0.834   1.186  0.2871 -0.1153 -0.1679
28833W        W35433  10.745   1.968   5.580  0.1335  0.1059  0.3760
28834W        W35434  18.861   6.234   1.209  0.0480 -0.0999  0.0212
28835W        W35435  12.816   6.916  14.227  0.2178 -0.1177  0.2739
28836W        W35436  19.102   2.920  17.615 -0.2489  0.2663 -0.1203
28837W        W35437  20.243   5.196  19.409  0.1039 -0.0036  0.0620
28838W        W35438   9.975   4.515   3.298  0.1231  0.0534  0.1221
28839W        W35439  12.538   6.431  11.839  0.0722  0.1420  0.2118
28840W        W35440  23.084   4.392  15.292 -0.1410 -0.1141  0.0417
28841W        W35441  20.147   0.878  32.268  0.0868  0.0551 -0.2832
28842W        W35442   2.495   3.236   3.605 -0.1488  0.4243 -0.2175
28843W        W35443  21.833   2.167  31.767  0.1331 -0.1576 -0.1742
28844W        W35444  21.127   0.353  28.711 -0.1383 -0.0301  0.2295
28845W        W35445   8.944   0.790  23.264 -0.1956  0.2676 -0.1086
28846W        W35446  11.001   3.134  12.930 -0.1207  0.3106  0.1898
28847W        W35447  13.852   7.417   6.257  0.4771  0.1558  0.2510
28848W        W35448  10.442   1.357  17.907 -0.0157  0.1405 -0.1472
28849W        W35449  24.731   4.607   7.375  0.2026 -0.3576  0.0270
28850W        W35450   7.555   1.420  23.310  0.1572 -0.2010 -0.0974
28851W        W35451  19.298   2.918  17.110 -0.0313 -0.0910 -0.1513
28852W        W35452  14.886   2.449  13.578 -0.3229  0.1096  0.1861
28853W        W35453  11.455   1.006  11.251 -0.0471  0.2796  0.1440
28854W        W35454  22.541   5.225  25.094 -0.1398 -0.0616  0.0345
28855W        W35455   1.131   1.036  25.558 -0.0825 -0.0652 -0.0276
28856W        W35456  17.299   2.448   5.844  0.0508  0.1177  0.0809
28857W        W35457  21.700   0.675   5.747  0.3630  0.0819  0.1549
28858W        W35458  13.001   1.334  14.544 -0.0233  0.1911 -0.2515
28859W        W35459   3.703   1.885   2.480 -0.0248  0.0724 -0.1804
28860W        W35460   6.579   0.403   2.668 -0.3296 -0.0288 -0.0744
28861W        W35461  24.468   4.807   3.474 -0.3264  0.1989 -0.0370
28862W        W35462   1.938   6.121  32.696  0.0809  0.1370  0.0275
28863W        W35463  17.271   5.953  18.907  0.4258  0.0634  0.0462
28864W        W35464  16.115   2.858  11.095 -0.0977  0.2050 -0.2289
28865W        W35465  13.853   7.358   0.723  0.0999 -0.2615 -0.3605
28866W        W35466  22.570   3.731   8.909  0.1562  0.3792  0.2296
28867W        W35467   9.598   2.805   5.418  0.0475 -0.0672 -0.2070
28868W        W35468  20.490   0.554  29.142 -0.2473 -0.0239 -0.3451
28869W        W35469  10.519   5.728  31.865  0.0115  0.1292 -0.2370
28870W        W35470  24.694   3.108  26.319 -0.1391  0.0107  0.2270
28871W        W35471   3.781   7.657  23.278 -0.0334  0.1006 -0.1957
28872W        W35472  22.097   1.823  15.659 -0.1128  0.0119  0.3500
28873W        W35473  22.066   6.598   9.486 -0.0692  0.1811  0.0822
28874W        W35474  14.529   1.150  10.769  0.0088 -0.1618 -0.0034
28875W        W35475  16.321   1.556  30.578  0.1300  0.4740  0.0939
28876W        W35476  12.230   6.224  26.822  0.0476 -0.0971 -0.3819
28877W        W35477  19.970   4.164   5.100  0.5025 -0.2908  0.1135
28878W        W35478  10.651   6.478  22.065  0.0417 -0.2804  0.3131
28879W        W35479  24.649   6.678  18.155  0.1837 -0.2410 -0.2251
28880W        W35480  20.365   4.544  19.466  0.2242  0.2406 -0.1821
28881W        W35481  24.500   3.637  24.714 -0.0453  0.0874  0.3084
28882W        W35482  24.136   1.502  32.130  0.0669  0.1052  0.2087
28883W        W35483  15.306   1.884  11.872 -0.0096 -0.0927 -0.1764
28884W        W35484   4.229   1.050   3.201 -0.0349 -0.2024  0.0392
28885W        W35485  22.664   7.118  20.140 -0.4091 -0.1331  0.1506
28886W        W35486   4.670   2.485   5.012  0.3838 -0.1702 -0.2939
28887W        W35487  16.021   6.915   3.816 -0.0713 -0.0077  0.0512
28888W        W35488   7.440   5.209  24.510 -0.1593  0.1569  0.1770
28889W        W35489  21.412   6.275  16.325 -0.2275 -0.0234  0.1707
28890W        W35490  10.580   5.960   4.937  0.3953  0.0347  0.0957
28891W        W35491   6.363   6.967  24.716  0.0209  0.5908  0.0192
28892W        W35492   3.909   3.889   5.621 -0.0303 -0.0933 -0.3759
28893W        W35493  17.719   0.392   1.158  0.0133  0.1247  0.1904
28894W        W35494  13.778   1.695  32.241 -0.1108 -0.0490 -0.0733
28895W        W35495   3.078   7.592   6.234 -0.2719  0.0706  0.1962
28896W        W35496  10.523   2.073  29.715  0.0310 -0.0855  0.2328
28897W        W35497  20.549   6.130  15.841  0.1706 -0.2024 -0.2970
28898W        W35498   4.463   1.449  21.204  0.1002  0.2223 -0.1063
28899W        W35499  24.369   3.158  24.528  0.2143 -0.1589 -0.0837
28900W        W35500   4.963   2.406   7.770  0.0722  0.0258  0.0218
28901W        W35501   3.143   3.358  21.465 -0.0629  0.1906 -0.1333
28902W        W35502  19.963   1.505  25.475 -0.1259  0.2856  0.0042
28903W        W35503  14.824   1.594  30.857 -0.2114  0.3928  0.1439
28904W        W35504   3.409   6.558  31.163 -0.0255  0.0977 -0.0922
28905W        W35505   6.200   4.960  14.867  0.0622 -0.0412 -0.0546
28906W        W35506  18.537   2.168  21.425 -0.1744 -0.1456 -0.0256
28907W        W35507  18.375   7.316  28.121  0.0753  0.1326  0.0628
28908W        W35508  17.854   6.576   1.618  0.0441  0.0114 -0.1912
28909W        W35509  14.675   7.442   4.562  0.0026  0.1689  0.3330
28910W        W35510  10.225   1.100  27.630 -0.0746 -0.1513  0.2267
28911W        W35511   8.166   0.261   5.766  0.1692  0.0307 -0.0730
28912W        W35512  19.570   3.446  25.598 -0.2582 -0.1068 -0.2176
28913W        W35513  11.598   4.035  31.417 -0.1330 -0.0210 -0.0791
28914W        W35514   8.035   3.750   2.254 -0.2201 -0.1808  0.0837
28915W        W35515  24.899   6.097  25.672 -0.0945  0.2385 -0.0650
28916W        W35516   1.208   4.735   6.543  0.3106  0.2938  0.1529
28917W        W35517  15.013   3.568  27.688  0.1138 -0.1815  0.0175
28918W        W35518  11.234   5.069  30.858 -0.0057  0.3175 -0.1760
28919W        W35519  24.254   1.803  21.111  0.0905  0.2293  0.0255
28920W        W35520   4.030   4.306  32.406  0.0957 -0.5279  0.1394
28921W        W35521  18.226   1.953   2.238  0.1464  0.1314  0.1629
28922W        W35522  22.832   6.163  26.496  0.0295 -0.0302  0.1118
28923W        W35523   5.833   7.532   9.000  0.0806  0.0126 -0.1149
28924W        W35524  14.540   7.163  25.736 -0.0042 -0.1567  0.1974
28925W        W35525   4.945   2.750  16.448  0.1140 -0.0106 -0.3154
28926W        W35526  13.701   5.606   7.524 -0.0572  0.1798 -0.3289
28927W        W35527   8.265   7.749  30.084 -0.3259  0.1722  0.1119
28928W        W35528   2.972   0.179  26.834  0.0804  0.0152 -0.1718
28929W        W35529   2.919   4.318  31.283  0.1724  0.2796 -0.1183
28930W        W35530   4.482   0.001  28.905 -0.0487  0.0192 -0.1822
28931W        W35531   1.958   2.653   4.896 -0.4512 -0.1006 -0.0516
28932W        W35532  13.964   3.937   6.190  0.3697 -0.2180  0.2629
28933W        W35533  13.310   2.942   2.701  0.1054 -0.3141 -0.1358
28934W        W35534   9.901   6.516   2.921 -0.2130 -0.1745  0.0148
28935W        W35535   3.303   6.825  11.312 -0.0321  0.1863 -0.0680
28936W        W35536   3.506   2.245  13.668 -0.1003 -0.1945 -0.2046
28937W        W35537  22.270   5.355  15.024  0.1599 -0.0439 -0.4109
28938W        W35538   5.686   4.466  10.838 -0.0210 -0.2087  0.2297
28939W        W35539   5.904   5.478   6.268 -0.1781 -0.1912 -0.1429
28940W        W35540   2.138   6.757  27.373  0.2465 -0.1178  0.3611
28941W        W35541   3.988   7.765  24.082 -0.0821 -0.1932 -0.0430
28942W        W35542  24.978   3.128   5.877 -0.2366 -0.0948  0.2265
28943W        W35543   7.201   6.858  14.105  0.2812 -0.0417 -0.4295
28944W        W35544   4.350   2.832  25.903 -0.1424  0.1128 -0.0906
28945W        W35545   2.728   3.327   7.340  0.0384  0.0739  0.0359
28946W        W35546  17.114   1.219   1.105 -0.2025 -0.1056 -0.2489
28947W        W35547  15.721   5.825   4.923  0.4174  0.2661  0.0730
28948W        W35548   4.744   5.417  14.208  0.0160 -0.1245  0.2240
28949W        W35549   8.174   4.104  22.583 -0.0529  0.1265 -0.2158
28950W        W35550  11.484   6.692  26.972  0.1066 -0.2084  0.1550
28951W        W35551   4.136   0.716  13.084 -0.0557  0.0243 -0.1171
28952W        W35552   4.854   6.616   0.581  0.0164 -0.0191 -0.2872
28953W        W35553  23.965   0.009  29.399  0.2962  0.0858  0.0100
28954W        W35554   9.220   5.332  32.666  0.0990 -0.1012  0.1286
28955W        W35555   9.891   6.909  16.494 -0.2550  0.0751 -0.0065
28956W        W35556  25.007   2.216   7.710 -0.1650  0.4405 -0.1594
28957W        W35557  13.304   3.179  10.943  0.1372  0.1240 -0.0213
28958W        W35558   4.513   5.942  11.919 -0.1377  0.3218 -0.1206
28959W        W35559   8.133   5.293   5.136  0.3428 -0.0901  0.1316
28960W        W35560  14.716   5.500  21.460 -0.2604 -0.3475  0.4504
28961W        W35561  20.574   3.144   9.035  0.1376 -0.2129  0.0537
28962W        W35562  24.553   7.557  31.877  0.2485 -0.0859  0.0451
28963W        W35563   9.439   3.211  23.753  0.1358  0.2461  0.0939
28964W        W35564   2.384   0.271  11.399 -0.1438  0.1016  0.1867
28965W        W35565  16.053   5.826  23.413 -0.0862 -0.1831 -0.2089
28966W        W35566   4.706   1.465  11.779 -0.1532  0.1008  0.3309
28967W        W35567   7.232   7.011  30.969  0.1376 -0.1401 -0.2753
28968W        W35568  14.369   5.460   0.751 -0.0765  0.0376 -0.0937
28969W        W35569  17.498   6.726   7.915 -0.1139 -0.0451 -0.0318
28970W        W35570   7.416   2.229   0.714  0.4276  0.0244 -0.1487
28971W        W35571   9.051   1.507  28.320 -0.2267  0.1448  0.0006
28972W        W35572  12.862   4.638  22.355 -0.0019  0.1790  0.1086
28973W        W35573  13.024   5.865  30.126  0.0220 -0.1533 -0.1107
28974W        W35574  24.841   3.620  28.052  0.0252 -0.0634  0.1181
28975W        W35575   1.953   1.148   3.324  0.1229 -0.0741  0.2215
28976W        W35576  10.221   5.187  27.271 -0.2391  0.0641  0.4233
28977W        W35577   2.095   6.273   7.800 -0.1785  0.1263  0.0275
28978W        W35578  23.369   4.860  26.177  0.0604  0.1793  0.0229
28979W        W35579  23.277   4.567  18.548  0.1212  0.0810  0.0916
28980W        W35580  24.159   2.899   1.842 -0.0031  0.1343 -0.0284
28981W        W35581  22.112   4.104  30.258  0.1574  0.0945  0.2810
28982W        W35582  23.731   2.900  15.850  0.2087  0.2601  0.0263
28983W        W35583  17.741   3.838  10.372  0.0294  0.0093 -0.3400
28984W        W35584   9.959   6.404  30.258  0.2819 -0.1312  0.2446
28985W        W35585  17.407   3.140   0.003  0.0112 -0.2202 -0.2815
28986W        W35586  23.776   0.935   7.629  0.2675 -0.1627  0.3637
28987W        W35587  21.441   7.035   5.762 -0.1074  0.0066 -0.1038
28988W        W35588   5.556   6.267  28.829  0.1890 -0.1878  0.1654
28989W        W35589  21.087   3.186   0.254  0.1615 -0.0189  0.0843
28990W        W35590   5.492   1.307  29.790 -0.2714  0.0301  0.0418
28991W        W35591  20.163   0.577   7.242 -0.0767 -0.2389  0.1664
28992W        W35592   2.162   3.903  29.634  0.1422 -0.0095 -0.1152
28993W        W35593   5.849   6.808  10.332  0.0405 -0.1285  0.1752
28994W        W35594   0.406   7.740  19.285 -0.4108  0.0613 -0.0814
28995W        W35595   7.784   6.681  24.433  0.0458 -0.1656 -0.0473
28996W        W35596  11.389   0.620  29.397  0.0580 -0.2062  0.2256
28997W        W35597  18.878   5.664  22.718 -0.0712  0.2175  0.0468
28998W        W35598   5.861   0.595  25.136 -0.2873 -0.0300  0.1999
28999W        W35599   9.144   4.595  17.660  0.0840 -0.0073 -0.1547
29000W        W35600   1.858   3.360   6.431  0.1914  0.0329 -0.2464
29001W        W35601   9.369   3.270  27.562  0.3552 -0.0489 -0.2715
29002W        W35602  16.821   2.115  26.820 -0.0442  0.0044 -0.1796
29003W        W35603  22.234   5.420  28.362 -0.2602 -0.1594 -0.2536
29004W        W35604  23.193   7.074   1.546  0.3134 -0.0224  0.1946
29005W        W35605  23.965   3.373   5.003 -0.1345 -0.0877  0.3248
29006W        W35606  19.785   2.930  16.730  0.3432  0.1870  0.0150
29007W        W35607  20.248   4.040   6.317  0.0731  0.1275  0.2109
29008W        W35608   3.642   7.066  31.139  0.0279 -0.1335  0.0057
29009W        W35609   5.410   5.739  25.668 -0.0894  0.1845  0.3807
29010W        W35610  11.552   6.435   7.463 -0.0595  0.2954  0.4029
29011W        W35611  17.820   6.026  10.219  0.1083  0.2627  0.5772
29012W        W35612  12.390   6.337  25.491 -0.1195  0.1484 -0.0854
29013W        W35613   8.322   6.511  15.563 -0.0865 -0.1706 -0.0434
29014W        W35614  22.713   4.973   4.385 -0.1261 -0.0120 -0.1317
29015W        W35615   3.005   3.680   7.485 -0.0614 -0.4671 -0.2719
29016W        W35616  13.892   6.713  21.616  0.0996  0.1697 -0.3087
29017W        W35617   6.992   2.891   6.578 -0.4548  0.2518  0.1800
29018W        W35618  18.869   1.541  19.293 -0.0397  0.0095  0.0724
29019W        W35619  19.616   6.315   7.960 -0.3213 -0.2069  0.1187
29020W        W35620   8.193   7.205  26.533  0.1582  0.0125  0.1975
29021W        W35621  23.972   7.752  20.153 -0.0574 -0.2788 -0.2126
29022W        W35622   4.855   1.626   1.817 -0.1929 -0.4083  0.1658
29023W        W35623   9.288   2.050  17.878  0.2081 -0.0876 -0.0064
29024W        W35624  11.139   4.676  15.916  0.0295  0.1265  0.2238
29025W        W35625  10.803   3.021  10.722  0.3189 -0.1118 -0.3947
29026W        W35626  22.824   3.343   3.947 -0.0966 -0.1777 -0.0236
29027W        W35627  18.469   5.419  25.273 -0.2310  0.1362  0.1164
29028W        W35628   7.971   4.839   9.917 -0.2608 -0.0067  0.0281
29029W        W35629   1.875   3.984  29.199 -0.1340 -0.1500  0.0338
29030W        W35630  14.181   0.387  31.692  0.2261 -0.1231  0.0138
29031W        W35631  17.161   2.092   0.576 -0.3110 -0.1668 -0.3352
29032W        W35632   7.143   4.106   9.594 -0.0987 -0.0282  0.0826
29033W        W35633  23.103   5.891  28.755  0.0356 -0.0752  0.1337
29034W        W35634   4.903   6.186  31.410  0.1550  0.1026 -0.2746
29035W        W35635   4.950   0.354  25.003  0.1148  0.0989 -0.0730
29036W        W35636   6.205   2.889  31.372  0.0136  0.1132 -0.2268
29037W        W35637  19.270   5.486  27.755 -0.1350  0.0201  0.7524
29038W        W35638  15.579   6.210  22.335  0.0955  0.2849  0.2057
29039W        W35639  20.263   6.042  27.881 -0.2243  0.2807 -0.0276
29040W        W35640  11.427   4.100  10.759  0.0339 -0.1935 -0.0388
29041W        W35641  25.004   7.538  17.776 -0.0494 -0.1168  0.1864
29042W        W35642  22.828   5.815   7.075  0.1888  0.0739  0.3306
29043W        W35643   9.565   6.860  30.348  0.1018  0.0132  0.2081
29044W        W35644   5.353   2.420   3.278 -0.1076 -0.2578  0.1589
29045W        W35645  18.144   5.544  18.982  0.1633  0.2440  0.0745
29046W        W35646  11.163   3.507   7.480 -0.1749  0.4226  0.0953
29047W        W35647   0.161   6.234   6.595  0.1028 -0.0724  0.1253
29048W        W35648   8.384   3.545  30.749  0.0054 -0.0898 -0.0715
29049W        W35649   0.860   0.282   3.283  0.2899  0.2007 -0.2475
29050W        W35650  11.326   2.027  30.892 -0.0537  0.0680 -0.2178
29051W        W35651   8.989   4.471   3.244 -0.0820  0.2272 -0.1854
29052W        W35652   8.510   1.725   7.994 -0.0188  0.2499  0.2152
29053W        W35653  11.080   3.659  27.383  0.2897  0.0762 -0.0609
29054W        W35654   1.424   6.960  30.939 -0.0877 -0.1054  0.1686
29055W        W35655   1.337   3.614   6.267 -0.3249  0.0367  0.0666
29056W        W35656  21.063   5.954  17.909  0.0393  0.0277 -0.1399
29057W        W35657  10.968   3.427   9.236  0.0569  0.2067 -0.0071
29058W        W35658   7.620   6.206  27.895  0.0661  0.2630 -0.0979
29059W        W35659  16.276   6.236  32.474 -0.1866  0.0456  0.1112
29060W        W35660  22.988   7.175  26.815 -0.0109  0.1395 -0.0733
29061W        W35661  24.504   5.492  31.768  0.4038  0.0175  0.3155
29062W        W35662  11.724   7.193  27.534  0.0644 -0.0480 -0.0082
29063W        W35663  16.628   7.740  23.267 -0.0036 -0.1604 -0.2060
29064W        W35664  22.430   1.100  23.456 -0.2168  0.3494  0.0430
29065W        W35665   5.137   1.699   3.960 -0.1080  0.1648  0.0427
29066W        W35666   4.098   1.352  32.328  0.1036 -0.1663 -0.0227
29067W        W35667  23.803   6.188   1.909  0.3290 -0.3388 -0.2171
29068W        W35668   3.125   6.565   8.927 -0.0864  0.0082  0.0767
29069W        W35669   4.624   0.575  22.687 -0.2182  0.2001 -0.0605
29070W        W35670  22.907   1.668  30.072 -0.3046 -0.0618 -0.4346
29071W        W35671  17.771   7.395  23.923 -0.1180  0.0672 -0.4397
29072W        W35672  18.319   1.275   7.965 -0.1341 -0.1057 -0.0242
29073W        W35673  17.729   7.729   7.331  0.0282  0.1060  0.1299
29074W        W35674  19.354   1.844  32.274  0.1225 -0.0882  0.0700
29075W        W35675  19.540   3.924  21.411 -0.1040  0.0275  0.0517
29076W        W35676   9.683   0.915  27.025 -0.1090 -0.1379  0.1658
29077W        W35677  14.688   0.329  26.045  0.1878 -0.2069 -0.2166
29078W        W35678   7.497   6.668  15.966 -0.0788  0.2570 -0.3473
29079W        W35679  12.482   3.961   6.039 -0.0064 -0.0112  0.2414
29080W        W35680  24.875   6.576  28.857 -0.1603 -0.0068  0.0673
29081W        W35681  20.626   0.443  27.760  0.1668 -0.0907 -0.1420
29082W        W35682   2.811   4.188  11.703 -0.2581  0.0127  0.0250
29083W        W35683  24.106   3.592  19.595 -0.2877 -0.3378 -0.0161
29084W        W35684   4.475   5.587   8.658 -0.2171 -0.0962  0.0981
29085W        W35685  17.958   4.478   2.499  0.2193 -0.3544 -0.0783
29086W        W35686  13.974   4.658  12.924 -0.2835  0.0655  0.0768
29087W        W35687  22.845   7.180  20.612  0.1388  0.0348  0.2464
29088W        W35688  21.277   7.216  30.522 -0.1708 -0.0458  0.0721
29089W        W35689  21.124   6.804  31.845  0.1030  0.2528  0.0020
29090W        W35690  11.455   2.573   6.576 -0.0304 -0.1741 -0.1766
29091W        W35691  21.403   3.488  21.294  0.0632 -0.0372 -0.2136
29092W        W35692  24.693   5.908  11.137  0.0856 -0.0251  0.1133
29093W        W35693  16.409   3.008  23.675 -0.0903 -0.2290  0.1543
29094W        W35694  18.962   1.152   6.119 -0.2509 -0.1902  0.1901
29095W        W35695  22.236   2.265   5.914 -0.1432 -0.1001  0.0511
29096W        W35696  11.067   6.971   3.704 -0.1921  0.1423  0.1413
29097W        W35697  17.104   3.894  29.714  0.0819 -0.0869  0.0675
29098W        W35698  18.856   6.361  17.502  0.4513 -0.4323  0.3181
29099W        W35699   3.206   5.692  22.715 -0.1551 -0.2367 -0.0325
29100W        W35700   8.423   4.487  24.350 -0.1451 -0.0752 -0.1148
29101W        W35701  23.284   3.482   1.730  0.0415 -0.1423 -0.1832
29102W        W35702  21.999   6.148   1.639  0.3613 -0.0203  0.0654
29103W        W35703   0.488   4.515   3.116  0.0008 -0.0733  0.0320
29104W        W35704  17.407   7.802   1.185  0.1885 -0.2096  0.1686
29105W        W35705  21.924   3.098  15.348  0.0205 -0.0801 -0.2358
29106W        W35706   3.803   5.036  29.267  0.3832  0.3299 -0.1280
29107W        W35707   8.374   2.337  12.498 -0.0015  0.1215  0.0992
29108W        W35708  19.707   2.037   1.124 -0.0388 -0.1174  0.0476
29109W        W35709  14.122   0.185   0.116 -0.1859 -0.2601  0.2944
29110W        W35710  10.383   5.059   7.553 -0.0108 -0.1391  0.0504
29111W        W35711  14.584   3.217  26.683  0.0668 -0.3123  0.2469
29112W        W35712  17.418   3.881  26.963 -0.0703  0.0056  0.2338
29113W        W35713   2.009   4.688   1.737 -0.3669  0.0369  0.1525
29114W        W35714  15.647   4.601  11.830 -0.3031 -0.1345  0.0044
29115W        W35715  18.083   0.942  18.052 -0.1094  0.1839 -0.0627
29116W        W35716   9.035   0.372  12.810  0.2342 -0.1410 -0.1743
29117W        W35717  14.434   6.995   8.448 -0.1140  0.0204 -0.2802
29118W        W35718  15.621   0.832   9.321 -0.0383  0.3107 -0.0549
29119W        W35719  21.413   1.204  23.603  0.1959 -0.0659 -0.0839
29120W        W35720  13.590   3.595  31.199  0.1022  0.0596 -0.0254
29121W        W35721  21.705   5.918   4.975  0.1447 -0.1721  0.0344
29122W        W35722   6.624   5.625  30.371  0.0238 -0.1743  0.0865
29123W        W35723  21.588   4.019  24.136  0.0133 -0.0111 -0.0835
29124W        W35724   7.280   6.532  10.649 -0.0275 -0.0367 -0.1220
29125W        W35725  15.445   5.173  29.981  0.1533  0.1456  0.1418
29126W        W35726   6.973   3.965  12.696  0.0170 -0.3476 -0.1631
29127W        W35727   4.554   3.412  10.480  0.2254  0.0091  0.2437
29128W        W35728   4.424   3.524  30.776 -0.0691  0.2235  0.2303
29129W        W35729   9.901   5.044   1.698  0.1270  0.2558  0.0323
29130W        W35730  19.174   4.507  18.554 -0.2045  0.1680 -0.0531
29131W        W35731   0.477   0.040  24.678  0.0609  0.2083 -0.1851
29132W        W35732   4.836   3.230  27.650  0.1195  0.3366  0.1886
29133W        W35733  13.175   1.175  23.159 -0.1060  0.2554  0.0170
29134W        W35734  24.604   5.761  32.191 -0.2277  0.2114  0.2917
29135W        W35735  20.938   0.078   4.286 -0.1406  0.2996  0.1688
29136W        W35736  12.341   7.794  14.457  0.2115 -0.0922  0.1963
29137W        W35737  22.282   5.905   8.053 -0.0176  0.2918 -0.2854
29138W        W35738   0.292   1.863   4.343 -0.0820 -0.1504 -0.2247
29139W        W35739  23.351   2.125  15.204 -0.0275 -0.2552  0.1784
29140W        W35740   6.249   5.016  11.974 -0.1653  0.1178 -0.0198
29141W        W35741  24.699   4.836  18.285 -0.1732  0.4447  0.0213
29142W        W35742  13.845   7.388  23.111 -0.0590 -0.1325 -0.0487
29143W        W35743   2.039   4.378   6.491  0.1083  0.1029 -0.1680
29144W        W35744  12.882   6.974  27.959  0.0588  0.1873  0.0026
29145W        W35745  13.340   7.104   9.745 -0.0339  0.3804  0.0960
29146W        W35746  16.896   6.984   0.015  0.3175 -0.2382  0.4074
29147W        W35747  22.073   6.332   7.316 -0.1908  0.0591  0.1316
29148W        W35748   4.964   4.886   4.756 -0.0264 -0.0454  0.1192
29149W        W35749   3.022   0.411  12.693 -0.1992 -0.0640  0.0352
29150W        W35750  14.265   2.635  22.318  0.2346  0.0361 -0.0936
29151W        W35751  14.752   7.207  11.348 -0.3629  0.1812 -0.1231
29152W        W35752  15.422   2.915  20.086 -0.1854 -0.1605  0.1927
29153W        W35753   9.068   5.944  12.857  0.0267 -0.0867 -0.4245
29154W        W35754  17.548   6.639  17.610 -0.2806 -0.2126 -0.2635
29155W        W35755  23.309   1.520  23.574 -0.2156 -0.1240 -0.0461
29156W        W35756  17.646   1.752  25.663  0.0568  0.1624 -0.1546
29157W        W35757  12.829   6.982  26.322 -0.1671  0.2773  0.1363
29158W        W35758  17.971   3.621   1.465  0.0997  0.1147  0.0240
29159W        W35759  21.090   0.686  15.112  0.3544 -0.0622  0.1949
29160W        W35760  11.541   5.640   5.329  0.0598  0.0631 -0.1132
29161W        W35761   6.810   1.040  16.167  0.0270  0.0190 -0.2425
29162W        W35762   3.653   2.995  12.922 -0.1649 -0.0423  0.0385
29163W        W35763   4.751   2.944  32.547  0.0839 -0.1342 -0.0733
29164W        W35764  11.829   5.450  26.517 -0.2151 -0.1883 -0.2023
29165W        W35765  13.542   2.576  31.062 -0.2004 -0.1127  0.1280
29166W        W35766  18.952   4.793   7.556  0.2324 -0.0002  0.4078
29167W        W35767   5.093   0.034  31.444 -0.2219 -0.1011 -0.1361
29168W        W35768  12.039   7.816   3.594 -0.1376  0.0513 -0.1192
29169W        W35769  22.768   0.175  10.078 -0.1327  0.2593 -0.0134
29170W        W35770  17.306   6.946   2.001  0.0515  0.1632  0.2316
29171W        W35771  19.854   7.389  18.263  0.0222 -0.0870 -0.0276
29172W        W35772  15.485   0.580  23.890 -0.2769 -0.0366  0.1500
29173W        W35773   6.242   1.089   3.588 -0.2127  0.1362  0.1195
29174W        W35774  23.298   3.240  16.903  0.2976  0.1041 -0.0656
29175W        W35775   8.632   0.460  15.508 -0.0004  0.1718 -0.1964
29176W        W35776  14.962   2.219  26.906 -0.0497 -0.2414 -0.0741
29177W        W35777  24.284   1.949   1.578 -0.3377  0.1316  0.2390
29178W        W35778  17.663   7.178   4.821 -0.0827  0.0195 -0.1206
29179W        W35779  23.213   4.095  20.302  0.1296 -0.2650  0.3727
29180W        W35780  24.546   1.979  25.687 -0.0258  0.0577 -0.0646
29181W        W35781  22.003   4.502   4.850 -0.4952 -0.2182  0.2167
29182W        W35782  10.998   0.734  25.704  0.1367  0.1943  0.1761
29183W        W35783   0.065   2.474   1.495 -0.1994  0.2543 -0.0951
29184W        W35784  15.026   4.743  30.722 -0.1659 -0.4078 -0.2473
29185W        W35785  15.095   3.114   0.166  0.0685 -0.0115  0.2400
29186W        W35786  13.431   4.755  14.349  0.1905  0.2093  0.0884
29187W        W35787  12.135   2.397  12.262 -0.1405  0.0457 -0.2414
29188W        W35788  22.433   7.753   4.084 -0.1460 -0.0925 -0.0842
29189W        W35789   0.259   6.364  25.613 -0.0883 -0.3954  0.0273
29190W        W35790  19.448   2.648   9.573 -0.1114  0.0880 -0.3242
29191W        W35791   3.705   0.329   3.656  0.1209  0.0812  0.1055
29192W        W35792   3.460   3.671  29.467 -0.3250 -0.0743  0.2358
29193W        W35793  11.487   3.721   4.859  0.3134 -0.2073 -0.3778
29194W        W35794  21.868   0.676  21.070  0.3440 -0.1363  0.0084
29195W        W35795  20.538   0.016   7.010  0.0633  0.1284  0.1418
29196W        W35796  21.964   4.920   2.762 -0.1207 -0.0130 -0.2382
29197W        W35797   5.737   0.116   4.762  0.3301 -0.1474 -0.0749
29198W        W35798  15.320   0.663  22.902  0.1011  0.1109  0.0275
29199W        W35799  14.891   7.700  30.620 -0.1165  0.1007 -0.0389
29200W        W35800   7.529   3.338   3.716 -0.2312  0.3229 -0.2116
29201W        W35801   4.395   5.148  12.560 -0.2582  0.0435 -0.0434
29202W        W35802  13.573   4.261  24.439  0.2118  0.0766  0.0113
29203W        W35803   5.785   3.084  26.969 -0.1733 -0.3775  0.1002
29204W        W35804   7.954   0.849  30.909 -0.1411  0.5607 -0.1488
29205W        W35805  15.287   4.817  11.139 -0.0965  0.1310  0.2637
29206W        W35806   3.967   4.289  25.411 -0.1557 -0.0943 -0.1356
29207W        W35807  21.936   4.085   6.125  0.2251 -0.0783 -0.1147
29208W        W35808   2.428   4.051   6.209  0.2768 -0.2343  0.3714
29209W        W35809  15.750   0.213  11.538 -0.1268  0.2901 -0.1149
29210W        W35810  18.879   3.310   9.671  0.2603  0.1722 -0.1376
29211W        W35811   3.458   5.233   9.921 -0.2387  0.0388  0.1520
29212W        W35812  20.160   3.482   5.359 -0.3196 -0.1359  0.2331
29213W        W35813  18.538   5.697   2.018 -0.1636  0.1826  0.1641
29214W        W35814   0.679   0.929  27.272 -0.1242  0.2991 -0.2411
29215W        W35815   2.338   1.136  25.582 -0.0236 -0.0968  0.0600
29216W        W35816  11.435   3.584   9.512 -0.0048 -0.1157 -0.1668
29217W        W35817  17.608   6.668  28.012 -0.1118 -0.0578 -0.1546
29218W        W35818  22.135   0.615  24.769 -0.1500  0.1450 -0.2233
29219W        W35819  20.551   4.604  17.238 -0.2552  0.0087  0.1064
29220W        W35820   8.356   2.150  24.576 -0.1571  0.0125 -0.0852
29221W        W35821  20.267   7.131  25.392 -0.0597 -0.0004 -0.0721
29222W        W35822   1.983   0.230  24.311 -0.0632  0.0147  0.2929
29223W        W35823  24.915   5.355  26.229 -0.0489  0.3050  0.1948
29224W        W35824   6.868   2.472  17.332  0.0585  0.2139 -0.1891
29225W        W35825  17.110   2.525  25.023  0.0002  0.0882  0.1694
29226W        W35826  10.068   0.685   8.103  0.0813 -0.1196 -0.0167
29227W        W35827  21.278   0.622   9.401 -0.0445  0.1872  0.0816
29228W        W35828  18.750   7.458  31.143  0.2946  0.4207  0.0121
29229W        W35829  18.264   5.693  16.133  0.2297 -0.1220 -0.1818
29230W        W35830   1.433   3.338   2.039 -0.1834  0.1271  0.2091
29231W        W35831  19.086   0.993   2.162 -0.2991 -0.0211 -0.1430
29232W        W35832  11.542   0.231  24.592 -0.0169 -0.1651 -0.0096
29233W        W35833  11.589   1.233  16.505 -0.1544 -0.0263 -0.1073
29234W        W35834  16.299   3.923  28.950  0.0408  0.0480  0.0058
29235W        W35835   7.931   1.554  27.820  0.0758 -0.2251  0.0332
29236W        W35836  20.560   6.617  21.280 -0.0405 -0.3040 -0.1414
29237W        W35837  19.172   0.682  28.527  0.0793 -0.0242  0.1539
29238W        W35838   9.773   3.290  31.099  0.0676  0.1947  0.0510
29239W        W35839  22.258   1.616   5.465  0.1049 -0.1108  0.1087
29240W        W35840  15.811   6.803   0.040 -0.1533  0.3549 -0.0346
29241W        W35841  19.332   1.743  22.272  0.1240  0.0594 -0.0664
29242W        W35842   9.270   5.071  11.149 -0.0707  0.1252  0.0784
29243W        W35843  11.171   0.181   7.724  0.0359  0.1238 -0.0489
29244W        W35844   2.323   6.822  19.311 -0.0457 -0.0970  0.0011
29245W        W35845  16.819   6.378   5.603  0.0019  0.1045 -0.1734
29246W        W35846  14.610   3.851   9.766  0.1468 -0.4509 -0.0417
29247W        W35847  23.275   5.314  30.696  0.3656  0.0080  0.1682
29248W        W35848  13.567   3.006  24.536  0.1554 -0.0804  0.3119
29249W        W35849   3.302   4.601  32.134 -0.1477  0.0377 -0.3388
29250W        W35850  22.966   2.702  21.674 -0.2177  0.0600 -0.1889
29251W        W35851  15.603   6.718   9.848  0.1063  0.0548 -0.1446
29252W        W35852   9.765   2.036  27.604  0.1502 -0.2211 -0.4169
29253W        W35853  14.554   1.261  28.990  0.4634  0.0850  0.1591
29254W        W35854   1.455   3.763  12.112  0.0880 -0.1302 -0.3143
29255W        W35855   3.190   4.904  13.817 -0.0806  0.0341 -0.2563
29256W        W35856   3.461   1.211  28.229  0.1795 -0.0108  0.2761
29257W        W35857  24.204   0.984  27.062  0.1900 -0.0182  0.0255
29258W        W35858  10.190   7.471  10.542 -0.1083  0.2215 -0.0996
29259W        W35859  18.785   0.076  31.762  0.0458 -0.1860 -0.1801
29260W        W35860   5.780   2.597   8.077 -0.1403 -0.1907  0.0406
29261W        W35861  16.307   6.661  26.111  0.1785 -0.0335  0.1287
29262W        W35862  12.903   0.757  24.097 -0.0164 -0.2178  0.0929
29263W        W35863  18.373   2.687  16.139  0.2047  0.1773  0.0641
29264W        W35864  14.357   1.657  28.064 -0.1953  0.2712 -0.3478
29265W        W35865   2.801   0.016   9.442  0.3643  0.1822 -0.0018
29266W        W35866  24.899   3.605   3.030  0.0511 -0.4739 -0.0882
29267W        W35867  16.305   3.950  18.528 -0.2516  0.1224 -0.2371
29268W        W35868   0.603   5.069   1.929  0.0415 -0.2142 -0.0206
29269W        W35869  16.080   3.447  23.551  0.0712  0.0520  0.1678
29270W        W35870  20.925   2.261  27.218  0.1055  0.1949 -0.1211
29271W        W35871  14.154   7.738   7.096  0.2064  0.0745  0.1695
29272W        W35872   6.434   3.001   4.325  0.1188  0.2239  0.2319
29273W        W35873   7.771   6.262  29.644 -0.0893 -0.2575  0.0294
29274W        W35874  18.153   3.728   6.857  0.3031 -0.4552  0.0807
29275W        W35875  13.187   3.000  30.771 -0.0457  0.3224  0.0756
29276W        W35876  11.787   7.214   6.695  0.3412 -0.2350 -0.1874
29277W        W35877  11.042   5.135   8.776  0.0071 -0.0259  0.0237
29278W        W35878   7.842   3.162   6.523 -0.1010  0.1918  0.1885
29279W        W35879   8.133   1.092  16.940  0.1820 -0.2758 -0.0158
29280W        W35880  11.495   0.729  25.409  0.2512  0.1698 -0.4538
29281W        W35881  16.229   0.515  19.427 -0.1025 -0.1370  0.0621
29282W        W35882   4.521   0.335  27.422 -0.1631  0.0921  0.2687
29283W        W35883   7.123   5.868   6.211 -0.3083 -0.0161  0.1464
29284W        W35884   0.849   7.061  24.421  0.0614  0.0843  0.0226
29285W        W35885  21.716   6.940  26.827 -0.0377  0.0369 -0.0209
29286W        W35886  17.761   5.873  21.881  0.2123 -0.3175 -0.1451
29287W        W35887   5.780   7.358   8.110 -0.3109  0.2003  0.0677
29288W        W35888  20.569   7.320  15.654  0.0719  0.1284  0.0100
29289W        W35889  20.658   4.010  24.893 -0.0373  0.1044 -0.1973
29290W        W35890   9.610   5.417  25.500  0.1218 -0.1643 -0.4405
29291W        W35891   6.772   6.081  16.012 -0.0946 -0.3347 -0.0067
29292W        W35892  18.201   4.592  28.737  0.1247  0.0032  0.0374
29293W        W35893  14.584   0.892  29.889  0.1115 -0.0088 -0.0770
29294W        W35894  17.066   3.971   2.253 -0.3060 -0.1541 -0.1868
29295W        W35895   1.712   6.162  27.305  0.2721  0.0574 -0.0779
29296W        W35896  20.073   0.345   7.680  0.0426 -0.0760  0.4070
29297W        W35897  17.666   2.243  28.509  0.0453 -0.0759  0.0310
29298W        W35898  22.449   5.478  25.593 -0.1231  0.0611  0.1338
29299W        W35899  17.757   0.716  11.838  0.0989 -0.1798 -0.0914
29300W        W35900   9.562   5.264   2.037  0.0394  0.1033  0.0601
29301W        W35901  17.443   7.779  23.935  0.0897 -0.1439 -0.1939
29302W        W35902   9.438   6.099  26.222  0.0950  0.0067  0.0936
29303W        W35903   2.810   5.226  21.808  0.1225 -0.1515 -0.0360
29304W        W35904  11.662   5.337   2.657  0.1336 -0.0214 -0.2734
29305W        W35905   7.570   4.728   5.447  0.1574 -0.1072  0.2328
29306W        W35906   2.304   5.399  13.021  0.0466 -0.0364  0.2425
29307W        W35907  13.153   4.898  15.282 -0.0343 -0.1489 -0.1134
29308W        W35908   8.003   0.877  12.567  0.0750 -0.2197 -0.1558
29309W        W35909   2.812   6.138   0.251 -0.0484 -0.0488 -0.0211
29310W        W35910  24.488   4.062   8.833 -0.3538  0.0968 -0.0915
29311W        W35911   2.640   6.780   8.514  0.3901  0.1291  0.1341
29312W        W35912   8.617   5.741  11.047  0.0429 -0.0458  0.2705
29313W        W35913   3.925   7.823   0.074  0.0048  0.2293 -0.0982
29314W        W35914   5.636   2.835   4.056  0.1759  0.0017  0.2146
29315W        W35915   4.306   2.491  11.338 -0.1902 -0.0283 -0.0781
29316W        W35916  20.497   1.483  17.807 -0.0500  0.1232  0.1356
29317W        W35917   9.883   1.566  31.610  0.3233  0.0875 -0.0008
29318W        W35918  14.972   1.257  29.949  0.1183  0.1077 -0.0106
29319W        W35919  23.315   4.664  22.030 -0.0962  0.1403  0.0284
29320W        W35920  23.411   0.276   7.026  0.1767 -0.0349  0.2480
29321W        W35921  19.088   2.257  31.942  0.0040 -0.0782  0.1244
29322W        W35922   5.483   0.125   8.885 -0.0268 -0.2035 -0.1491
29323W        W35923  20.065   4.405   8.270  0.0851  0.0625  0.1134
29324W        W35924  24.730   7.193  27.288  0.0710  0.0727 -0.1159
29325W        W35925  23.502   3.891  26.160  0.0940  0.0486 -0.3375
29326W        W35926  20.885   4.725  21.510 -0.0658 -0.2037 -0.0263
29327W        W35927   9.355   5.167  27.290 -0.2044  0.0922 -0.0505
29328W        W35928  21.316   4.933   8.571 -0.1277  0.1105 -0.3189
29329W        W35929  19.265   1.084   9.738  0.4843  0.0572 -0.0490
29330W        W35930  18.747   3.549   7.336  0.1104 -0.2755  0.2132
29331W        W35931   4.151   3.765  25.467  0.2265  0.1229 -0.0934
29332W        W35932   9.358   6.774   5.275  0.0743  0.0105  0.1428
29333W        W35933   4.060   0.450  27.912 -0.0553 -0.2696 -0.0209
29334W        W35934  15.078   5.318   3.533  0.1447 -0.1254  0.1304
29335W        W35935   3.899   5.077  22.965 -0.0678  0.3179  0.0681
29336W        W35936  22.988   4.168   0.791  0.1964  0.2233 -0.2981
29337W        W35937  22.800   0.864  22.766 -0.0931 -0.0597  0.3692
29338W        W35938  22.463   6.357  26.799  0.2376  0.3327  0.0360
29339W        W35939  10.775   0.104   9.716  0.2595 -0.0134 -0.2402
29340W        W35940   0.112   0.109  20.846 -0.0331 -0.1517 -0.1265
29341W        W35941  16.111   6.689  11.515  0.0844 -0.2609  0.2461
29342W        W35942  23.499   6.619  32.528 -0.3114 -0.0916 -0.2166
29343W        W35943  12.134   4.241   5.440 -0.1391  0.1341  0.0123
29344W        W35944  15.424   7.057   6.376  0.1381  0.1009  0.0001
29345W        W35945  21.762   1.871   1.498 -0.0415 -0.1145 -0.3804
29346W        W35946  20.752   2.322   1.220  0.0539 -0.2694 -0.1272
29347W        W35947   5.969   7.183  25.130  0.0747  0.1774  0.0540
29348W        W35948  22.155   1.123   6.151 -0.1353  0.2470 -0.0408
29349W        W35949   7.976   6.242  15.765 -0.0617  0.2045  0.2792
29350W        W35950  18.223   5.351  24.349 -0.0175  0.2291  0.1636
29351W        W35951  20.270   5.117   7.101 -0.1303 -0.0467 -0.2615
29352W        W35952   7.031   0.826  12.731  0.1273  0.2406  0.0589
29353W        W35953  12.680   7.390  30.727 -0.1399  0.2796 -0.0105
29354W        W35954   2.847   5.377   7.894 -0.0791  0.0837 -0.1321
29355W        W35955   6.243   7.606   0.203  0.3266  0.2888 -0.1045
29356W        W35956   6.815   3.391  10.875 -0.2658 -0.1910  0.1669
29357W        W35957  15.086   2.039  27.805  0.0167 -0.3678 -0.0507
29358W        W35958   2.581   5.007   7.715  0.2769  0.0132  0.2336
29359W        W35959   1.409   1.471  31.595 -0.0618  0.0983  0.1002
29360W        W35960  12.266   1.683  13.939 -0.4340  0.3070 -0.1425
29361W        W35961  22.808   5.413  23.183 -0.2307 -0.1039  0.1630
29362W        W35962  22.787   4.678  28.849 -0.0604 -0.0501  0.3909
29363W        W35963   9.199   1.905  16.034 -0.0082  0.0210  0.0333
29364W        W35964  23.263   0.491   4.461  0.1395  0.0947 -0.0303
29365W        W35965  17.868   5.658  30.163 -0.1775  0.0595 -0.3297
29366W        W35966   9.927   5.409  10.482 -0.1555 -0.0059  0.1590
29367W        W35967  13.361   3.328  28.499 -0.0979 -0.1139 -0.0842
29368W        W35968  19.885   4.014  32.705  0.1262 -0.0033  0.0205
29369W        W35969  12.758   4.072  31.563 -0.3664 -0.0225 -0.2260
29370W        W35970  18.680   3.314  24.085 -0.0283 -0.0113 -0.0525
29371W        W35971   6.709   1.018  10.752 -0.4622 -0.0389 -0.2994
29372W        W35972   0.796   7.653   6.041 -0.3140 -0.0078 -0.0966
29373W        W35973  22.120   5.589  23.870 -0.0750 -0.1681  0.2009
29374W        W35974  19.325   2.709   8.343  0.0298 -0.0022 -0.0154
29375W        W35975   9.907   4.471   4.922 -0.2885  0.4744 -0.0406
29376W        W35976   5.684   1.874   7.360  0.1261 -0.0907  0.0314
29377W        W35977   3.842   4.212  26.249  0.1697 -0.4012  0.0769
29378W        W35978   1.382   2.824   8.411  0.0739 -0.4646  0.2468
29379W        W35979   4.137   1.862  32.295 -0.2191 -0.0909  0.0883
29380W        W35980  17.072   3.804   8.436 -0.1027 -0.1455  0.2291
29381W        W35981   0.614   7.662  27.983 -0.2080  0.0198  0.0709
29382W        W35982  19.208   0.015  22.573  0.0813 -0.2601 -0.0430
29383W        W35983   7.098   1.667  28.224 -0.2066  0.1418  0.3093
29384W        W35984   8.751   7.249  25.028 -0.0246  0.1711  0.2236
29385W        W35985  10.663   7.187  14.810  0.0839  0.2582  0.0876
29386W        W35986  13.829   4.095   4.686  0.2088 -0.3683 -0.2015
29387W        W35987   8.866   2.067  27.106 -0.1878 -0.1375  0.2171
29388W        W35988   2.594   3.718  11.743 -0.0592 -0.0708 -0.0957
29389W        W35989  10.754   3.823  18.627 -0.2957 -0.1082  0.1188
29390W        W35990  11.491   4.720  31.732 -0.2343 -0.1971 -0.1509
29391W        W35991   0.547   1.260  10.221 -0.5827 -0.1178  0.2572
29392W        W35992  24.663   4.368  19.945 -0.1250 -0.1459  0.0775
29393W        W35993   1.343   6.389   9.897  0.1752  0.2303  0.1758
29394W        W35994   2.007   4.343  31.472 -0.0283 -0.1651  0.1602
29395W        W35995   6.851   6.620  16.814  0.1698 -0.0219  0.0649
29396W        W35996  17.786   3.072  23.820 -0.0484 -0.3180 -0.1493
29397W        W35997  13.151   6.460   7.862 -0.0796 -0.2542 -0.1042
29398W        W35998  22.199   5.918  16.118  0.0368  0.0142  0.1369
29399W        W35999  23.868   4.943   6.611 -0.0737 -0.1253 -0.2115
29400W        W36000   8.166   5.001  16.651  0.0908 -0.1044  0.1973
29401W        W36001  12.166   3.645  14.286 -0.2150 -0.0587 -0.1116
29402W        W36002  22.364   2.797  23.350 -0.1803  0.0866 -0.1363
29403W        W36003  19.419   6.449   9.821 -0.1295 -0.3738  0.3046
29404W        W36004  22.241   6.850  15.841  0.0777 -0.0935 -0.3964
29405W        W36005   7.237   2.698   6.952 -0.1714 -0.0134 -0.2143
29406W        W36006  16.337   7.592   4.444 -0.1365  0.0349  0.0050
29407W        W36007   2.061   7.528  27.028  0.1487  0.0557  0.0610
29408W        W36008   7.348   3.463   1.673 -0.0283  0.1537  0.2324
29409W        W36009   9.289   5.405  31.476 -0.2117  0.0452 -0.1837
29410W        W36010  18.645   7.721  20.372 -0.1490  0.1691  0.2924
29411W        W36011  22.346   0.675  20.023 -0.2413  0.0083 -0.1058
29412W        W36012  16.991   5.428   0.478  0.0797 -0.1156 -0.1585
29413W        W36013  22.884   3.892  31.609 -0.3460  0.0500  0.1091
29414W        W36014   6.923   1.103  32.438 -0.1103  0.2571  0.3279
29415W        W36015  23.448   7.723   9.281  0.0749  0.0485  0.0706
29416W        W36016  15.515   3.916  27.647  0.2480  0.0776 -0.2920
29417W        W36017  21.464   5.825   4.163 -0.0439 -0.0822 -0.0004
29418W        W36018   8.847   4.052   0.425  0.0077 -0.0196  0.1499
29419W        W36019   8.712   1.687  16.743 -0.1183  0.0284 -0.1774
29420W        W36020  15.465   7.504   7.600  0.0151 -0.1494 -0.5303
29421W        W36021  23.174   5.038  17.239 -0.0303 -0.1518  0.0136
29422W        W36022  16.392   2.170   7.327 -0.0375 -0.2899  0.3368
29423W        W36023   8.973   7.227  16.553 -0.1897 -0.2121 -0.1246
29424W        W36024  16.073   7.479   9.999 -0.1233  0.1857 -0.0051
29425W        W36025  15.294   6.234   9.176  0.1431  0.3420  0.4240
29426W        W36026   3.443   0.373  32.681  0.1811  0.1099 -0.0493
29427W        W36027   0.071   2.819   5.019 -0.0164  0.1275 -0.1062
29428W        W36028  17.692   1.845  20.648  0.0858 -0.0240 -0.0009
29429W        W36029   4.099   1.298   2.609  0.0641  0.3415  0.0375
29430W        W36030   9.364   1.549   5.030 -0.0796 -0.2051 -0.1117
29431W        W36031  16.689   5.341  18.747  0.0665 -0.1212 -0.1644
29432W        W36032  13.115   2.499   2.579  0.0685  0.1256  0.0768
29433W        W36033   0.123   3.568  32.587 -0.3107 -0.0667  0.0951
29434W        W36034   5.830   3.351  11.751  0.2472 -0.1830  0.0215
29435W        W36035  11.219   3.856   0.531  0.2198  0.1809 -0.2268
29436W        W36036   3.656   6.518  30.696 -0.1542 -0.0330  0.2327
29437W        W36037   6.464   1.993  27.850  0.1145  0.1640  0.2512
29438W        W36038   9.712   7.659   9.020 -0.2043  0.0418  0.0776
29439W        W36039   4.827   2.774  11.992  0.0285 -0.1429  0.4030
29440W        W36040  11.478   5.605  14.321  0.1523  0.0360 -0.0349
29441W        W36041  22.798   5.653   1.309 -0.1542 -0.0964 -0.2226
29442W        W36042  14.065   3.647  23.885  0.0451 -0.0198 -0.2066
29443W        W36043  11.827   5.505   8.251  0.0430 -0.0901 -0.0819
29444W        W36044  20.087   0.174  10.290  0.1956  0.1436 -0.0993
29445W        W36045   6.682   1.979  26.835  0.1479 -0.0516 -0.0484
29446W        W36046  14.551   6.226   1.073 -0.1211 -0.3114  0.2649
29447W        W36047   5.475   6.401  25.541 -0.4703  0.3362  0.0615
29448W        W36048  18.600   4.937  29.587 -0.0564  0.0328  0.3504
29449W        W36049   5.011   4.306   1.964  0.1452 -0.0561 -0.2588
29450W        W36050   0.212   7.742   6.809  0.3045  0.0315  0.1980
29451W        W36051  13.950   7.261   1.698  0.3365 -0.1299 -0.2117
29452W        W36052  19.386   7.726  10.398 -0.1697  0.0622 -0.1457
29453W        W36053  22.823   3.703  19.567 -0.0344 -0.5416 -0.0245
29454W        W36054   8.919   0.032   8.867 -0.0820  0.0353 -0.0560
29455W        W36055  20.701   3.523   5.379  0.0334  0.2056  0.2891
29456W        W36056   7.514   0.827   6.837 -0.2820 -0.0898  0.0513
29457W        W36057   7.952   1.399   6.269  0.4530  0.0202  0.1670
29458W        W36058  10.311   7.478  15.736  0.2713  0.1327 -0.2006
29459W        W36059  13.401   5.506  28.639  0.0271 -0.0628 -0.0170
29460W        W36060  19.255   5.238   7.739 -0.0855 -0.1238 -0.3159
29461W        W36061   8.536   0.573   6.972 -0.0086  0.3100  0.0238
29462W        W36062  22.852   3.020  10.366  0.1441  0.1250 -0.0560
29463W        W36063   6.286   4.637  28.979  0.1065 -0.0488 -0.1367
29464W        W36064  19.612   2.243  18.643 -0.0102 -0.1441  0.1218
29465W        W36065  14.222   2.420   4.074 -0.3925  0.0359  0.2952
29466W        W36066  24.083   7.057  25.717 -0.2231 -0.3146  0.0262
29467W        W36067   5.601   5.092  15.864  0.1440  0.0981  0.1651
29468W        W36068  18.153   4.793  22.441 -0.2590  0.0300  0.1367
29469W        W36069  19.676   0.121  17.243  0.0375  0.0835 -0.2440
29470W        W36070  22.557   4.375   1.495  0.0488 -0.1197  0.0577
29471W        W36071   7.391   1.384  24.099 -0.0888  0.3384  0.0127
29472W        W36072   9.779   1.694  10.265 -0.0556 -0.0205 -0.3256
29473W        W36073  16.249   5.394  23.242 -0.2452  0.1673  0.1780
29474W        W36074  14.286   4.488   8.203  0.0834  0.0879  0.0089
29475W        W36075   2.607   5.046  11.592  0.1707 -0.0473  0.1303
29476W        W36076   2.221   0.496   7.992  0.3645 -0.1246 -0.1019
29477W        W36077   6.514   7.638  24.957 -0.0261  0.0742 -0.3203
29478W        W36078  15.626   4.139  30.384 -0.3301 -0.1627 -0.0681
29479W        W36079   0.011   0.947  18.447  0.0750 -0.1353 -0.1408
29480W        W36080   2.482   0.756  27.700  0.1168  0.1307  0.3935
29481W        W36081   8.393   3.244   3.575  0.1807  0.0082 -0.0321
29482W        W36082  13.310   3.693  32.033 -0.0019  0.0429  0.1705
29483W        W36083   9.890   2.155   4.391  0.0882  0.1632 -0.3597
29484W        W36084  15.524   2.862  10.167  0.0600 -0.0446 -0.1450
29485W        W36085  23.011   4.989  16.473  0.0007 -0.2463  0.1204
29486W        W36086  10.151   7.312  22.415 -0.0081  0.1777  0.0641
29487W        W36087   4.091   5.033   2.177 -0.1925 -0.0506  0.1367
29488W        W36088   6.197   3.238   7.188 -0.2241  0.0680 -0.0269
29489W        W36089  22.412   5.394   0.443 -0.2069  0.1199 -0.0246
29490W        W36090  10.836   5.888   2.302  0.3451 -0.0033  0.2710
29491W        W36091  19.678   6.111   6.047  0.0892  0.0943  0.0118
29492W        W36092  13.933   4.842   3.644  0.1777 -0.0421  0.2459
29493W        W36093   6.389   4.914  16.240  0.1143 -0.1511  0.2167
29494W        W36094   0.275   2.946  20.250 -0.1581 -0.0210  0.0689
29495W        W36095   8.017   7.724  29.247  0.1771 -0.2787  0.1332
29496W        W36096  14.499   3.939  26.028 -0.1483 -0.3671  0.0130
29497W        W36097  20.980   7.568  22.537 -0.0231  0.3039 -0.1906
29498W        W36098   2.363   3.864  29.042 -0.3035  0.1095 -0.1228
29499W        W36099   5.035   1.118  25.529  0.1360  0.0054 -0.1325
29500W        W36100  11.674   3.010  11.121 -0.0658  0.3977 -0.3606
29501W        W36101  21.392   0.200   7.684  0.1985  0.0968 -0.0305
29502W        W36102  19.601   5.794  16.256  0.0013 -0.0468 -0.1555
29503W        W36103  20.488   1.442   5.135  0.2473 -0.0328  0.1007
29504W        W36104  10.617   1.783   3.463  0.1594 -0.3851 -0.0749
29505W        W36105   9.236   1.145  14.476 -0.1877  0.0345 -0.3614
29506W        W36106  15.319   0.777  11.624  0.0332 -0.2778 -0.3725
29507W        W36107   4.766   6.002  15.129  0.4298  0.1246  0.2632
29508W        W36108   7.992   4.711  14.188  0.0769  0.3849 -0.0980
29509W        W36109   7.196   3.422  25.373 -0.2177 -0.1316  0.4537
29510W        W36110   3.607   6.368  10.622 -0.0025  0.2675  0.1280
29511W        W36111  23.030   2.272   0.525  0.0830  0.1583  0.2839
29512W        W36112  20.735   5.127  25.687 -0.2310 -0.0950 -0.1504
29513W        W36113   4.848   2.000   4.360 -0.0151 -0.1102 -0.1093
29514W        W36114   2.529   6.312  32.167 -0.1077  0.1775 -0.1439
29515W        W36115  17.047   5.830  30.466 -0.0751  0.1123 -0.0261
29516W        W36116   4.762   4.991  13.323  0.0344  0.3407 -0.0333
29517W        W36117  10.854   4.948  14.105  0.0554  0.0226  0.0691
29518W        W36118   9.446   0.605   7.228 -0.1900  0.1975  0.0559
29519W        W36119   7.157   4.007   4.562 -0.0424  0.0733  0.0556
29520W        W36120  18.845   7.373   6.114  0.0672  0.0709  0.1038
29521W        W36121  20.091   0.617   2.127 -0.0015 -0.1841  0.1204
29522W        W36122   2.281   1.006  19.434 -0.1231  0.1397  0.3930
29523W        W36123  20.672   6.868  30.434  0.0476  0.1757  0.0397
29524W        W36124  10.911   1.527  14.594  0.1379  0.1290  0.0601
29525W        W36125   0.835   5.700   6.823 -0.0997  0.0528 -0.1029
29526W        W36126  21.109   6.494  30.412  0.0740  0.0944  0.0164
29527W        W36127   1.947   0.477  11.631  0.2276 -0.4525 -0.3307
29528W        W36128   6.616   5.612  15.774  0.0789  0.0165  0.2373
29529W        W36129  10.183   2.217  10.716 -0.1787 -0.0807  0.0617
29530W        W36130  23.029   4.636  29.307 -0.1071  0.1987  0.1449
29531W        W36131  23.351   7.589   1.494  0.3207  0.1620 -0.0050
29532W        W36132  16.441   6.043  31.626  0.0107  0.1924  0.0163
29533W        W36133  22.712   0.573   4.608  0.2940  0.0551 -0.0654
29534W        W36134  23.724   1.207   5.468  0.2068 -0.0525 -0.0450
29535W        W36135  10.258   2.598   7.717  0.0685  0.0095  0.3253
29536W        W36136   9.789   1.151  29.326  0.1999  0.0222 -0.2074
29537W        W36137   2.149   0.984  26.867  0.0036  0.3672  0.2639
29538W        W36138  17.676   6.323  27.318  0.2755  0.1021  0.1319
29539W        W36139   2.951   4.489  30.212 -0.0147 -0.0420  0.0598
29540W        W36140  17.068   0.430  30.033 -0.1144 -0.0338 -0.2964
29541W        W36141  15.851   6.028  20.301  0.0871 -0.2029 -0.0944
29542W        W36142  18.208   1.259  18.365 -0.2243  0.0038  0.1974
29543W        W36143  20.604   7.567  32.181  0.1877 -0.0657 -0.1289
29544W        W36144  24.914   6.345   3.554 -0.0496 -0.0868  0.1245
29545W        W36145   4.493   1.625   2.193 -0.2823 -0.0620  0.1700
29546W        W36146  21.915   5.894   6.948 -0.2264 -0.2151 -0.1721
29547W        W36147   7.989   6.036  32.434 -0.0432 -0.0881  0.2033
29548W        W36148   1.499   2.351  23.206 -0.2533 -0.1720 -0.2794
29549W        W36149  16.569   3.908  31.474 -0.2651 -0.0261 -0.2228
29550W        W36150   3.416   2.356   4.405 -0.2893  0.1717 -0.1095
29551W        W36151   0.757   4.330   4.652 -0.0310  0.4076  0.0273
29552W        W36152  15.743   3.289   2.073  0.3998  0.2381  0.0436
29553W        W36153  15.233   0.807  22.104  0.1516 -0.1948  0.0037
29554W        W36154  13.901   5.446  24.295 -0.0608 -0.0441 -0.0250
29555W        W36155   5.450   0.872  13.959 -0.2446 -0.2310 -0.0512
29556W        W36156  12.989   4.914   0.478  0.1162  0.3907 -0.0975
29557W        W36157   1.979   3.442   2.662 -0.0515  0.1472 -0.0018
29558W        W36158  10.641   1.301   8.952 -0.0944  0.0588  0.1608
29559W        W36159  15.254   1.612  10.759  0.2568 -0.1392 -0.1608
29560W        W36160  22.340   3.295  30.027  0.1021 -0.2848 -0.1179
29561W        W36161  16.202   2.903   0.876 -0.0717  0.1011 -0.0599
29562W        W36162  19.102   4.806   3.181  0.1181  0.2561  0.1146
29563W        W36163  10.834   6.073  22.875 -0.1033 -0.0731 -0.3500
29564W        W36164  18.587   6.387  28.889  0.1813  0.0628 -0.0323
29565W        W36165  24.578   0.659  26.946 -0.1251 -0.0723 -0.1481
29566W        W36166   0.716   6.192  16.429  0.0064 -0.1514  0.0426
29567W        W36167  16.272   0.562  29.607 -0.3920 -0.1070 -0.3504
29568W        W36168  12.526   0.766  24.715 -0.0139  0.0066 -0.0846
29569W        W36169  14.045   2.036   6.185 -0.2322 -0.1515 -0.0445
29570W        W36170  16.831   0.686   3.207 -0.3221 -0.1741  0.1124
29571W        W36171  13.534   6.655  24.975  0.2820 -0.1318  0.0013
29572W        W36172   1.735   6.470  32.279 -0.0006 -0.1643 -0.2841
29573W        W36173  19.531   4.795   4.492 -0.1610 -0.0302  0.0424
29574W        W36174   6.580   5.806  27.054  0.1247  0.0860  0.1145
29575W        W36175  24.724   0.379   7.954  0.0924 -0.0802 -0.0869
29576W        W36176  23.383   4.784   7.284 -0.1893 -0.0226  0.1405
29577W        W36177   3.159   7.812   9.137 -0.0465  0.0773  0.2024
29578W        W36178   7.853   6.228  14.770 -0.1554  0.2239 -0.3151
29579W        W36179  11.069   6.519  22.781  0.2730 -0.3817  0.0024
29580W        W36180  24.066   3.964  31.035 -0.1992 -0.2413  0.0182
29581W        W36181   1.763   3.030  29.518  0.1969 -0.2013  0.0776
29582W        W36182   7.570   5.251  23.646 -0.1326  0.0474  0.1127
29583W        W36183  24.523   1.858  24.685 -0.1402 -0.0104  0.2085
29584W        W36184   9.102   4.254  28.988  0.0735 -0.5103 -0.1324
29585W        W36185   6.567   6.627  27.597  0.0053 -0.2177  0.1839
29586W        W36186   2.781   3.649  12.203  0.2587 -0.2030  0.1371
29587W        W36187  14.206   2.494  22.863  0.1461 -0.1412 -0.3195
29588W        W36188  10.836   4.626   6.300  0.0920  0.2304  0.2004
29589W        W36189  19.301   4.357  26.464 -0.1163 -0.2250 -0.0775
29590W        W36190   3.150   6.832   0.001  0.0801  0.0411 -0.1613
29591W        W36191  13.475   5.088   1.255 -0.3178  0.0271  0.1171
29592W        W36192   1.686   5.644   3.098 -0.2110 -0.0723  0.2078
29593W        W36193  19.629   0.874  21.186 -0.0686  0.3057 -0.0647
29594W        W36194   0.071   2.144  27.147  0.0615  0.1660  0.1507
29595W        W36195   4.426   2.931   9.457  0.0058 -0.0029  0.1844
29596W        W36196   2.682   1.065  22.336 -0.1684  0.0111 -0.2756
29597W        W36197  20.153   1.238   3.941  0.0203 -0.1718  0.1754
29598W        W36198   3.749   2.521   1.302 -0.0609 -0.1917 -0.3533
29599W        W36199   5.115   3.807  32.169 -0.0201 -0.2432 -0.2251
29600W        W36200   4.158   4.096  24.651 -0.1607  0.2133  0.2146
29601W        W36201   6.744   1.785   8.278  0.0174 -0.0919  0.1129
29602W        W36202  22.667   1.257  26.702  0.2206  0.2113 -0.0079
29603W        W36203   2.870   6.387  26.561 -0.1495  0.3517 -0.0483
29604W        W36204  20.699   2.318  23.826 -0.1733 -0.1094  0.1396
29605W        W36205   0.350   1.524   8.884  0.0500 -0.1847 -0.1646
29606W        W36206  20.625   4.494   4.526 -0.0875  0.1361 -0.1244
29607W        W36207   2.434   4.565  31.235 -0.0883 -0.1986  0.3576
29608W        W36208  16.086   1.806   5.818 -0.0257 -0.0882 -0.1805
29609W        W36209  21.037   3.794   6.804 -0.3232  0.0119  0.1091
29610W        W36210  22.222   5.250  23.106 -0.1981 -0.2713  0.0072
29611W        W36211  19.794   0.595  32.596 -0.3903  0.0154 -0.5030
29612W        W36212   2.804   5.438   4.306  0.1103 -0.0819  0.0189
29613W        W36213   5.597   3.014  22.869  0.2048 -0.1701 -0.3281
29614W        W36214  10.381   0.454   9.206 -0.3601  0.0454  0.0244
29615W        W36215   7.704   2.486   4.328 -0.0578  0.2911 -0.0528
29616W        W36216  22.347   0.764  23.792  0.0896  0.2119  0.0058
29617W        W36217   0.739   2.842  27.408 -0.1305 -0.0300  0.0602
29618W        W36218  21.891   3.675  23.897  0.2342  0.1569  0.3111
29619W        W36219   9.040   7.694  14.773 -0.0082  0.4785  0.1514
29620W        W36220  19.560   1.310   5.509 -0.2711  0.3947 -0.1108
29621W        W36221  19.683   3.052   2.594  0.0359 -0.0328 -0.0391
29622W        W36222  19.065   0.007  29.325 -0.1812 -0.1302 -0.2449
29623W        W36223  16.061   5.808  27.394  0.1915 -0.2606  0.2826
29624W        W36224  15.675   2.917   3.043  0.1173  0.1474  0.0837
29625W        W36225  10.177   0.063  26.614 -0.0199  0.1895  0.0784
29626W        W36226  12.533   6.734  21.345  0.3638 -0.0019  0.3650
29627W        W36227   6.247   0.959  26.909 -0.3110 -0.3560  0.1804
29628W        W36228   5.663   6.698  11.581 -0.0330  0.3015  0.2786
29629W        W36229   2.823   2.288   8.912  0.0813 -0.0727 -0.2443
29630W        W36230  24.450   1.324  20.940 -0.1212 -0.0102  0.1466
29631W        W36231   2.554   2.407  23.947 -0.2091  0.0163  0.0470
29632W        W36232  11.824   1.563   3.585 -0.0782  0.1733 -0.1222
29633W        W36233  19.643   7.336  23.317 -0.1954  0.0079 -0.0263
29634W        W36234   7.798   5.922   1.079 -0.2389  0.2491 -0.0589
29635W        W36235  17.723   6.719   9.894  0.2142 -0.1839  0.1318
29636W        W36236   5.576   1.254  21.762  0.1572 -0.4491  0.2393
29637W        W36237   3.438   3.922   0.363  0.3495  0.1350 -0.1462
29638W        W36238   7.689   2.370  17.565 -0.0489  0.2688 -0.0534
29639W        W36239  19.932   3.535   7.452  0.2180 -0.2265  0.1376
29640W        W36240  15.623   4.791  25.907  0.0646 -0.0131  0.1047
29641W        W36241   6.637   2.147  29.759 -0.1411  0.1209  0.2364
29642W        W36242   5.590   5.926   8.914 -0.0651 -0.0843 -0.0821
29643W        W36243  24.947   6.802  24.625 -0.2067  0.1146  0.1490
29644W        W36244   9.575   4.399  12.244  0.2592  0.0280  0.1410
29645W        W36245   9.699   0.202  13.286 -0.1636  0.2211  0.1582
29646W        W36246   1.587   1.541  20.945 -0.3228  0.2959 -0.1691
29647W        W36247  18.254   7.701   4.055  0.3337  0.0979 -0.0080
29648W        W36248  13.346   5.795   1.108 -0.0432  0.0463  0.1749
29649W        W36249  14.348   2.526  27.843 -0.1283  0.0602  0.1006
29650W        W36250   0.723   3.065   2.883  0.0908  0.0898  0.0047
29651W        W36251   9.158   5.098   4.616  0.1576 -0.1648 -0.2885
29652W        W36252  15.536   3.421  27.637  0.0429 -0.2391 -0.2953
29653W        W36253   8.636   1.655  28.100 -0.4695 -0.1615 -0.1880
29654W        W36254   0.952   3.126   1.961 -0.0852 -0.2827  0.1961
29655W        W36255  13.271   5.508  22.179 -0.3712  0.1558 -0.0908
29656W        W36256  21.461   3.907   9.545  0.1756  0.1929 -0.0241
29657W        W36257   9.763   0.344  10.352  0.2190  0.1530  0.1253
29658W        W36258  10.161   1.482   8.586  0.1403 -0.3068  0.1832
29659W        W36259  10.972   4.905  26.444  0.3345  0.0369  0.1801
29660W        W36260  20.624   4.163  18.115 -0.1153 -0.0712  0.2230
29661W        W36261  22.092   6.110  31.387 -0.0591  0.5884  0.0405
29662W        W36262  20.124   6.050  20.837 -0.0661  0.0525 -0.2440
29663W        W36263  20.800   6.441   1.195  0.3838  0.1478  0.1298
29664W        W36264  10.854   6.161   7.393  0.1332  0.0444 -0.1549
29665W        W36265  17.861   3.668  16.327  0.0534 -0.1226 -0.2432
29666W        W36266  17.275   2.184   8.270  0.0652 -0.0595 -0.0276
29667W        W36267  22.372   0.693   8.685  0.2411  0.2003 -0.1084
29668W        W36268  20.939   2.159   7.876 -0.0779 -0.0093  0.0777
29669W        W36269  23.318   0.344   6.409 -0.3474 -0.1895 -0.0852
29670W        W36270   9.797   3.695  26.724 -0.1890  0.2354  0.1715
29671W        W36271   2.374   4.952  22.635 -0.0647  0.2782 -0.0827
29672W        W36272  18.056   3.293  29.280  0.2969 -0.0954 -0.0559
29673W        W36273   4.663   4.648   7.906  0.0574  0.0599  0.3102
29674W        W36274  14.673   2.414   2.084 -0.1582  0.0086  0.0760
29675W        W36275  14.958   1.135  12.397 -0.2015  0.0609 -0.0627
29676W        W36276   4.229   0.127  11.814  0.0177 -0.0202  0.1274
29677W        W36277   4.033   3.434  25.113 -0.4849  0.2063  0.1474
29678W        W36278   3.867   2.784   8.042 -0.1846 -0.1729  0.2199
29679W        W36279  11.888   3.586   6.715 -0.0403 -0.0425  0.1718
29680W        W36280   1.087   3.901   2.459 -0.1529  0.0002 -0.1414
29681W        W36281   7.169   7.601   9.172  0.1880 -0.1120  0.0825
29682W        W36282   4.380   7.355   3.964 -0.1856  0.0609 -0.1868
29683W        W36283   7.065   5.762   7.543  0.0069 -0.0344 -0.0470
29684W        W36284  11.824   4.755   1.155 -0.0800  0.2784 -0.0998
29685W        W36285  19.858   1.638  18.736  0.0648 -0.1771  0.0233
29686W        W36286   0.735   4.774  21.628  0.1645  0.2494  0.0916
29687W        W36287  20.373   0.592  24.249 -0.1905 -0.0255 -0.0093
29688W        W36288  17.504   5.630  22.754 -0.0984  0.0705  0.2519
29689W        W36289  11.778   7.567   3.262  0.1395 -0.1859  0.1577
29690W        W36290  17.260   3.403  29.863 -0.1445  0.0881  0.2471
29691W        W36291  16.742   2.764  30.856  0.0488 -0.1185 -0.0993
29692W        W36292  16.977   0.166  11.953  0.0237  0.0169  0.0240
29693W        W36293  21.389   0.859  17.262 -0.0627  0.1677 -0.0379
29694W        W36294  18.322   4.085  26.464 -0.0727 -0.3684 -0.0113
29695W        W36295   6.224   2.045  24.665 -0.0456  0.0931 -0.1233
29696W        W36296   3.202   6.683  23.762 -0.1892 -0.0875  0.1142
29697W        W36297  18.154   6.194  22.080  0.2121  0.1297  0.2361
29698W        W36298  17.470   1.367  20.636 -0.2539  0.1065  0.1582
29699W        W36299   1.028   4.758   0.330 -0.3232  0.0432 -0.3136
29700W        W36300  17.626   6.195  11.411 -0.1822 -0.2311 -0.3803
29701W        W36301  24.540   6.730  19.246 -0.0996  0.1092  0.2990
29702W        W36302  24.759   2.918  29.196  0.3533 -0.1053  0.1357
29703W        W36303  11.456   0.718  26.684  0.0987 -0.1796  0.0184
29704W        W36304   1.047   4.322  11.018 -0.0785 -0.3819  0.1594
29705W        W36305   5.174   4.806  15.101  0.1060  0.1850  0.0200
29706W        W36306   0.286   6.969  24.362 -0.1153  0.2768 -0.0522
29707W        W36307   9.427   0.644  12.574 -0.1748  0.1397 -0.2519
29708W        W36308   0.249   5.577  17.065  0.1056  0.0275  0.1653
29709W        W36309  21.134   5.778   3.801  0.0573  0.0009  0.1865
29710W        W36310  21.482   1.000  21.006  0.3536  0.2398  0.1743
29711W        W36311  11.209   6.762   6.326  0.4235 -0.0816 -0.0042
29712W        W36312   4.223   1.305   8.956 -0.2449  0.1819 -0.0226
29713W        W36313   3.518   0.445  22.216  0.1770  0.0532 -0.1534
29714W        W36314   7.941   5.025  30.878 -0.2254  0.2404  0.1617
29715W        W36315  17.029   4.357  16.143 -0.0864 -0.2052 -0.1892
29716W        W36316  19.478   3.638  19.877 -0.1668  0.3377  0.1267
29717W        W36317   5.397   4.367  28.833  0.2002  0.0590 -0.0430
29718W        W36318  22.654   2.195   7.889  0.0631  0.0178  0.4304
29719W        W36319  13.258   4.423  26.491  0.0969 -0.0374  0.0800
29720W        W36320   8.976   2.883   8.885  0.1103  0.0664  0.2121
29721W        W36321   2.373   0.449  29.055 -0.1212 -0.1498 -0.2075
29722W        W36322  14.966   3.644  22.235  0.0620  0.3995 -0.1381
29723W        W36323  22.321   1.280  21.618  0.2619  0.2549 -0.1401
29724W        W36324  24.412   6.700  25.456  0.1651  0.0398  0.0096
29725W        W36325  16.301   2.804  20.321 -0.0595 -0.1134 -0.2871
29726W        W36326  18.522   6.253   0.088  0.5231  0.2061  0.1559
29727W        W36327   6.947   1.516  10.799 -0.1790  0.1638 -0.0549
29728W        W36328   1.353   6.169   9.017 -0.4180 -0.0464  0.0543
29729W        W36329   6.054   2.204  32.135  0.3967  0.1166 -0.1069
29730W        W36330   9.755   7.411   6.223 -0.0529  0.0257 -0.0081
29731W        W36331  17.739   0.990  30.660 -0.2238  0.0610  0.3444
29732W        W36332   5.263   6.981   9.623 -0.1443 -0.0365 -0.0791
29733W        W36333  13.972   0.166   3.106  0.1232 -0.3658 -0.0533
29734W        W36334  19.462   4.507  16.890  0.2186  0.0680 -0.1913
29735W        W36335  12.664   6.723  15.021  0.1860  0.0761  0.0111
29736W        W36336  19.821   1.449   0.538 -0.0005  0.0057 -0.0751
29737W        W36337  19.889   3.477  20.741  0.0014  0.2454 -0.0475
29738W        W36338  21.799   1.683  18.420 -0.0671  0.0186 -0.1418
29739W        W36339   2.766   4.125  24.847 -0.1672 -0.1938  0.0861
29740W        W36340  20.565   7.766  21.614 -0.2950 -0.0150 -0.0995
29741W        W36341  20.257   3.742  22.808  0.0173 -0.0643 -0.2241
29742W        W36342  23.508   6.147   3.876 -0.1336 -0.2101 -0.1972
29743W        W36343  22.328   0.233  14.693  0.2395  0.0767  0.2297
29744W        W36344   8.369   7.231  25.310 -0.0022 -0.1622 -0.2659
29745W        W36345  21.461   6.460  19.832  0.2072  0.1726  0.0725
29746W        W36346  16.615   5.312  10.200  0.0244 -0.2622 -0.1270
29747W        W36347  21.753   2.524  29.061 -0.1037  0.1740  0.0145
29748W        W36348   6.055   4.397  30.757  0.1934 -0.3834 -0.0581
29749W        W36349  23.827   2.276  18.282 -0.1529 -0.1403 -0.0789
29750W        W36350  22.116   2.221  21.663  0.0377 -0.0354  0.0495
29751W        W36351  22.703   4.869  26.745  0.2351 -0.1301  0.0604
29752W        W36352  16.353   6.521   9.518  0.0535 -0.1578  0.0552
29753W        W36353   4.158   3.306   2.006  0.2255 -0.0186  0.0803
29754W        W36354   2.166   4.533   5.532  0.1646  0.0213 -0.4144
29755W        W36355  24.182   1.333  21.410  0.3488 -0.3411 -0.2389
29756W        W36356  19.463   7.401   8.904 -0.1789 -0.0397 -0.1505
29757W        W36357   7.300   0.832  14.821 -0.0222 -0.3867 -0.1158
29758W        W36358   3.886   5.171  10.991 -0.4389  0.1135  0.0901
29759W        W36359   8.319   3.429   2.686 -0.4002 -0.3043 -0.0946
29760W        W36360  18.942   0.886  28.156 -0.0453  0.3073  0.2229
29761W        W36361  15.714   6.425  25.137 -0.2457  0.1890 -0.0439
29762W        W36362  17.600   6.393   3.774  0.0504 -0.0309 -0.0820
29763W        W36363   7.159   6.692  14.640  0.1287 -0.0766  0.0976
29764W        W36364  14.670   0.806  24.075 -0.2997 -0.1442 -0.0677
29765W        W36365  15.728   0.272   9.235  0.1674  0.2322 -0.1718
29766W        W36366   3.278   3.107   5.822  0.0904  0.1200  0.1946
29767W        W36367  12.731   7.778   1.220 -0.1510  0.0667  0.1022
29768W        W36368   3.745   0.719   0.232 -0.0993 -0.0644  0.0847
29769W        W36369   4.856   1.812   9.218 -0.2463  0.0418  0.0410
29770W        W36370  21.956   4.988  22.258  0.0592 -0.0208  0.1422
29771W        W36371  19.037   2.697  19.463  0.1378  0.3095 -0.1026
29772W        W36372   3.995   0.755   3.674 -0.0405  0.1458  0.1753
29773W        W36373  17.790   7.253  22.119  0.2192 -0.2638 -0.0598
29774W        W36374   3.270   5.473  12.660 -0.1387  0.1149 -0.1557
29775W        W36375  25.020   2.660  25.229  0.0977  0.2907 -0.0585
29776W        W36376  16.869   4.680  22.921 -0.0187  0.3639  0.0939
29777W        W36377  18.548   5.064  25.701 -0.1263 -0.0169  0.1581
29778W        W36378  21.579   5.193  18.056  0.2322  0.1877 -0.0172
29779W        W36379   8.870   1.965  26.621 -0.2545  0.2037  0.1235
29780W        W36380  24.788   7.095  23.305 -0.2930 -0.0331  0.0855
29781W        W36381   8.934   1.088  17.394  0.0445 -0.0600  0.0172
29782W        W36382  15.120   7.052  28.358 -0.0379  0.2620 -0.0868
29783W        W36383  10.888   7.655   2.759  0.1511  0.0063 -0.1692
29784W        W36384  16.749   6.325  31.263 -0.0994  0.2944  0.0065
29785W        W36385  14.562   0.846  10.373 -0.0864 -0.0450 -0.0586
29786W        W36386   8.251   2.105   3.214  0.0559 -0.0951  0.1659
29787W        W36387  22.740   3.442  27.200  0.2290 -0.1707 -0.2323
29788W        W36388  16.179   5.027   6.882  0.1935  0.0211 -0.0727
29789W        W36389  10.266   4.273  30.243  0.1285 -0.1610 -0.0221
29790W        W36390  15.635   2.211  20.898  0.0414  0.1005 -0.0880
29791W        W36391  25.040   4.424   6.627 -0.1088  0.3880 -0.0306
29792W        W36392  23.487   6.849   2.393  0.0589  0.0933 -0.0417
29793W        W36393  12.139   2.180   0.823 -0.0624  0.1088 -0.1066
29794W        W36394   6.155   4.848   6.892 -0.0875 -0.0546 -0.2944
29795W        W36395  20.179   5.990   6.119 -0.0714 -0.2160  0.0964
29796W        W36396  23.625   6.832  26.700 -0.2473  0.1795 -0.0809
29797W        W36397  16.480   0.501  19.970  0.1108  0.4136  0.0787
29798W        W36398   6.963   4.836   0.246 -0.1441 -0.2233  0.0197
29799W        W36399   1.626   2.761   6.667  0.0570  0.1641 -0.0473
29800W        W36400   4.771   1.707  27.242 -0.1749 -0.1730 -0.0816
29801W        W36401   1.548   3.626   4.616 -0.0209  0.1465  0.0526
29802W        W36402  11.357   0.374  25.052  0.0546 -0.0026 -0.0610
29803W        W36403  24.260   2.265  20.047 -0.0658  0.3464  0.1250
29804W        W36404   2.513   0.299   0.798  0.1964 -0.2495  0.0827
29805W        W36405  12.840   2.239   4.208  0.1204  0.1266 -0.2764
29806W        W36406  11.365   7.656   8.893  0.5374 -0.1752 -0.3030
29807W        W36407  22.465   0.038  17.345  0.0484  0.3247  0.2197
29808W        W36408  23.428   0.790  31.970 -0.0845  0.2201 -0.0598
29809W        W36409   8.660   3.291  29.805 -0.0508  0.0119  0.1018
29810W        W36410  13.454   6.768   3.637 -0.1777  0.0318 -0.0792
29811W        W36411  24.763   2.909  22.815  0.0481 -0.1503 -0.1274
29812W        W36412  13.439   7.779  27.154 -0.0671 -0.1035 -0.0789
29813W        W36413   3.741   3.630   5.228  0.0648 -0.1902  0.3596
29814W        W36414   4.211   2.510  21.695 -0.2300 -0.0787  0.0613
29815W        W36415  19.214   4.526  30.567 -0.0187 -0.1578  0.0840
29816W        W36416   4.354   6.855   6.149 -0.3680 -0.0433 -0.1201
29817W        W36417  23.572   1.711  19.676 -0.0551 -0.0971 -0.1704
29818W        W36418  15.435   6.693   7.299  0.2541  0.4513 -0.3548
29819W        W36419   4.090   6.978  31.427 -0.0309  0.4071 -0.1382
29820W        W36420   0.180   1.559  10.198 -0.1761 -0.0276  0.1501
29821W        W36421  21.663   0.257  21.246 -0.0932 -0.3761  0.0213
29822W        W36422  16.578   2.729  32.348  0.1652  0.0394  0.3031
29823W        W36423  19.564   4.481  20.746  0.1232  0.2463 -0.0999
29824W        W36424  18.028   6.805  32.181 -0.2767  0.0051  0.3758
29825W        W36425   0.790   2.990   6.229 -0.0138 -0.0966 -0.1809
29826W        W36426   9.510   3.814   8.485 -0.0100 -0.2268 -0.1083
29827W        W36427  20.769   6.772  21.694 -0.0646 -0.2719 -0.0734
29828W        W36428  10.157   7.668  26.072 -0.1454 -0.1608 -0.0234
29829W        W36429  19.544   1.135  17.348 -0.0102  0.1261  0.2009
29830W        W36430  21.768   2.371   2.776 -0.0499 -0.3794 -0.0445
29831W        W36431  17.794   4.355  10.096  0.0131 -0.0336  0.1399
29832W        W36432  24.365   0.534   0.876  0.0366  0.0797 -0.2372
29833W        W36433  20.026   5.623  19.156  0.1861 -0.0632  0.1129
29834W        W36434  20.031   6.833  30.780 -0.1354  0.0802  0.3272
29835W        W36435   9.823   0.725  17.996  0.0773 -0.1179  0.0744
29836W        W36436  15.926   4.964   5.492 -0.1588  0.1031  0.1439
29837W        W36437  22.477   2.170  26.900 -0.1163 -0.2838  0.2450
29838W        W36438  13.570   6.825  25.558  0.1837  0.2470 -0.1887
29839W        W36439   8.098   5.989  24.022 -0.2140  0.1188  0.1531
29840W        W36440   2.067   2.475  20.015 -0.0098  0.1721 -0.1946
29841W        W36441  14.507   1.221  22.760 -0.2565 -0.1842 -0.2477
29842W        W36442   0.473   3.778  25.404  0.0180  0.3845 -0.2279
29843W        W36443   2.126   1.492  29.048 -0.0199  0.1576  0.2339
29844W        W36444  18.177   0.717  21.985 -0.1584  0.1615 -0.1265
29845W        W36445  23.825   5.696   4.279 -0.1469 -0.2745 -0.1334
29846W        W36446  24.908   0.001  30.313 -0.5255 -0.4241  0.1383
29847W        W36447   9.924   4.670  13.319  0.1315  0.0263 -0.2306
29848W        W36448  20.993   1.581  17.782 -0.0929  0.0198  0.1364
29849W        W36449  20.350   0.674  26.813  0.1024  0.0361  0.1556
29850W        W36450  24.668   2.804  16.386 -0.1911 -0.2167 -0.0263
29851W        W36451   8.381   7.505  23.119 -0.1011  0.0951 -0.1375
29852W        W36452  15.199   6.484   3.320  0.3100 -0.3578  0.1650
29853W        W36453  14.874   5.656  26.849 -0.0901  0.1680  0.1237
29854W        W36454  22.282   0.810  19.071 -0.0260 -0.4983  0.1559
29855W        W36455   1.099   7.793  10.894  0.2530 -0.2284  0.3314
29856W        W36456  20.450   3.900  19.858 -0.0424  0.4429 -0.0728
29857W        W36457   9.066   5.456  18.600  0.0663 -0.0134  0.0568
29858W        W36458  13.484   7.633  31.312  0.2047  0.1877  0.5034
29859W        W36459   6.866   4.784   9.224  0.0551  0.1311  0.0282
29860W        W36460  12.894   3.417  11.274  0.1050 -0.1968  0.0995
29861W        W36461  10.611   7.066  26.557 -0.0068  0.1794 -0.3546
29862W        W36462   7.157   0.114  15.916 -0.0775  0.0216  0.2480
29863W        W36463   8.317   6.298   9.650 -0.1930 -0.1172  0.2975
29864W        W36464   0.111   3.512   8.541  0.0240  0.3468 -0.1429
29865W        W36465   0.067   2.504   3.718 -0.0479 -0.2061 -0.1734
29866W        W36466   2.334   2.466   2.971  0.0692 -0.0886  0.3355
29867W        W36467   2.774   3.459  13.162  0.1197 -0.2059  0.1440
29868W        W36468  23.110   4.616  21.496 -0.0034 -0.2544 -0.2703
29869W        W36469   1.221   0.164  21.469 -0.1804 -0.2439 -0.0662
29870W        W36470   7.053   5.296  14.346  0.0730 -0.2243  0.0226
29871W        W36471  10.898   0.947  31.640  0.0448 -0.0828  0.4270
29872W        W36472  21.244   0.364  22.310 -0.1069  0.0593 -0.0159
29873W        W36473   9.083   6.384  27.469 -0.1415 -0.0408 -0.4798
29874W        W36474   2.478   5.923  26.823 -0.1082  0.0549 -0.2909
29875W        W36475   2.163   0.937  10.378  0.0956  0.1763 -0.3393
29876W        W36476  22.024   6.439   0.548 -0.0780 -0.1610 -0.0349
29877W        W36477  15.797   6.004   1.645  0.0568 -0.1181 -0.1301
29878W        W36478  17.416   7.707   0.272  0.1319  0.0355  0.1512
29879W        W36479  16.580   5.983   0.852 -0.2167  0.1649  0.1809
29880W        W36480   0.906   4.671   7.023 -0.0826 -0.0494 -0.0691
29881W        W36481  20.911   0.575  30.751 -0.1656 -0.4663  0.2274
29882W        W36482   5.922   2.070   2.004 -0.0544  0.2618  0.0355
29883W        W36483   0.638   3.728   0.517  0.0552  0.0921  0.4484
29884W        W36484  16.923   7.739  28.506 -0.1106  0.1252 -0.0155
29885W        W36485  17.674   4.961  17.198  0.0497 -0.3695 -0.0266
29886W        W36486  12.520   7.602   4.543  0.3686  0.3832  0.2683
29887W        W36487   3.709   0.771  25.033  0.1355 -0.1493 -0.0233
29888W        W36488   7.832   7.336  15.756  0.0204  0.3382 -0.0984
29889W        W36489   8.593   2.987   7.054  0.0998  0.1977 -0.0396
29890W        W36490  24.775   0.212  18.302  0.1766  0.0247 -0.1244
29891W        W36491   3.575   7.401  11.536 -0.3777 -0.3960 -0.0657
29892W        W36492   6.876   4.222   9.062 -0.0372  0.0277  0.0914
29893W        W36493  14.772   5.520  11.508 -0.4716 -0.1514 -0.1192
29894W        W36494  19.146   0.858  21.746 -0.1191 -0.2789  0.3226
29895W        W36495  19.758   2.979  32.182 -0.0183  0.1832 -0.0942
29896W        W36496   9.759   1.119  24.859  0.3386  0.2604 -0.0208
29897W        W36497  13.648   1.846  28.872  0.1710 -0.2366 -0.0536
29898W        W36498  16.509   5.501   3.462 -0.0030 -0.0924  0.0691
29899W        W36499  13.148   3.458  12.403 -0.1972  0.1617  0.0573
29900W        W36500  20.814   6.060   8.679 -0.0582 -0.0010 -0.2960
29901W        W36501  16.761   7.235  11.282 -0.0114 -0.0366  0.2191
29902W        W36502   7.371   5.378  16.239  0.1964 -0.0920 -0.2084
29903W        W36503   6.695   2.361  13.040 -0.2152  0.0067 -0.1850
29904W        W36504  13.566   6.246   0.879 -0.2651 -0.0938  0.2486
29905W        W36505  10.453   2.284  25.733 -0.0656  0.0841 -0.0631
29906W        W36506  13.843   1.753  30.809  0.0407  0.0723  0.0436
29907W        W36507   6.386   1.689   7.195  0.2317  0.3177  0.1045
29908W        W36508   2.256   5.288   9.620 -0.2365  0.1661  0.1538
29909W        W36509  15.006   5.994  12.736 -0.3510 -0.0968 -0.1445
29910W        W36510  23.340   3.927  17.076 -0.0266  0.0942 -0.1356
29911W        W36511   7.028   1.259  17.707  0.0452 -0.3264  0.0405
29912W        W36512   0.197   5.265   0.232  0.1352  0.2625  0.1191
29913W        W36513  23.259   3.688  26.826  0.0395 -0.2111  0.2961
29914W        W36514   4.008   6.256   1.192  0.0286 -0.0984  0.1155
29915W        W36515   8.613   4.001  28.900 -0.0379  0.0419  0.0286
29916W        W36516  21.598   1.369   0.465  0.0445 -0.2425 -0.0996
29917W        W36517  20.813   2.445   0.141  0.2461  0.1133  0.1465
29918W        W36518   2.384   5.454   7.701  0.0808 -0.0386  0.1597
29919W        W36519   0.747   3.406   5.295  0.0341  0.2951 -0.2417
29920W        W36520  11.592   4.074   6.330 -0.1213 -0.2338 -0.0620
29921W        W36521   0.790   1.967  21.995  0.1311  0.1567  0.0242
29922W        W36522  21.996   7.812   0.153  0.1120 -0.0398  0.1163
29923W        W36523  12.220   6.648   8.892  0.2529  0.2387  0.0495
29924W        W36524   0.355   7.521  27.421 -0.2762 -0.0973  0.1038
29925W        W36525  12.312   2.696   2.886  0.1478  0.1826  0.0010
29926W        W36526  21.022   0.283  21.047 -0.0345  0.0873 -0.0153
29927W        W36527   2.300   1.165  12.628 -0.0322  0.0466  0.0534
29928W        W36528   1.990   7.389  25.564 -0.0776  0.1059 -0.0770
29929W        W36529   5.606   2.719   6.669  0.0952 -0.2032 -0.2791
29930W        W36530  18.684   5.168   3.242 -0.0897  0.3730  0.2890
29931W        W36531  21.970   5.941  31.929  0.0439 -0.0062  0.1840
29932W        W36532   4.978   3.583  25.539 -0.0084  0.0377 -0.3753
29933W        W36533   5.168   6.171   6.370 -0.0400  0.1939 -0.2579
29934W        W36534  16.121   7.613  31.650 -0.0216  0.3212 -0.2169
29935W        W36535   7.985   4.579  26.778 -0.1010  0.0019 -0.2064
29936W        W36536  18.920   0.353   3.590 -0.1452 -0.3249  0.2143
29937W        W36537  10.613   3.453  27.354  0.0001  0.0480  0.0795
29938W        W36538  21.223   1.634  31.501  0.0272 -0.2051 -0.0226
29939W        W36539   0.583   7.762   4.172 -0.0375 -0.1617  0.3009
29940W        W36540  22.935   0.322   3.926 -0.0774 -0.0917 -0.2795
29941W        W36541   1.543   6.133  12.830  0.0930  0.2641  0.0367
29942W        W36542  16.805   7.401  21.353  0.0480 -0.1263 -0.0308
29943W        W36543  15.464   4.338  20.318 -0.2135  0.0460 -0.3007
29944W        W36544   5.045   1.506  14.043 -0.1199  0.1353  0.0381
29945W        W36545  19.110   4.108  24.606  0.0860 -0.0745 -0.1376
29946W        W36546  12.207   4.087  24.742 -0.0467  0.3429 -0.2489
29947W        W36547  22.355   5.047  24.708 -0.0657  0.0397  0.0042
29948W        W36548   5.220   6.664  29.595  0.1034  0.1457  0.0071
29949W        W36549  11.531   3.748  23.535  0.3437 -0.0090  0.1237
29950W        W36550   9.070   0.548   2.055 -0.2332  0.2106 -0.1127
29951W        W36551   0.505   4.969   6.008  0.2656  0.0856  0.1778
29952W        W36552   2.360   5.167   2.719  0.2546  0.1154  0.2201
29953W        W36553  24.718   1.865  26.864  0.0498 -0.0241  0.2328
29954W        W36554   4.276   6.699   1.365 -0.2062  0.1397 -0.1509
29955W        W36555  17.364   3.975  17.275 -0.2896  0.2125  0.4445
29956W        W36556  14.560   0.815  30.575 -0.1000 -0.1820  0.2637
29957W        W36557   2.127   2.162  29.473  0.0686  0.0142 -0.1987
29958W        W36558   1.421   7.497  23.833  0.0246  0.0544  0.0141
29959W        W36559  14.073   6.311  24.183 -0.0736  0.1502 -0.0122
29960W        W36560  23.441   2.497   7.745  0.0098  0.3438  0.3924
29961W        W36561  21.238   3.900   8.709 -0.0697 -0.2042 -0.0054
29962W        W36562  24.539   3.739   9.654  0.2844  0.0156  0.1678
29963W        W36563   9.966   5.054  16.226  0.3012  0.0548 -0.2892
29964W        W36564   7.895   1.173  26.355 -0.1996  0.1679  0.0126
29965W        W36565  16.937   0.331   9.301 -0.0588  0.1365  0.3215
29966W        W36566  20.863   3.824   2.447 -0.1488 -0.1463  0.1433
29967W        W36567   9.373   2.745  27.627  0.1973  0.0917  0.2032
29968W        W36568   8.503   6.741   3.425 -0.0958 -0.4077  0.0854
29969W        W36569  19.035   4.327  24.117 -0.1450  0.0870  0.4205
29970W        W36570  11.783   4.378   4.131 -0.1966  0.1648  0.1325
29971W        W36571   7.578   1.723  12.762  0.2659  0.1102 -0.0635
29972W        W36572  20.754   7.050   3.032 -0.0729 -0.2556 -0.1110
29973W        W36573   5.338   2.714  14.661  0.2084 -0.0260  0.0861
29974W        W36574  13.064   7.756  24.513 -0.0936  0.0298  0.2326
29975W        W36575  11.930   7.067  11.580 -0.0033 -0.2600 -0.1047
29976W        W36576  24.914   6.315  26.958  0.0987  0.5059 -0.1176
29977W        W36577  19.247   7.672  23.923 -0.2176  0.5372  0.2744
29978W        W36578  10.109   5.521  25.579 -0.0562  0.0782 -0.1279
29979W        W36579  22.889   5.648   1.943  0.0028 -0.1462  0.0655
29980W        W36580  22.318   0.679   1.802  0.0824 -0.0857  0.2882
29981W        W36581  16.094   5.987  30.665  0.2156 -0.0849 -0.4050
29982W        W36582   8.962   1.556   1.917 -0.1286 -0.3648 -0.0515
29983W        W36583   6.140   2.746  22.769  0.3691 -0.0663 -0.1627
29984W        W36584   5.040   1.826  32.459  0.0036  0.0536 -0.2170
29985W        W36585  20.525   4.393  14.824 -0.1376  0.1820 -0.0428
29986W        W36586  23.424   7.275   2.615 -0.0996  0.0031  0.2368
29987W        W36587   4.516   0.406  28.065 -0.2413  0.0373 -0.0158
29988W        W36588  18.384   4.597  18.902  0.2449 -0.0195  0.1843
29989W        W36589  21.079   2.157  28.582 -0.1274  0.1349 -0.4496
29990W        W36590   2.098   1.641   3.013  0.1139 -0.1241  0.1322
29991W        W36591  13.744   4.902  20.667 -0.0873 -0.4055 -0.3092
29992W        W36592   3.000   4.713  28.760 -0.1086  0.0367  0.1079
29993W        W36593  22.412   0.868   0.585  0.2842 -0.1797 -0.0223
29994W        W36594   5.317   2.936  17.158 -0.0126  0.1156  0.1278
29995W        W36595  18.339   3.091  28.195  0.1697 -0.0642 -0.1043
29996W        W36596  25.013   6.806  25.587  0.0830  0.0472 -0.0937
29997W        W36597  12.087   7.209   7.304  0.0456  0.0663  0.1647
29998W        W36598   2.985   3.857   3.239  0.4123  0.1845  0.3641
29999W        W36599   8.112   2.431  28.787  0.0137 -0.0066 -0.0912
30000W        W36600   9.814   7.585  23.848 -0.2168  0.0217  0.1289
30001W        W36601  12.233   7.806  26.726 -0.0638 -0.2210 -0.0686
30002W        W36602  16.762   7.544   4.666  0.3228 -0.1908  0.1028
30003W        W36603   2.690   0.744   8.525 -0.0884 -0.0274 -0.0475
30004W        W36604  12.239   6.718  30.464 -0.0238 -0.1844  0.2162
30005W        W36605  14.892   2.272  29.567 -0.2284  0.2539  0.1430
30006W        W36606  14.390   1.027  30.991 -0.1373 -0.1782  0.0475
30007W        W36607   8.286   1.932  16.874 -0.1530 -0.2519 -0.1163
30008W        W36608  12.002   0.910  28.196  0.1548  0.2704  0.0498
30009W        W36609  22.031   1.022   6.630  0.1898  0.1859 -0.1440
30010W        W36610  15.732   7.548  10.955  0.3424 -0.3971  0.0577
30011W        W36611  20.343   1.474  28.608 -0.0437 -0.1495  0.2633
30012W        W36612  15.043   6.902  29.616 -0.2144  0.0779 -0.1610
30013W        W36613  24.800   2.891   2.363 -0.0921  0.0426 -0.0307
30014W        W36614  13.654   4.445  10.481  0.1530  0.1394  0.1039
30015W        W36615  18.913   3.685  10.483 -0.1603  0.0864 -0.3117
30016W        W36616  19.450   1.936  20.960 -0.1075  0.2679  0.1170
30017W        W36617   4.006   4.520  13.104  0.1697 -0.2020  0.0530
30018W        W36618  19.070   1.880  20.248 -0.0020 -0.1921 -0.0207
30019W        W36619   7.649   6.141   4.178  0.2089 -0.0798 -0.0133
30020W        W36620  22.048   1.024   9.459  0.1822 -0.2851 -0.1775
30021W        W36621  20.895   2.756   1.395 -0.0377 -0.2755 -0.2191
30022W        W36622  24.113   0.865  10.049 -0.2822  0.0619 -0.1061
30023W        W36623   7.229   4.325  11.872  0.1291 -0.0841 -0.2111
30024W        W36624   8.698   0.059  26.913  0.0385 -0.1603 -0.1274
30025W        W36625  11.908   3.284  22.635  0.0996 -0.0473 -0.1101
30026W        W36626   4.811   4.966  30.883 -0.0991  0.0641 -0.1409
30027W        W36627  15.884   3.684   2.840  0.1604  0.1325 -0.0864
30028W        W36628   9.640   3.290  32.131 -0.1582 -0.2233  0.1191
30029W        W36629   4.932   6.420  12.068  0.0170  0.0908 -0.2097
30030W        W36630  21.280   4.530  21.125 -0.0679  0.2425 -0.1084
30031W        W36631  19.298   7.069   2.300  0.2444 -0.3192 -0.1885
30032W        W36632  19.480   3.000  25.767 -0.0370 -0.0289  0.1290
30033W        W36633   0.577   3.254   5.845  0.0292 -0.0768  0.1476
30034W        W36634   3.979   7.505  10.962 -0.1548 -0.0887  0.1922
30035W        W36635  16.169   1.687   2.586 -0.1204  0.4927  0.0792
30036W        W36636  13.142   4.574  22.878  0.1477 -0.2822 -0.2256
30037W        W36637  21.496   2.647   2.442  0.1737  0.0261 -0.0386
30038W        W36638   0.181   5.952  27.076 -0.0782  0.1189 -0.1261
30039W        W36639  19.020   0.991  24.387  0.2074  0.0166  0.2019
30040W        W36640  10.852   7.820   5.097  0.0984  0.0866  0.0211
30041W        W36641  21.855   3.655  16.070  0.2313  0.0768  0.3561
30042W        W36642   1.896   2.578  25.814  0.1096  0.2613 -0.0663
30043W        W36643  16.450   2.611  17.309  0.1495  0.2173  0.1764
30044W        W36644  17.805   4.868  28.417  0.0816 -0.0643 -0.2893
30045W        W36645   1.209   0.481  24.093 -0.0909 -0.0465  0.1378
30046W        W36646   7.918   0.110  12.302  0.0623 -0.0477 -0.4194
30047W        W36647  17.793   0.428  16.694  0.1098  0.1129 -0.1448
30048W        W36648   6.492   5.099  15.768 -0.0720 -0.2430 -0.0531
30049W        W36649  21.506   7.502   0.170  0.2434  0.1921 -0.1462
30050W        W36650  13.624   1.244  24.009 -0.4640  0.1362  0.0948
30051W        W36651  17.585   1.803  29.315 -0.0678  0.1508  0.0944
30052W        W36652   7.073   1.633  12.680 -0.2069 -0.0968 -0.0357
30053W        W36653  15.015   7.380   9.064 -0.2934 -0.2393  0.1743
30054W        W36654  22.397   2.692   8.714  0.1022 -0.2327 -0.1642
30055W        W36655  13.097   4.610   4.718  0.4037 -0.1183 -0.2047
30056W        W36656  22.381   1.160  19.918  0.0667 -0.1226  0.2032
30057W        W36657  14.646   6.928   9.539 -0.4915 -0.2161  0.0405
30058W        W36658  14.247   5.414   6.803  0.0344  0.1283  0.2015
30059W        W36659   8.326   3.988  18.107  0.1315  0.1442 -0.3047
30060W        W36660  10.017   1.641  22.686  0.2742 -0.1386  0.1059
30061W        W36661  15.975   3.801  29.406 -0.1105  0.0493  0.2504
30062W        W36662  17.525   5.133  21.698  0.0467 -0.0329  0.2583
30063W        W36663  14.713   1.190  11.511 -0.0406  0.0624  0.1733
30064W        W36664  17.296   3.452  22.250 -0.0391 -0.0672  0.0293
30065W        W36665   6.197   5.609  25.119  0.0741 -0.0692  0.2587
30066W        W36666  20.325   0.311  22.782 -0.0873  0.0911 -0.2562
30067W        W36667  15.784   2.786   2.333 -0.3339  0.1764  0.2274
30068W        W36668   7.930   2.207   1.701  0.1238 -0.0514  0.1482
30069W        W36669   0.165   4.428   7.476 -0.0318 -0.0093 -0.1497
30070W        W36670   6.108   1.147   9.398 -0.2467  0.0950 -0.0748
30071W        W36671  11.221   2.484   7.951 -0.1224  0.0934  0.0565
30072W        W36672  11.956   7.477  24.114  0.1555 -0.0417  0.0814
30073W        W36673  17.076   0.473   7.995 -0.1670 -0.2370  0.1426
30074W        W36674  20.967   1.547   1.983 -0.0191  0.1211  0.2917
30075W        W36675   7.089   2.800   8.677  0.0946  0.2274  0.1402
30076W        W36676  17.626   2.101  26.915 -0.0490  0.0484  0.0910
30077W        W36677  11.904   6.722   7.266  0.0619  0.2606 -0.1563
30078W        W36678   9.589   7.148  12.206 -0.4807  0.1837 -0.0461
30079W        W36679  16.810   4.131   9.946  0.1912  0.0287  0.0556
30080W        W36680  19.004   3.357  32.668 -0.2993 -0.1646  0.3300
30081W        W36681   3.483   4.833  27.340  0.0636 -0.1261  0.0539
30082W        W36682   2.166   4.563  23.663  0.1777  0.0723 -0.0069
30083W        W36683  13.442   0.343   2.246  0.3188  0.1332  0.0126
30084W        W36684  24.149   4.664  27.745  0.0449  0.2088 -0.1921
30085W        W36685  21.355   2.335  18.534  0.1965  0.0033  0.1623
30086W        W36686   5.043   1.402  10.274 -0.1769 -0.0758 -0.0750
30087W        W36687  23.949   1.780  29.259 -0.1356  0.1023  0.3364
30088W        W36688  20.808   2.035  23.012  0.0240 -0.0190  0.4556
30089W        W36689  23.129   0.054  16.423 -0.0833 -0.0422 -0.0335
30090W        W36690   2.699   0.226  26.368 -0.1318  0.0436 -0.1716
30091W        W36691  18.973   2.047  21.710  0.1475 -0.0783  0.1478
30092W        W36692  18.198   3.404  25.921 -0.1667  0.0584 -0.1257
30093W        W36693  18.280   0.699  31.981  0.0478  0.0592  0.0245
30094W        W36694  15.200   4.461   7.700 -0.1804  0.1772 -0.0704
30095W        W36695  20.098   2.676  20.849 -0.2511  0.0396 -0.2499
30096W        W36696   8.861   5.054  12.132  0.1844 -0.0339 -0.3013
30097W        W36697  20.913   6.208   2.002 -0.0796 -0.1683 -0.1912
30098W        W36698  10.385   3.873  30.554 -0.1321  0.0920 -0.1230
30099W        W36699  11.946   6.153   1.523  0.3864  0.0734 -0.2240
30100W        W36700  13.148   0.067  11.430  0.1807 -0.1019  0.4057
30101W        W36701  21.715   2.027   7.641 -0.1136 -0.2846 -0.0370
30102W        W36702  18.988   1.283   3.173  0.3061 -0.1600  0.3133
30103W        W36703  22.932   3.322  32.443  0.1869 -0.0377 -0.0720
30104W        W36704   4.593   3.943  29.830 -0.0133  0.0672 -0.1600
30105W        W36705  13.746   2.637  26.112  0.0108  0.0492 -0.1255
30106W        W36706  12.786   2.721  14.216 -0.2245 -0.0825 -0.2299
30107W        W36707  10.609   0.197   5.519  0.0132 -0.0266 -0.3640
30108W        W36708  16.360   3.077  27.190  0.0200 -0.1305 -0.0931
30109W        W36709   7.767   4.793  25.043  0.0472 -0.0728 -0.4952
30110W        W36710   2.246   0.519   4.514  0.1422 -0.0867  0.0433
30111W        W36711   4.504   4.743   0.349  0.0628  0.2217  0.1067
30112W        W36712  13.675   2.085  24.713 -0.3146 -0.0063 -0.1524
30113W        W36713  15.697   0.466   7.692 -0.0122 -0.1970  0.4359
30114W        W36714  13.116   3.947  23.209  0.1212 -0.2519  0.2577
30115W        W36715  16.125   6.663  26.584 -0.0625 -0.0611  0.0041
30116W        W36716  22.235   2.024  28.669  0.1701 -0.0025  0.3595
30117W        W36717   0.909   5.325  21.496  0.1082  0.1454 -0.2479
30118W        W36718  23.640   5.909  21.032  0.0289 -0.0438  0.0259
30119W        W36719  11.074   1.113  11.700  0.3108  0.0439  0.3463
30120W        W36720  23.572   7.454  19.959 -0.2923  0.2284  0.1308
30121W        W36721  24.932   5.134  27.579  0.0306  0.2583 -0.0841
30122W        W36722  21.318   2.621  28.724 -0.0244  0.0795 -0.1422
30123W        W36723  20.396   0.296  25.647 -0.2894  0.2176 -0.1524
30124W        W36724  22.238   1.593  26.581 -0.1691 -0.0828 -0.2314
30125W        W36725   0.539   0.654  21.692 -0.2711 -0.0105 -0.1117
30126W        W36726   6.199   4.384   2.039 -0.4827  0.1019  0.1343
30127W        W36727  12.122   0.337   0.673 -0.0369 -0.1420 -0.0351
30128W        W36728   4.544   3.537  28.704 -0.0275  0.0791  0.0484
30129W        W36729  19.948   6.118  31.368 -0.0769 -0.3839  0.0907
30130W        W36730   5.584   3.977   4.668 -0.1573 -0.0078 -0.0977
30131W        W36731   3.396   0.832  29.111  0.1457  0.0924 -0.2753
30132W        W36732   2.848   2.109  22.253  0.1956 -0.0317 -0.2053
30133W        W36733  10.310   0.789  16.670 -0.1023 -0.0455 -0.0951
30134W        W36734  24.016   1.041  21.069  0.2643  0.1884 -0.0089
30135W        W36735  15.920   6.645   1.924 -0.0624 -0.0776  0.2960
30136W        W36736  13.560   7.750   7.119  0.0307  0.0443  0.2139
30137W        W36737   4.993   6.226  13.989  0.2972  0.0487 -0.2090
30138W        W36738  18.856   0.690   1.843  0.2460  0.1070 -0.0164
30139W        W36739  11.234   3.460   3.043  0.2715 -0.0193 -0.0606
30140W        W36740   3.697   5.193  27.578  0.1862  0.0444 -0.1474
30141W        W36741   0.925   6.657  19.061 -0.2895  0.1410  0.0704
30142W        W36742  13.194   7.155   3.397 -0.0003  0.1136 -0.2130
30143W        W36743  23.807   6.685   6.799 -0.0448  0.1346  0.2000
30144W        W36744  17.989   5.323   0.768 -0.2338  0.2357  0.0309
30145W        W36745  12.848   2.165  26.454 -0.1205  0.0260 -0.3560
30146W        W36746  15.760   3.779  10.352 -0.0834  0.1078  0.2077
30147W        W36747   8.089   3.070   9.010  0.0738  0.3238  0.1442
30148W        W36748   9.059   4.688  29.317  0.1095 -0.2086 -0.1056
30149W        W36749  11.201   4.539  25.373 -0.0230  0.1241 -0.0485
30150W        W36750  14.539   2.508  13.201 -0.2996  0.0163  0.3241
30151W        W36751  22.217   6.582   4.539 -0.1054 -0.1491 -0.1001
30152W        W36752   6.720   2.771  24.429 -0.2330 -0.0115 -0.2197
30153W        W36753   1.527   4.237  12.309  0.2046  0.0315 -0.2667
30154W        W36754   4.795   5.833  21.401  0.1218 -0.0026 -0.1800
30155W        W36755  24.004   1.323   0.417  0.3176  0.1066 -0.1778
30156W        W36756   0.730   4.228  19.558  0.0100 -0.5918  0.1029
30157W        W36757  17.385   6.114  10.908 -0.1159  0.2865  0.1134
30158W        W36758  10.277   4.299   9.687 -0.3762  0.0935  0.2928
30159W        W36759   5.411   2.369  15.594 -0.0442 -0.0075 -0.2259
30160W        W36760  20.638   4.383  16.818 -0.2825 -0.2920 -0.2334
30161W        W36761  22.281   3.427  22.726  0.1587 -0.0191  0.1683
30162W        W36762  11.071   1.316   4.791 -0.0214 -0.0046  0.0459
30163W        W36763   7.080   0.759  28.599  0.0392  0.2577  0.1827
30164W        W36764   1.868   6.940  32.121  0.1959  0.1271  0.0915
30165W        W36765   8.861   0.207   6.492  0.3451  0.2224 -0.0302
30166W        W36766  22.912   2.656   3.205  0.0686  0.1644  0.1913
30167W        W36767   0.291   5.466   8.887  0.0664 -0.1520 -0.0747
30168W        W36768  15.229   1.253  21.719  0.0878  0.1970 -0.0011
30169W        W36769   9.545   6.243  22.374  0.1155 -0.2802  0.2590
30170W        W36770  23.911   1.403  30.978  0.1367 -0.0117 -0.0623
30171W        W36771  23.533   3.843   5.126 -0.2352 -0.1815 -0.2113
30172W        W36772   9.412   1.186   1.166 -0.0201  0.0058  0.1192
30173W        W36773   3.061   2.772   9.316 -0.0396  0.1292 -0.0962
30174W        W36774   2.743   0.391  20.604 -0.1468  0.2620 -0.0257
30175W        W36775  17.824   6.100  23.291 -0.0357 -0.0685  0.1950
30176W        W36776  18.000   5.550  16.561 -0.2067  0.0712  0.0158
30177W        W36777  15.174   6.373  27.652  0.1295 -0.0402  0.2166
30178W        W36778  14.665   3.682   9.298 -0.0825 -0.1702 -0.0890
30179W        W36779   1.373   1.407  23.831  0.1484  0.0124  0.1108
30180W        W36780  16.335   2.793  31.175 -0.1947  0.0997  0.1839
30181W        W36781  22.360   5.221   2.786  0.1108  0.0714  0.0692
30182W        W36782  12.369   6.334  31.728 -0.0981 -0.0174  0.1898
30183W        W36783  22.788   4.340  24.199  0.0852  0.0953 -0.1611
30184W        W36784   0.141   1.579   6.065 -0.0919  0.0019  0.3047
30185W        W36785  10.812   3.596  10.806  0.1423  0.0769 -0.1317
30186W        W36786  19.801   6.660  20.262  0.0939  0.2706  0.2945
30187W        W36787  10.332   3.768  25.137 -0.1968 -0.1230 -0.0068
30188W        W36788  16.166   0.159  26.471  0.2651 -0.2662 -0.2285
30189W        W36789   9.918   5.178  30.952 -0.1020  0.0613  0.2714
30190W        W36790   9.241   5.862  31.370  0.1027  0.0405  0.0004
30191W        W36791   0.626   4.466   1.659 -0.0315 -0.0464  0.2132
30192W        W36792   4.403   1.754  13.181 -0.0326  0.0604  0.0537
30193W        W36793   3.285   3.780   5.253 -0.0159  0.1813  0.4495
30194W        W36794  15.775   1.003   3.051  0.2701 -0.2192  0.0838
30195W        W36795  22.134   4.722  28.212  0.2550  0.0487 -0.1689
30196W        W36796  13.756   2.140  22.968  0.1986 -0.0322  0.1419
30197W        W36797  19.957   4.735   2.852  0.0294 -0.3211 -0.0774
30198W        W36798  10.084   1.837  31.951 -0.0403  0.0009 -0.3051
30199W        W36799  12.064   6.441   4.085  0.1800 -0.1506 -0.1325
30200W        W36800  20.722   0.366  25.153 -0.1066 -0.0462  0.0952
30201W        W36801   9.044   7.125   0.756  0.1940 -0.0397  0.0422
30202W        W36802   4.896   2.095  26.925 -0.3206 -0.1884  0.0015
30203W        W36803  16.341   4.486   8.477 -0.2100  0.1270 -0.0218
30204W        W36804  21.866   7.385  17.539 -0.6339  0.0377  0.5012
30205W        W36805   5.434   6.259  29.313  0.0591 -0.0612  0.2414
30206W        W36806  15.327   4.011  20.679 -0.0062 -0.1952  0.1267
30207W        W36807  10.592   7.350  13.565 -0.0400  0.1229  0.1445
30208W        W36808  11.090   0.539  26.397  0.1370  0.0262  0.0491
30209W        W36809  13.188   1.760  11.457  0.1057  0.0855 -0.2720
30210W        W36810   5.806   3.525  27.978 -0.2384 -0.0114  0.2812
30211W        W36811  12.946   0.052  27.451  0.2277  0.1687  0.2224
30212W        W36812  23.972   3.880  10.111 -0.1325  0.0113 -0.0235
30213W        W36813   0.594   5.172  19.118  0.1679  0.3870 -0.1513
30214W        W36814  14.478   5.657  32.539  0.0341 -0.1714  0.1934
30215W        W36815  12.111   3.847  15.624  0.1111  0.1257  0.1101
30216W        W36816   3.556   4.860   7.425  0.1024  0.0836 -0.0344
30217W        W36817  17.177   7.306  26.350  0.0185 -0.0571  0.3046
30218W        W36818  15.617   7.346  18.467  0.0357 -0.0452  0.0111
30219W        W36819   5.178   0.214   7.441 -0.2620  0.3632 -0.0667
30220W        W36820   3.372   1.188  22.832  0.3198  0.0808 -0.1092
30221W        W36821  21.596   2.258   9.414 -0.0581  0.0550 -0.2204
30222W        W36822   7.777   0.716  17.207  0.1511 -0.0989 -0.1158
30223W        W36823  24.161   0.590  32.463  0.0142 -0.2065  0.0606
30224W        W36824   0.936   7.172   6.403 -0.2888  0.1025  0.1466
30225W        W36825   0.145   1.226  17.475  0.0590 -0.2151  0.1078
30226W        W36826  22.737   2.987  24.257 -0.0064 -0.3235 -0.0908
30227W        W36827   3.119   5.997  11.401 -0.2153 -0.1856  0.0208
30228W        W36828  23.428   4.401   2.120  0.2754  0.2309 -0.2417
30229W        W36829   7.915   0.385  12.734 -0.1715  0.1537  0.0208
30230W        W36830  14.538   5.707   4.413 -0.1527 -0.2808  0.3229
30231W        W36831   1.760   1.885  28.822 -0.0309 -0.0151 -0.2074
30232W        W36832   7.493   3.438  24.993  0.0281  0.1632 -0.2715
30233W        W36833  16.369   4.929   5.201  0.0225  0.2491 -0.4436
30234W        W36834  14.466   4.568  24.308 -0.1982  0.1865  0.0219
30235W        W36835  18.522   7.638   2.907  0.0154 -0.1533 -0.0443
30236W        W36836   2.919   1.203   9.981 -0.0193 -0.1199 -0.1515
30237W        W36837  10.244   0.905   3.827  0.1114  0.0672  0.1740
30238W        W36838   7.958   1.111  24.802  0.1828 -0.1015 -0.0461
30239W        W36839  23.272   5.002   9.867 -0.1690  0.0493  0.0485
30240W        W36840   7.990   4.642  24.125  0.1853  0.2470  0.1203
30241W        W36841   1.929   4.190   5.849 -0.2515 -0.2609  0.0148
30242W        W36842   0.065   1.907   7.235  0.1106 -0.0817  0.1437
30243W        W36843   2.158   1.223  23.626 -0.0882  0.1579 -0.0128
30244W        W36844   1.170   0.450  29.633  0.0043  0.0198  0.3835
30245W        W36845  20.524   0.042   2.938 -0.0809  0.1112  0.0944
30246W        W36846  11.478   7.109  24.717 -0.0902  0.0335 -0.1350
30247W        W36847  16.874   2.128   1.944 -0.0476  0.1713 -0.1190
30248W        W36848  20.662   1.531  20.963 -0.0789 -0.0717  0.1774
30249W        W36849   3.129   4.896  32.500 -0.0645  0.2061 -0.0256
30250W        W36850   1.094   7.753  24.043 -0.2212  0.0501 -0.1415
30251W        W36851  13.682   5.692   3.900 -0.3194  0.1911  0.3198
30252W        W36852   7.816   0.569  12.042 -0.0209 -0.1560 -0.0745
30253W        W36853  19.375   3.582   6.264 -0.1840  0.2155  0.2054
30254W        W36854   1.530   3.854  27.901  0.1181 -0.1314  0.0472
30255W        W36855  23.256   2.844   6.113 -0.2389  0.0835  0.0396
30256W        W36856  14.837   2.939  13.278  0.0149  0.1019 -0.3840
30257W        W36857  20.606   4.498   8.921  0.0502  0.2561 -0.0059
30258W        W36858  20.856   4.894  19.846 -0.2569  0.2177 -0.0599
30259W        W36859  13.650   7.081  27.276 -0.3560  0.2243 -0.0575
30260W        W36860  22.193   5.873  29.188 -0.0977  0.0934 -0.1632
30261W        W36861  19.790   7.114  26.441  0.0318  0.0057  0.0669
30262W        W36862  17.914   6.302  20.835 -0.2522  0.4376 -0.2793
30263W        W36863  22.496   4.147  22.457  0.3415 -0.1443  0.1317
30264W        W36864  10.537   0.010  17.340 -0.0116  0.4521  0.0262
30265W        W36865   3.635   3.290  29.715  0.0513 -0.0734 -0.1548
30266W        W36866  22.863   3.068  16.195  0.2552  0.0270 -0.3230
30267W        W36867  17.576   5.650  21.387  0.2817  0.3119  0.0873
30268W        W36868   0.678   4.596   1.095 -0.0118 -0.0377 -0.0718
30269W        W36869  16.513   5.905   7.233 -0.0846  0.0868  0.0949
30270W        W36870  13.246   6.086   0.098 -0.0316  0.0726  0.0723
30271W        W36871  24.838   1.521  22.456  0.2814  0.0875 -0.0634
30272W        W36872   6.088   4.034   6.748 -0.0504 -0.0989  0.0173
30273W        W36873   3.149   5.966  25.210  0.3482 -0.1498  0.1691
30274W        W36874  20.986   2.527  32.315 -0.0155  0.1287 -0.0054
30275W        W36875   0.652   3.127  10.343  0.0441 -0.1012  0.3528
30276W        W36876   9.569   0.172   9.436  0.1628 -0.2964 -0.0795
30277W        W36877  10.200   4.151  12.638  0.4266 -0.0470  0.1884
30278W        W36878  11.247   1.623  15.732 -0.2119  0.0567 -0.2079
30279W        W36879  14.764   5.118   2.878 -0.2264  0.3735 -0.1358
30280W        W36880  24.954   1.691  20.482 -0.0073  0.0067  0.1525
30281W        W36881  22.923   7.475  17.534  0.0701  0.3930  0.3752
30282W        W36882   2.446   1.511  11.108 -0.0290 -0.2724  0.0978
30283W        W36883  23.276   4.755  16.837  0.0119 -0.0959  0.0107
30284W        W36884   0.289   5.112   3.183  0.0165 -0.0843  0.1155
30285W        W36885  20.004   1.466  21.709  0.2551 -0.1239  0.0471
30286W        W36886  21.883   0.916   4.138 -0.0785  0.0185  0.1156
30287W        W36887   4.428   2.291   4.581  0.1807 -0.0660 -0.0078
30288W        W36888  23.802   6.709   2.819 -0.1616 -0.2043  0.0990
30289W        W36889  16.863   4.345  32.541  0.2632 -0.0267  0.1613
30290W        W36890  10.561   7.579  16.838  0.1260 -0.1849  0.0784
30291W        W36891   7.458   0.152   6.813  0.0186 -0.1144  0.0471
30292W        W36892   2.200   3.845  24.003  0.0106 -0.0732  0.0760
30293W        W36893   6.153   7.384   3.866 -0.0137 -0.1504 -0.1678
30294W        W36894   2.386   4.080   1.034  0.1172  0.0455 -0.0537
30295W        W36895   3.690   4.684  11.184 -0.0928 -0.0154  0.1378
30296W        W36896  19.741   1.555  23.493  0.0029 -0.1554 -0.1823
30297W        W36897   2.915   3.655  24.610 -0.4731 -0.0199 -0.0458
30298W        W36898  16.241   0.418   6.480 -0.0391  0.3747  0.1009
30299W        W36899  10.579   2.230  10.001 -0.0346  0.1326 -0.1189
30300W        W36900  20.694   6.171  26.627  0.3873  0.3914  0.0563
30301W        W36901  10.804   4.498   8.715 -0.0537 -0.1695  0.0628
30302W        W36902  11.732   3.791  30.630 -0.1009  0.0404  0.0840
30303W        W36903  18.182   2.584  18.670 -0.1825 -0.0496 -0.0392
30304W        W36904  13.486   1.013   8.431  0.0966 -0.0037 -0.1658
30305W        W36905  20.893   2.111  18.512 -0.0923 -0.1320 -0.1552
30306W        W36906  10.141   4.484  15.656  0.0349  0.1380 -0.0769
30307W        W36907  21.416   2.978  19.059 -0.0577  0.0127 -0.0731
30308W        W36908  17.855   0.129  17.131 -0.3102 -0.1112  0.1277
30309W        W36909  17.575   3.563   2.054  0.0757 -0.1466  0.2618
30310W        W36910   9.740   6.929   5.892  0.3551  0.0887  0.1280
30311W        W36911  10.507   0.099  14.673 -0.0739  0.2357  0.1077
30312W        W36912  14.988   0.991  24.439  0.2466  0.1140  0.1981
30313W        W36913  24.797   0.589  30.876 -0.1564 -0.0400 -0.0820
30314W        W36914   7.809   3.566  14.441  0.0489  0.0103  0.0028
30315W        W36915   2.670   7.684  30.679 -0.1889 -0.3835 -0.0827
30316W        W36916  21.917   6.436  20.236 -0.0231 -0.2375 -0.2237
30317W        W36917  24.772   3.221  32.484 -0.3584 -0.2128  0.2393
30318W        W36918   7.711   7.647  29.682  0.1311  0.0572 -0.4268
30319W        W36919  22.831   5.472   5.646 -0.0206  0.0889  0.1146
30320W        W36920   7.295   0.680  10.234 -0.1578 -0.0169  0.1711
30321W        W36921  20.349   4.793  26.177 -0.0819  0.0186  0.1744
30322W        W36922  11.405   0.049   7.240 -0.0367 -0.1975  0.0538
30323W        W36923  13.199   6.814  31.809  0.1618 -0.1258  0.0412
30324W        W36924   3.793   3.507  31.344  0.1175  0.0448  0.0373
30325W        W36925   5.292   1.018   6.796 -0.0347  0.0917  0.0505
30326W        W36926  10.831   5.209  22.352 -0.0566  0.3567  0.1458
30327W        W36927  24.794   1.942  22.807 -0.2113  0.0445 -0.0898
30328W        W36928   1.983   2.548   5.451  0.0643  0.1032 -0.0863
30329W        W36929  18.860   1.943  32.326 -0.1648 -0.0262 -0.1337
30330W        W36930  24.383   5.693   8.095 -0.0832 -0.0453 -0.2011
30331W        W36931  11.950   1.431  12.358 -0.0696 -0.3195  0.2138
30332W        W36932  12.551   6.022   0.631  0.0782  0.2544  0.2992
30333W        W36933  19.039   4.513  20.453  0.1160  0.0730 -0.1023
30334W        W36934  18.704   6.168  30.517 -0.1321 -0.0043 -0.1527
30335W        W36935  23.729   1.312   0.970 -0.1198 -0.0359  0.1968
30336W        W36936   0.238   3.674   4.673 -0.0798 -0.3047  0.1943
30337W        W36937  15.231   7.162  10.167 -0.0923  0.0384  0.0485
30338W        W36938  12.311   2.208  15.074  0.0302  0.0335 -0.0226
30339W        W36939   1.615   1.831   4.103  0.0341 -0.1509  0.0654
30340W        W36940  14.221   6.568  22.946 -0.4549  0.0061 -0.0383
30341W        W36941  13.820   7.292   5.124  0.1280  0.1704 -0.1250
30342W        W36942   5.461   0.304   2.872 -0.1650  0.1048 -0.0793
30343W        W36943   7.348   2.162   5.699 -0.1470  0.0984  0.0136
30344W        W36944  12.598   3.235  14.273  0.2502 -0.0522 -0.2172
30345W        W36945   5.638   3.835  11.784  0.2219 -0.1473 -0.2191
30346W        W36946   8.033   1.444   5.126 -0.0905  0.0214 -0.0925
30347W        W36947  24.819   1.752   5.761 -0.0483  0.1688  0.1223
30348W        W36948  18.735   7.799  26.346  0.0477 -0.0264  0.1677
30349W        W36949   6.336   0.267   0.058  0.1689 -0.0107 -0.0540
30350W        W36950  20.059   4.094  18.046  0.0851  0.0695 -0.0358
30351W        W36951   4.188   1.801   2.553 -0.1155  0.0136 -0.0462
30352W        W36952   5.189   5.244  26.200  0.1165  0.0388 -0.3143
30353W        W36953  24.790   3.291  18.604 -0.0253  0.1244  0.1303
30354W        W36954  20.900   6.861   9.056  0.1015 -0.1435 -0.0375
30355W        W36955  13.529   4.070  11.033 -0.1768 -0.0377  0.0758
30356W        W36956  24.515   6.952  19.729 -0.2362 -0.1265 -0.0988
30357W        W36957  24.715   7.233   7.489 -0.0556 -0.1961 -0.2786
30358W        W36958   6.011   5.982  23.870  0.1670 -0.1489  0.0117
30359W        W36959   2.248   7.454  30.758  0.0904  0.1418  0.0045
30360W        W36960   8.751   5.479   2.888 -0.4466 -0.0363  0.2957
30361W        W36961   3.375   3.061  23.273  0.2176 -0.0195 -0.0628
30362W        W36962   4.161   5.449  29.792 -0.0711  0.2864  0.1068
30363W        W36963  19.161   4.466   8.391  0.1399 -0.0744 -0.1251
30364W        W36964  11.180   0.832   1.548 -0.0488 -0.0816  0.1686
30365W        W36965   0.599   0.908  24.849 -0.0179  0.1402  0.2295
30366W        W36966  14.867   0.298  26.879  0.2476 -0.4571  0.0278
30367W        W36967  22.387   7.590  31.481 -0.4032  0.0499 -0.0153
30368W        W36968   9.235   3.078   3.626 -0.2360 -0.0128  0.0952
30369W        W36969  12.799   2.788   7.535  0.2879 -0.3677 -0.0911
30370W        W36970  12.640   1.502   7.760  0.1705  0.2721  0.0461
30371W        W36971   0.794   6.740   1.151  0.1096 -0.0219  0.0964
30372W        W36972  21.113   3.929  21.525  0.1155 -0.2305 -0.1630
30373W        W36973  18.185   2.573  20.108 -0.2821 -0.0875  0.1806
30374W        W36974  22.603   1.964  15.360  0.2260  0.2298 -0.2009
30375W        W36975   4.916   5.284  24.236  0.1359 -0.1204 -0.1301
30376W        W36976  23.583   4.904  27.439  0.1261 -0.0141  0.0079
30377W        W36977   7.672   0.254  17.053  0.1427  0.1598 -0.0486
30378W        W36978  23.005   1.502  27.750  0.1853 -0.0620 -0.1779
30379W        W36979   0.437   4.919  28.898 -0.0995  0.2156 -0.1923
30380W        W36980   3.357   4.189  20.406 -0.2026  0.1746  0.0207
30381W        W36981  11.558   6.985   0.678 -0.0323 -0.1223  0.0977
30382W        W36982  14.161   2.577   8.003 -0.1655  0.3232 -0.0708
30383W        W36983  11.095   5.316   3.502 -0.2880 -0.4051  0.1037
30384W        W36984   3.484   4.676  30.631 -0.1792 -0.2782  0.0563
30385W        W36985  23.476   4.279   9.144  0.0764  0.0472  0.4273
30386W        W36986  13.145   7.544  23.110 -0.1501 -0.0476  0.2959
30387W        W36987   9.116   1.415   0.583  0.2024 -0.1483 -0.0618
30388W        W36988  22.366   5.442   9.184  0.0049 -0.0077 -0.0157
30389W        W36989  22.782   1.965  22.819 -0.2601 -0.3825  0.0460
30390W        W36990   0.749   2.657  10.120 -0.2975  0.3546 -0.3027
30391W        W36991  16.464   2.045   4.388 -0.1605  0.3323 -0.1510
30392W        W36992  18.579   6.550  18.953 -0.3430 -0.0846  0.0113
30393W        W36993   3.255   4.341  11.888  0.2873  0.3455  0.1264
30394W        W36994  21.236   3.088   5.455  0.1702  0.0772  0.0285
30395W        W36995   8.449   7.241  28.638  0.2596 -0.1032 -0.2977
30396W        W36996  14.607   2.026  27.742 -0.1791 -0.1037  0.3440
30397W        W36997   8.910   5.838   6.414 -0.0181 -0.3735 -0.0536
30398W        W36998  24.110   5.093  31.910 -0.1277 -0.0296 -0.0057
30399W        W36999  16.017   4.362  30.157 -0.1032  0.0069 -0.1293
30400W        W37000   3.140   2.841  25.156  0.0120  0.2069  0.0601
30401W        W37001   3.794   0.475   8.541  0.0874 -0.0472  0.0388
30402W        W37002  12.257   3.738   1.775 -0.4753 -0.0807 -0.2518
30403W        W37003   5.466   5.207  27.617  0.0118 -0.1531 -0.1415
30404W        W37004   1.204   6.064  29.137  0.3306  0.3424 -0.0049
30405W        W37005  10.628   0.992  11.295  0.0075  0.0820 -0.2680
30406W        W37006  15.866   3.767   7.848 -0.3363 -0.3343 -0.0865
30407W        W37007  21.689   3.256  18.594  0.1940 -0.2039 -0.3481
30408W        W37008   0.390   4.386  28.001  0.0909  0.4170 -0.2277
30409W        W37009  23.100   6.486  24.648 -0.2804  0.1397 -0.0442
30410W        W37010   3.029   0.489   5.323 -0.0045  0.0840 -0.0579
30411W        W37011  20.791   4.497  30.701 -0.1115  0.1880  0.5600
30412W        W37012   9.076   2.565  23.093  0.3535 -0.2284 -0.2718
30413W        W37013  16.618   6.960   2.962 -0.4305  0.1445  0.1884
30414W        W37014  20.569   5.038  15.478  0.1461  0.1256  0.0879
30415W        W37015   4.293   5.022  31.133 -0.3380  0.1062 -0.0123
30416W        W37016   1.546   4.931  26.582 -0.1323 -0.2351 -0.0860
30417W        W37017   5.804   6.242   7.880  0.4625  0.2065  0.1873
30418W        W37018  14.733   1.981  20.905 -0.1099  0.1611  0.2297
30419W        W37019   6.553   6.130  15.523 -0.3046 -0.0661  0.2698
30420W        W37020  11.052   1.021   8.765 -0.0096  0.2252 -0.1488
30421W        W37021   2.822   4.258  27.082  0.1384  0.1773  0.0142
30422W        W37022  24.722   1.348  19.146 -0.0241 -0.0681 -0.0867
30423W        W37023   7.582   2.727   8.857 -0.2044 -0.2566 -0.0079
30424W        W37024  12.714   0.749  28.824 -0.2754  0.0005  0.0644
30425W        W37025   5.441   1.938   1.044  0.0050 -0.1910  0.1855
30426W        W37026  17.858   4.131  18.066 -0.0646 -0.1379  0.0236
30427W        W37027  20.870   7.215  28.428  0.0139 -0.0296 -0.1579
30428W        W37028  14.114   5.841   0.881 -0.0722  0.2083  0.1961
30429W        W37029   6.015   2.053  31.424 -0.0560 -0.2386 -0.1405
30430W        W37030  20.576   0.812  15.049 -0.0610  0.2441  0.1840
30431W        W37031  15.564   0.123   4.206  0.0762 -0.0059 -0.0260
30432W        W37032   5.681   0.028  30.099 -0.0937  0.3578 -0.1627
30433W        W37033  20.164   1.306   4.700 -0.1090 -0.1606 -0.0375
30434W        W37034  15.382   7.780  25.047 -0.0031 -0.0598 -0.1221
30435W        W37035   9.784   3.704   9.990  0.0384  0.0870  0.1378
30436W        W37036  13.852   2.907  12.972  0.1720  0.0861 -0.3211
30437W        W37037   1.993   2.236  10.241  0.1755 -0.2411 -0.2789
30438W        W37038  22.096   1.363  22.345  0.2147 -0.0326  0.1105
30439W        W37039  16.088   3.113  10.650 -0.1818 -0.0107 -0.0588
30440W        W37040  19.265   2.212   7.357  0.0146  0.1324  0.1928
30441W        W37041   7.187   5.488  25.312  0.1811 -0.1836  0.1735
30442W        W37042  20.351   4.957   4.130  0.2470 -0.1177  0.0628
30443W        W37043  13.220   5.701  31.891 -0.2565  0.0758 -0.1178
30444W        W37044   9.427   1.566  16.359  0.1113  0.0862  0.0532
30445W        W37045  17.792   1.288   7.882  0.0423  0.0482  0.2165
30446W        W37046   1.441   5.594   4.124  0.0524  0.1704 -0.1953
30447W        W37047   2.726   5.000  30.511 -0.1201 -0.2378 -0.1926
30448W        W37048  12.404   7.596   5.613  0.0712  0.4013  0.0642
30449W        W37049  11.643   6.435  17.625  0.1488  0.1730 -0.1619
30450W        W37050  17.611   3.619  21.078 -0.1823 -0.0103  0.0382
30451W        W37051   8.029   5.884  30.491  0.1952 -0.1414  0.1323
30452W        W37052   6.295   2.843   9.495 -0.1296  0.1233 -0.1145
30453W        W37053  18.404   4.919  19.893  0.3699  0.2225  0.0298
30454W        W37054  13.083   3.263  12.858 -0.0365  0.1367  0.3768
30455W        W37055   1.960   5.014  28.877 -0.0590  0.1647  0.0493
30456W        W37056  18.100   5.164   6.306  0.1448  0.2126  0.0578
30457W        W37057   8.328   4.119  27.497 -0.0986  0.0519  0.5538
30458W        W37058   4.250   1.420  29.923 -0.3936  0.1526 -0.2490
30459W        W37059  24.101   0.165  24.980  0.0637  0.1573  0.4033
30460W        W37060  10.089   3.352  30.431  0.2039 -0.0798 -0.2806
30461W        W37061   6.550   4.762  29.396 -0.1387 -0.2559 -0.0657
30462W        W37062  16.177   7.676  27.806 -0.1754 -0.0297  0.1438
30463W        W37063  15.224   6.210  26.022 -0.0143 -0.1081  0.2565
30464W        W37064  21.723   2.679  14.030 -0.0990 -0.0657  0.0376
30465W        W37065   3.081   6.601   5.409 -0.2253 -0.0430  0.2107
30466W        W37066  18.367   6.911   4.285 -0.0345  0.1449 -0.1883
30467W        W37067   7.681   7.128   3.385  0.2571 -0.1647  0.0602
30468W        W37068  21.287   4.927  26.072 -0.0917  0.0399 -0.0663
30469W        W37069   8.399   0.845  15.333 -0.0043  0.0045 -0.2006
30470W        W37070  11.271   3.298   1.374 -0.1279 -0.0992 -0.0962
30471W        W37071  10.521   4.885   8.841  0.0247 -0.3551 -0.0364
30472W        W37072  23.535   7.681  20.409  0.0842 -0.1843 -0.0230
30473W        W37073  16.575   3.151  22.412  0.1370 -0.0499  0.0815
30474W        W37074  14.948   5.033  12.429  0.0733  0.1195 -0.1781
30475W        W37075  20.479   0.668  23.708  0.1231 -0.1362 -0.2224
30476W        W37076  24.127   0.062  16.748 -0.1370 -0.2648  0.2608
30477W        W37077   5.018   7.060  24.953  0.1177  0.0507  0.0411
30478W        W37078  11.370   4.250  26.967 -0.2707  0.1704 -0.1178
30479W        W37079   4.458   1.239  11.418  0.1404  0.1542 -0.2522
30480W        W37080   0.566   3.964  18.539  0.0453  0.2158  0.0337
30481W        W37081  19.474   1.778  10.111  0.0380 -0.2630  0.1196
30482W        W37082   7.131   2.265   1.141 -0.0287 -0.1209 -0.0028
30483W        W37083  19.136   4.002   6.082 -0.2330 -0.0319  0.2227
30484W        W37084  14.359   2.282   5.643  0.0856  0.2352  0.3439
30485W        W37085  21.852   3.558  22.624  0.4223 -0.4277  0.2967
30486W        W37086   1.502   5.577  20.825  0.1598  0.0231 -0.3307
30487W        W37087   0.900   1.145  19.879  0.0794 -0.0895  0.2202
30488W        W37088  21.112   4.894   8.119 -0.0404  0.0286  0.0996
30489W        W37089   3.946   5.977   7.997 -0.0687 -0.0154  0.1398
30490W        W37090  14.705   5.606  10.981 -0.1800  0.0239  0.1337
30491W        W37091   9.511   0.182  12.741 -0.0100  0.0001  0.3428
30492W        W37092  17.070   6.970  24.908 -0.0673 -0.0980 -0.0364
30493W        W37093   8.000   5.309   6.303  0.2742 -0.0005 -0.1328
30494W        W37094  20.879   4.106   3.425  0.2167 -0.0742  0.0837
30495W        W37095  13.675   2.247   6.472 -0.1571 -0.1880  0.1688
30496W        W37096   7.083   3.590  15.571  0.1859 -0.3498 -0.0449
30497W        W37097  19.554   5.613   7.795 -0.1766 -0.0738  0.2098
30498W        W37098  24.303   0.856  16.597  0.0883  0.0387 -0.0779
30499W        W37099   1.529   3.432  18.514  0.4693  0.2835 -0.1088
30500W        W37100  14.456   2.441  29.730  0.1068 -0.2016 -0.0864
30501W        W37101  19.177   5.844  29.443  0.0482 -0.1358  0.0946
30502W        W37102  17.808   5.311   5.163  0.1619 -0.1288  0.0669
30503W        W37103  19.510   2.715   7.379 -0.0369 -0.2443 -0.1446
30504W        W37104  21.904   2.379  21.182 -0.1167 -0.2338  0.0422
30505W        W37105   9.315   0.161   5.241 -0.1316 -0.0349 -0.0345
30506W        W37106  21.091   6.163   4.622  0.0786 -0.0687  0.1540
30507W        W37107  16.152   1.611   3.532 -0.1358 -0.2022  0.0684
30508W        W37108  14.352   6.571  25.600  0.2891  0.2765 -0.1355
30509W        W37109  24.113   5.453  24.972  0.1112  0.2295  0.2365
30510W        W37110   6.298   3.731  25.390  0.0704 -0.5564 -0.2136
30511W        W37111  24.619   5.462  10.769 -0.2380 -0.1620 -0.1834
30512W        W37112  19.996   1.793  24.911 -0.0475  0.2210  0.0109
30513W        W37113   4.083   5.058   6.444  0.0355 -0.0389 -0.0321
30514W        W37114   5.351   3.077  28.864  0.1055  0.0745  0.1891
30515W        W37115   4.726   7.374   9.710  0.1069  0.0130  0.0323
30516W        W37116   2.531   5.963  10.250 -0.0044 -0.1044 -0.2336
30517W        W37117  22.642   2.000   4.682  0.1378  0.1866 -0.0992
30518W        W37118  16.387   5.414  24.622  0.0471  0.3146 -0.1000
30519W        W37119  13.917   2.415   2.512 -0.0005 -0.2365 -0.0401
30520W        W37120   3.144   1.579   1.246  0.1102  0.3439  0.0405
30521W        W37121   6.547   2.935  25.778 -0.0874 -0.1887  0.0581
30522W        W37122  22.645   4.614   9.035 -0.4160 -0.3474 -0.1346
30523W        W37123   6.537   7.442   4.434 -0.0252  0.1092  0.0100
30524W        W37124  21.708   3.196  19.932 -0.2482  0.4607 -0.2868
30525W        W37125  12.448   6.643   1.953 -0.1248  0.2680  0.1214
30526W        W37126  20.080   3.767  16.336 -0.1506 -0.0765 -0.1121
30527W        W37127  23.223   1.889  19.325 -0.1769  0.0513  0.1592
30528W        W37128  14.159   2.359  12.910 -0.0070 -0.2025  0.0393
30529W        W37129  17.441   2.871   2.809 -0.1976  0.1635 -0.1217
30530W        W37130   7.809   2.327  18.042 -0.0460 -0.0979 -0.2467
30531W        W37131   9.814   2.976  11.251 -0.1855  0.1421  0.1473
30532W        W37132   3.737   4.885   6.092 -0.0160 -0.1770 -0.0990
30533W        W37133  18.453   2.249   9.664  0.1962 -0.0048 -0.0875
30534W        W37134  12.380   4.701   2.245 -0.3129  0.2051 -0.1970
30535W        W37135  12.054   2.417   0.396  0.1471  0.0616  0.1227
30536W        W37136  24.477   3.243  19.451 -0.1853 -0.1067 -0.1810
30537W        W37137   1.053   3.688   1.792 -0.0283  0.1532  0.0455
30538W        W37138  17.711   7.380  27.257  0.1831  0.1788  0.0980
30539W        W37139   3.373   6.242  32.125  0.1358 -0.0570 -0.1709
30540W        W37140   3.043   5.804   7.084  0.4556 -0.1693  0.2348
30541W        W37141   4.787   0.770   8.506 -0.0660 -0.1096 -0.1415
30542W        W37142   0.407   4.190   1.228 -0.2504 -0.0467 -0.1150
30543W        W37143  20.062   0.853   7.673 -0.2627 -0.0806  0.2029
30544W        W37144   0.332   2.709   2.501  0.2245  0.2300  0.0963
30545W        W37145  21.590   2.676  20.810 -0.0148  0.0424 -0.0613
30546W        W37146  15.211   6.834  21.906 -0.2390 -0.0380  0.0507
30547W        W37147  16.842   5.090  25.743 -0.2427 -0.0442  0.0399
30548W        W37148  19.282   4.703   7.944 -0.2140 -0.2159  0.1599
30549W        W37149  20.236   2.262  14.318  0.0474  0.3412  0.2219
30550W        W37150   3.426   4.908  23.281  0.0034 -0.0172  0.2390
30551W        W37151   6.702   1.942  15.463  0.1325  0.1556 -0.1049
30552W        W37152   8.602   0.664   1.121 -0.2501  0.2724 -0.0489
30553W        W37153  10.045   4.066  18.082 -0.0293  0.0516  0.0328
30554W        W37154  16.329   1.723   8.114 -0.0726 -0.0693  0.1305
30555W        W37155   5.884   0.565  31.296 -0.0215 -0.0502  0.0564
30556W        W37156   9.166   3.284   5.304 -0.0927 -0.1196 -0.1266
30557W        W37157   7.345   4.268  10.494 -0.4272 -0.2892 -0.4374
30558W        W37158  15.142   7.131   4.204 -0.1700  0.1254  0.2681
30559W        W37159   6.072   1.747  12.919 -0.2071  0.2266  0.2535
30560W        W37160   0.848   1.835  20.226 -0.0066 -0.1981 -0.2033
30561W        W37161   9.220   6.496  14.892  0.0017  0.1812  0.1147
30562W        W37162  10.060   6.035  25.411 -0.1749 -0.0512  0.0520
30563W        W37163   1.465   5.605  28.197 -0.1503 -0.1386  0.0711
30564W        W37164   1.095   7.336  31.120  0.0967  0.0807 -0.0045
30565W        W37165  15.283   0.662  24.860  0.0457 -0.1323 -0.0393
30566W        W37166  23.779   0.724   4.020 -0.0611  0.1871  0.1478
30567W        W37167   0.318   5.143  22.176  0.1757  0.1958  0.2276
30568W        W37168  17.671   1.991  22.196  0.1279  0.0841  0.0866
30569W        W37169  12.960   4.040  11.737 -0.0456 -0.2541 -0.0565
30570W        W37170  12.704   0.207  13.494  0.1304 -0.1193  0.0347
30571W        W37171  16.531   4.875  27.538  0.0434 -0.3050  0.0302
30572W        W37172  21.266   6.512   7.548 -0.2923 -0.3322 -0.1176
30573W        W37173  14.308   1.064   8.341 -0.2122 -0.0963  0.0001
30574W        W37174   3.454   2.950   0.358  0.2515 -0.2786 -0.0336
30575W        W37175  15.674   2.242   4.321  0.0679 -0.0895  0.1000
30576W        W37176  17.483   0.098  29.199  0.2391 -0.2617 -0.1077
30577W        W37177   2.892   1.106   0.260  0.0404 -0.0281 -0.1713
30578W        W37178   6.567   4.355  31.690 -0.5113 -0.0098 -0.0013
30579W        W37179   6.112   4.780  23.959  0.0663 -0.2345 -0.1213
30580W        W37180   1.445   5.051  28.081  0.0378 -0.0634 -0.0213
30581W        W37181   0.677   0.606   4.907  0.1166  0.0186  0.0628
30582W        W37182  14.705   0.061  24.353  0.0524  0.0011 -0.3304
30583W        W37183  14.183   3.121  11.866  0.1447  0.1386  0.0103
30584W        W37184  21.501   7.270  23.615 -0.3256  0.1491  0.1579
30585W        W37185  13.848   5.922  24.475  0.3147  0.1298 -0.0435
30586W        W37186  17.303   6.288   0.476 -0.0375 -0.0234 -0.1711
30587W        W37187   9.668   0.505  30.884  0.0183 -0.0026 -0.1998
30588W        W37188  11.736   7.735  10.750 -0.0934 -0.2151 -0.1411
30589W        W37189  24.749   0.241  25.468 -0.1405  0.0362  0.2949
30590W        W37190   8.713   6.600   9.832  0.0008 -0.2478 -0.2604
30591W        W37191  17.891   5.510  11.094  0.1177 -0.0531 -0.0763
30592W        W37192   2.452   5.798  11.274  0.0439  0.3290  0.3935
30593W        W37193  21.860   1.877  26.463 -0.2144  0.0101  0.0224
30594W        W37194   6.349   3.205   5.458 -0.1743 -0.0709  0.1029
30595W        W37195   4.679   0.124  12.806  0.0926  0.1389 -0.2035
30596W        W37196   9.002   5.150  11.615  0.3981 -0.1042 -0.2680
30597W        W37197  19.477   1.352  23.148  0.0055 -0.1253  0.0888
30598W        W37198   0.476   1.254  30.413  0.4018  0.0305  0.0178
30599W        W37199  22.203   7.213  25.064  0.0711 -0.3066 -0.0467
30600W        W37200   8.205   7.376  30.489  0.2015  0.0373  0.0235
30601W        W37201  23.920   6.016  25.764  0.4458  0.1734 -0.2234
30602W        W37202  19.993   1.383   7.870 -0.1376 -0.1857 -0.0993
30603W        W37203   0.080   1.431  18.257  0.2300 -0.0871 -0.1122
30604W        W37204  24.793   2.958  17.057 -0.0725 -0.0048 -0.1378
30605W        W37205  15.495   7.299  26.203  0.0231 -0.2804  0.1429
30606W        W37206  24.228   4.729  19.848  0.1142  0.0554 -0.0408
30607W        W37207  12.863   6.079  14.774 -0.2123 -0.0743  0.2843
30608W        W37208  10.828   7.183   4.618  0.0272 -0.2457 -0.0034
30609W        W37209  17.399   4.661  26.483 -0.1514  0.0928 -0.1760
30610W        W37210  21.411   4.913  30.830 -0.0204 -0.0277  0.0280
30611W        W37211   3.578   6.527   4.586 -0.1394  0.2598  0.0310
30612W        W37212  12.115   1.581   1.403 -0.2823  0.1242  0.0531
30613W        W37213   0.445   7.152  19.233 -0.0319  0.1802 -0.2742
30614W        W37214   5.837   2.280   6.848  0.0205 -0.0305  0.0204
30615W        W37215  12.836   5.083  28.001 -0.1134  0.1718  0.0348
30616W        W37216  21.456   0.970   0.117  0.1272 -0.2503 -0.2306
30617W        W37217   8.052   1.731  24.431 -0.0907  0.0849  0.2932
30618W        W37218  23.989   1.192  28.038 -0.0700 -0.0011 -0.1524
30619W        W37219   3.871   1.904   6.318 -0.3636 -0.2614 -0.0489
30620W        W37220   1.811   3.924   8.030 -0.0905 -0.0122 -0.0941
30621W        W37221   1.596   0.225  10.128 -0.1081 -0.2050  0.0355
30622W        W37222  17.597   5.396   4.313 -0.0230  0.0572 -0.1653
30623W        W37223  21.584   1.978   3.090 -0.1337  0.1780  0.0872
30624W        W37224  23.157   5.812  26.552 -0.0251  0.1223  0.0428
30625W        W37225   5.714   5.464  15.248 -0.1793  0.1307 -0.2765
30626W        W37226  23.622   0.496   5.992  0.3968 -0.1972 -0.1868
30627W        W37227  10.458   7.200   1.774 -0.1860  0.2496 -0.1445
30628W        W37228  14.109   1.127   4.632  0.2108  0.0717 -0.1949
30629W        W37229   5.536   5.628  11.657 -0.1826 -0.0665  0.1498
30630W        W37230  24.423   6.316  27.070  0.2487 -0.0224  0.1149
30631W        W37231  23.463   0.035   7.495  0.1457  0.0875 -0.0776
30632W        W37232  16.971   6.568   7.298 -0.3153 -0.0742 -0.2205
30633W        W37233   0.861   3.853  27.102  0.0278 -0.1677 -0.0242
30634W        W37234   7.381   0.312  14.133 -0.0292  0.0781  0.2281
30635W        W37235  23.196   5.216   1.047 -0.1160 -0.0556 -0.1030
30636W        W37236   3.222   6.983   4.121  0.0897 -0.0174  0.4644
30637W        W37237  21.233   1.423  19.035 -0.1043 -0.0491  0.1105
30638W        W37238  10.363   0.886   7.665 -0.2547 -0.3569  0.1523
30639W        W37239  19.859   4.040   6.981  0.2965 -0.0524  0.0836
30640W        W37240   1.409   7.629  20.293  0.0474 -0.0849 -0.0964
30641W        W37241   9.723   4.539  25.297  0.2663 -0.1481  0.0382
30642W        W37242  19.544   0.046   1.094  0.0973  0.1466  0.0755
30643W        W37243  12.551   7.081  10.470  0.0969  0.2045 -0.3165
30644W        W37244   1.551   0.948   0.700  0.2057  0.0258 -0.0230
30645W        W37245  13.207   3.316   6.125  0.0148  0.1391 -0.2400
30646W        W37246  15.727   0.569   4.383 -0.0373  0.1441  0.0172
30647W        W37247  13.549   5.698  26.928  0.3416  0.0493  0.1239
30648W        W37248  20.152   3.069   7.319  0.0337  0.2622  0.0522
30649W        W37249   0.748   3.832   4.541 -0.0185  0.2353  0.0121
30650W        W37250  19.901   4.239  15.597  0.0887  0.0077 -0.0900
30651W        W37251  23.377   2.189  18.416 -0.2431  0.1810 -0.0764
30652W        W37252  19.666   4.309  30.596 -0.2320 -0.0246 -0.1676
30653W        W37253  13.368   3.554   0.156  0.0029 -0.2869  0.1601
30654W        W37254  18.354   7.507  26.396 -0.1640  0.0973  0.0437
30655W        W37255  21.876   2.582  28.054  0.0935  0.2071 -0.1673
30656W        W37256  11.666   6.658  24.573 -0.2972  0.1061 -0.2492
30657W        W37257  14.535   2.915   2.036 -0.3380 -0.0116  0.1970
30658W        W37258   9.542   1.638  12.909 -0.5430 -0.1857 -0.0234
30659W        W37259   4.182   3.291  13.458  0.1589 -0.2202 -0.1032
30660W        W37260  22.946   5.943  25.482  0.1086  0.0410 -0.2244
30661W        W37261  15.289   1.305  25.445  0.1931 -0.1381 -0.2343
30662W        W37262   7.122   2.773   9.171  0.0090  0.1319  0.4612
30663W        W37263   1.676   0.131  22.388 -0.0484 -0.0144  0.2607
30664W        W37264   5.613   1.354  14.274  0.0212  0.1750  0.0697
30665W        W37265   4.709   0.247   7.702  0.1961  0.0479 -0.1054
30666W        W37266   8.603   3.060   6.544  0.2077  0.1326  0.0516
30667W        W37267  16.878   7.577  20.605 -0.1104 -0.0970  0.0306
30668W        W37268  20.790   4.244  27.641 -0.1225  0.0595 -0.1077
30669W        W37269   8.627   3.298  32.046 -0.1199  0.1709  0.5331
30670W        W37270   9.523   6.818  13.332 -0.0277 -0.1852 -0.2537
30671W        W37271  19.753   3.231  19.798  0.0994  0.0336  0.0584
30672W        W37272  13.580   0.625  29.473 -0.1387 -0.0998  0.0063
30673W        W37273  23.951   3.300   8.781 -0.2329 -0.1135  0.1805
30674W        W37274  10.702   0.279   1.978 -0.2381 -0.0435 -0.0835
30675W        W37275  22.412   4.396   2.246  0.0645  0.0818  0.1965
30676W        W37276   3.217   7.097   2.904  0.2646 -0.1563 -0.1719
30677W        W37277  20.913   0.996  26.152  0.0453 -0.0788  0.3281
30678W        W37278   0.993   4.876  27.362 -0.0646  0.0198 -0.1594
30679W        W37279  11.225   7.426   4.549  0.1805 -0.2104 -0.1859
30680W        W37280   8.112   6.736  28.532  0.0467  0.0701  0.0034
30681W        W37281  23.331   4.351  27.128  0.4011 -0.0881  0.3395
30682W        W37282  14.131   3.524   1.343  0.1384  0.2401 -0.3362
30683W        W37283   6.505   7.057   9.506  0.3267 -0.4538  0.0248
30684W        W37284   5.827   4.848  11.766 -0.2035  0.0033  0.0241
30685W        W37285  18.408   0.787  20.065  0.2121  0.0884  0.1931
30686W        W37286   1.096   6.864   9.134  0.1998  0.2060 -0.5398
30687W        W37287  10.836   5.395  32.238 -0.0062  0.0142  0.2545
30688W        W37288   7.356   0.267   3.715  0.1112  0.1279  0.0013
30689W        W37289  11.716   4.670  14.164 -0.1306 -0.1154  0.0630
30690W        W37290  14.606   6.305  25.900 -0.3361 -0.1472 -0.0556
30691W        W37291  17.994   6.002  30.600 -0.0584 -0.2273  0.1737
30692W        W37292  13.891   0.288  27.259  0.0597  0.1413 -0.0750
30693W        W37293  12.250   2.121  23.898  0.1433 -0.0002  0.0942
30694W        W37294  18.684   6.058  22.940 -0.2597  0.4673  0.0454
30695W        W37295  11.956   2.131  32.605  0.1737 -0.1652  0.1845
30696W        W37296   1.031   1.162   5.658  0.0011  0.1869  0.1174
30697W        W37297   0.612   3.894   6.590 -0.1125 -0.3860  0.3559
30698W        W37298   2.417   4.758   2.139  0.3031 -0.2074  0.2123
30699W        W37299  21.538   6.117  21.633 -0.0748  0.1001  0.0730
30700W        W37300   7.155   6.831  25.006 -0.1150  0.1935  0.1837
30701W        W37301   8.579   3.077  12.643  0.3025  0.1369  0.2627
30702W        W37302   2.921   2.121  30.393  0.2011  0.0509  0.3860
30703W        W37303   0.101   2.056   1.790 -0.1056 -0.3935  0.1647
30704W        W37304  16.147   4.130   0.701 -0.0836 -0.0836  0.2327
30705W        W37305   3.725   0.419  27.035 -0.2887 -0.0891  0.0745
30706W        W37306   7.053   1.874  15.873  0.1601  0.3878 -0.1782
30707W        W37307  24.787   6.693  31.804  0.2917  0.0935  0.2183
30708W        W37308  11.310   0.631   8.543 -0.0553  0.1301  0.0328
30709W        W37309  15.764   0.528  10.143 -0.0463 -0.0648  0.0708
30710W        W37310  20.115   1.821  17.800  0.2876  0.0408  0.4018
30711W        W37311   3.286   0.463  12.240 -0.1320 -0.0350 -0.2569
30712W        W37312  16.867   4.902  30.608  0.0299 -0.3153  0.0443
30713W        W37313   8.256   4.699  28.750  0.0149 -0.0460 -0.0289
30714W        W37314  23.400   1.226  28.720  0.1818  0.2615 -0.0005
30715W        W37315   7.138   7.810  32.339  0.1942  0.0090  0.1708
30716W        W37316  16.628   5.700  21.174 -0.2784 -0.0960 -0.1543
30717W        W37317   7.841   1.697  13.245  0.0284 -0.2368  0.1405
30718W        W37318  17.002   1.640  20.931  0.0458 -0.0577 -0.1190
30719W        W37319   9.072   5.389  13.844  0.0392 -0.1773 -0.3116
30720W        W37320   1.289   1.912  25.811  0.3937  0.0577 -0.3764
30721W        W37321  22.893   1.078  17.074 -0.1582  0.0504  0.3023
30722W        W37322   0.724   2.286   2.508  0.1795 -0.0510 -0.0061
30723W        W37323   3.554   4.356   2.648  0.0644  0.1366  0.2044
30724W        W37324  10.954   0.884  27.564 -0.0230  0.0617  0.1073
30725W        W37325   9.535   2.987  32.533 -0.1172 -0.1622 -0.3112
30726W        W37326  13.948   5.525  14.869  0.0512 -0.0289 -0.2568
30727W        W37327  24.344   3.558   2.435 -0.3376 -0.1318  0.0623
30728W        W37328  23.680   0.384   7.857  0.0023  0.1687 -0.2038
30729W        W37329  17.759   4.648   6.938  0.3125 -0.0284 -0.1736
30730W        W37330  12.067   3.333  32.110 -0.0657 -0.1870 -0.1343
30731W        W37331   9.463   5.239  29.689  0.1851 -0.1538 -0.1726
30732W        W37332  12.729   0.045  32.411 -0.0184 -0.1405  0.1999
30733W        W37333   0.638   2.633  20.826  0.0684 -0.0744 -0.0511
30734W        W37334  24.279   7.295  28.490 -0.1924  0.1680  0.1939
30735W        W37335  10.515   0.233  23.594  0.3975 -0.2407  0.0646
30736W        W37336   3.216   1.983  26.363  0.2033  0.0016 -0.2482
30737W        W37337  15.058   4.455  26.451 -0.2024 -0.1284 -0.3755
30738W        W37338   5.248   6.349  30.083 -0.0592  0.0647 -0.2697
30739W        W37339  15.706   6.404  21.483 -0.1165 -0.1010  0.0693
30740W        W37340  10.312   4.978   1.420 -0.0808  0.0993  0.0209
30741W        W37341  17.829   7.643   0.539 -0.2942  0.0797 -0.2987
30742W        W37342  17.095   2.741   7.333  0.3198  0.0930  0.2309
30743W        W37343  24.372   0.137  20.934  0.1808  0.0944  0.0519
30744W        W37344  12.989   5.173  22.584 -0.2444 -0.1503 -0.1235
30745W        W37345  17.380   6.879  19.324  0.0561 -0.0599 -0.3138
30746W        W37346   8.227   1.007  18.501 -0.0307  0.1549 -0.1599
30747W        W37347   5.309   3.061   2.784 -0.0557  0.0481 -0.0234
30748W        W37348  22.815   5.084   9.305 -0.0058 -0.4478 -0.1757
30749W        W37349  13.434   4.617   9.464  0.0443  0.0401 -0.0054
30750W        W37350  10.178   1.447   3.284 -0.2522 -0.0502 -0.2619
30751W        W37351  19.911   7.330  22.797 -0.0924  0.0867 -0.0191
30752W        W37352  12.338   1.045  29.761 -0.1351 -0.2234 -0.0675
30753W        W37353  19.520   0.658   4.243 -0.2878  0.0966  0.2177
30754W        W37354  24.292   0.636  22.774  0.0470 -0.2401 -0.1833
30755W        W37355  23.397   2.630   7.214  0.1260 -0.4042  0.1250
30756W        W37356  24.592   6.753  22.645 -0.1829 -0.1757 -0.1043
30757W        W37357   7.164   5.314  17.477  0.2357 -0.0871  0.0846
30758W        W37358   0.402   0.465  17.286  0.2030 -0.0457 -0.1696
30759W        W37359  19.587   3.958  17.937 -0.0910 -0.2449 -0.2247
30760W        W37360  18.619   3.436  22.402  0.2514 -0.0646 -0.1267
30761W        W37361   9.958   0.742  25.903 -0.0292  0.0484  0.2762
30762W        W37362  24.648   1.409  32.143  0.1342 -0.3942 -0.2047
30763W        W37363  24.866   4.948  20.848  0.1114  0.1007 -0.0299
30764W        W37364   0.027   5.312   5.455  0.0234 -0.0442 -0.0018
30765W        W37365   1.473   0.412   9.517  0.3254 -0.0428  0.2313
30766W        W37366   0.779   4.918  30.279  0.1322  0.1733 -0.0333
30767W        W37367  21.376   1.971  24.972  0.0137 -0.0552  0.0851
30768W        W37368  11.094   3.251  30.121 -0.1005  0.0923 -0.0826
30769W        W37369  16.324   2.712   6.110  0.0241  0.1711  0.2640
30770W        W37370   5.891   2.664  23.181  0.1104 -0.0793 -0.0160
30771W        W37371  21.533   2.789  28.309 -0.0247  0.0220  0.0117
30772W        W37372  17.346   4.531  18.902  0.3072 -0.1080  0.1824
30773W        W37373  23.810   2.935   7.050 -0.1069  0.4820 -0.1327
30774W        W37374   0.305   3.861   3.018 -0.3176  0.1046 -0.3220
30775W        W37375  16.195   3.575  18.872  0.1646 -0.1789 -0.0364
30776W        W37376  11.370   3.194  14.648 -0.1764  0.3480  0.2096
30777W        W37377  18.710   0.016  22.524  0.0545  0.3042 -0.1163
30778W        W37378   2.550   0.689  11.025  0.3103  0.3945 -0.1265
30779W        W37379  21.363   4.170  18.516  0.2379 -0.0971  0.0722
30780W        W37380  12.278   1.979  26.683  0.0821  0.1713  0.3239
30781W        W37381  10.593   1.605  21.903 -0.0699  0.1555 -0.1924
30782W        W37382   2.099   3.085   5.444 -0.2326  0.2467  0.3076
30783W        W37383   5.101   5.423   1.801  0.0356 -0.1149  0.0550
30784W        W37384   8.762   3.435   4.496 -0.0041  0.0362  0.3076
30785W        W37385  10.713   1.274  27.744  0.0619  0.2400  0.1534
30786W        W37386  23.177   3.794  19.167 -0.1559  0.0189  0.0846
30787W        W37387   0.728   1.732   2.575 -0.0207 -0.1124 -0.0534
30788W        W37388   1.723   1.293  27.142  0.0079 -0.0734 -0.0136
30789W        W37389   6.284   7.603  23.991 -0.2996  0.1703 -0.0000
30790W        W37390   0.131   6.051   4.824 -0.2318 -0.0688 -0.1423
30791W        W37391   5.520   7.628  31.624  0.0837 -0.4073 -0.2783
30792W        W37392  22.411   2.270  16.237  0.1804  0.0028 -0.0458
30793W        W37393   8.161   0.927  13.431 -0.1088  0.2849  0.0329
30794W        W37394  22.750   4.941  20.035  0.1713 -0.1230  0.0064
30795W        W37395   7.263   4.747  24.305 -0.2801 -0.2036 -0.0507
30796W        W37396  11.009   1.112  28.694 -0.0702 -0.2048 -0.1003
30797W        W37397  14.054   1.997  13.226 -0.1617  0.1407 -0.0961
30798W        W37398  14.261   3.223  21.063  0.1160  0.4369  0.1826
30799W        W37399  10.661   1.578  10.164 -0.4429 -0.2245 -0.2707
30800W        W37400   4.985   1.342  29.051 -0.0869  0.1652 -0.2806
30801W        W37401  15.734   6.749  28.156  0.2212 -0.2044 -0.0899
30802W        W37402   5.372   3.794   6.782  0.0943  0.0867 -0.3886
30803W        W37403  22.180   2.640   2.563 -0.0576  0.1286 -0.1352
30804W        W37404  12.617   1.314  23.497  0.3468 -0.2540 -0.2494
30805W        W37405  11.868   3.870   7.094  0.0633  0.2810 -0.1794
30806W        W37406   0.025   5.936  17.931 -0.0655  0.0007 -0.4247
30807W        W37407  19.630   2.302   7.735  0.0333 -0.2696  0.0166
30808W        W37408  13.649   4.967  12.574 -0.0409  0.2541 -0.0146
30809W        W37409   9.800   5.903  30.353  0.2775 -0.1571  0.0888
30810W        W37410  14.672   0.920  20.980  0.1116 -0.0419 -0.0006
30811W        W37411  15.277   3.284  31.940 -0.1942  0.1211  0.0644
30812W        W37412  12.167   1.887  30.184 -0.1502 -0.0729 -0.0076
30813W        W37413  24.874   0.460  27.400  0.0890 -0.2040 -0.0970
30814W        W37414  21.065   5.309  19.139 -0.3938 -0.0560 -0.0064
30815W        W37415  24.251   7.172  15.159  0.0263 -0.0170  0.2146
30816W        W37416  22.122   6.478   5.365  0.1055  0.2022 -0.3467
30817W        W37417  13.093   6.939   1.704  0.0062 -0.2134  0.2358
30818W        W37418  14.012   2.227  11.012 -0.1358 -0.2350 -0.2056
30819W        W37419   8.029   3.734   6.721  0.1309 -0.4853  0.1510
30820W        W37420   3.289   5.008   4.866  0.2215  0.2194 -0.3760
30821W        W37421  12.493   0.181   7.396 -0.1676  0.0679 -0.0755
30822W        W37422  23.408   6.312  31.582 -0.2231  0.1871 -0.3424
30823W        W37423   2.977   6.081  10.049 -0.0861  0.1951 -0.0284
30824W        W37424  21.823   6.240   5.822 -0.1429 -0.0771 -0.0250
30825W        W37425   6.078   3.923   9.196  0.0785 -0.0402  0.0601
30826W        W37426  11.665   3.691   0.238  0.0623  0.4528  0.4854
30827W        W37427  13.706   6.878  14.093  0.0005 -0.0867 -0.1680
30828W        W37428  10.339   1.428  15.996 -0.0065 -0.0402 -0.1437
30829W        W37429  12.410   3.429  13.177  0.0119  0.1020 -0.4485
30830W        W37430  13.425   1.598   9.262  0.2389  0.2276 -0.2566
30831W        W37431  12.327   7.713  24.565  0.1273  0.1500  0.2311
30832W        W37432  15.668   0.269   6.735  0.1546  0.5203 -0.3396
30833W        W37433   4.676   1.695  27.757 -0.2314  0.1278 -0.0528
30834W        W37434  13.305   5.110  25.499  0.0120  0.1359 -0.0674
30835W        W37435   4.155   4.338   6.809  0.2957 -0.2854  0.0889
30836W        W37436   4.074   7.469   5.386 -0.1803  0.1771 -0.1636
30837W        W37437  22.597   0.088  21.002 -0.1471  0.1413  0.0873
30838W        W37438   5.777   2.481  14.846 -0.0625  0.0422  0.0092
30839W        W37439  10.850   5.888   6.519  0.1157 -0.0530  0.0943
30840W        W37440  24.061   1.335   3.743 -0.3962  0.2157  0.2289
30841W        W37441  18.528   4.648  29.957  0.1471 -0.2487 -0.1030
30842W        W37442  20.554   7.656   2.306 -0.0096  0.3699 -0.0029
30843W        W37443   2.696   0.127   0.359  0.1643 -0.0006  0.0676
30844W        W37444  11.310   4.465   4.476  0.2476  0.0388  0.1460
30845W        W37445  14.343   7.793  25.608 -0.0583 -0.0962  0.3293
30846W        W37446  19.129   2.690  19.961 -0.0208 -0.1646 -0.4450
30847W        W37447  20.415   5.353  18.355 -0.1492 -0.0202 -0.0546
30848W        W37448  23.906   2.528  16.643 -0.0320 -0.2080  0.1292
30849W        W37449  14.333   4.191  28.138 -0.0475  0.0912 -0.1681
30850W        W37450  21.468   4.273  22.894  0.1325  0.2077  0.0631
30851W        W37451  20.256   1.919  16.110 -0.0081 -0.0207 -0.0244
30852W        W37452  18.886   6.335  27.870  0.0149 -0.0410 -0.2274
30853W        W37453  12.974   4.448  12.251  0.2045  0.1525  0.0198
30854W        W37454   9.492   1.937   8.289  0.1567 -0.0165  0.0941
30855W        W37455   1.839   5.761   0.840 -0.1494 -0.0574 -0.1483
30856W        W37456   4.247   6.850  13.157  0.3683 -0.1234  0.1256
30857W        W37457  10.393   5.783  10.594  0.0624 -0.1072  0.2309
30858W        W37458   2.676   1.876  28.951 -0.0332 -0.0022  0.2563
30859W        W37459  22.753   7.054  21.218  0.1371 -0.3275 -0.0598
30860W        W37460   2.476   2.399  24.946  0.1288  0.0745  0.1273
30861W        W37461  22.909   5.346   9.706 -0.0744 -0.0934 -0.0718
30862W        W37462  20.156   1.242  16.713  0.0276 -0.1072 -0.1343
30863W        W37463   5.230   0.698   6.388  0.1685  0.0786 -0.1600
30864W        W37464   1.586   3.474   1.599 -0.3616  0.0310  0.0960
30865W        W37465  22.163   2.406   4.856 -0.1741 -0.1258  0.0116
30866W        W37466  16.702   6.459  21.464  0.1137 -0.1097  0.2236
30867W        W37467  17.014   1.905   0.072  0.0982  0.1478 -0.0256
30868W        W37468  24.006   1.678   2.940  0.0564 -0.0354  0.0942
30869W        W37469  19.532   2.243   5.820  0.0333 -0.1391  0.0642
30870W        W37470  16.936   1.080  26.718  0.2396 -0.0536 -0.2024
30871W        W37471  21.332   3.426   8.818  0.3167  0.4395 -0.0254
30872W        W37472  23.603   3.495  29.548  0.0471  0.1328 -0.0519
30873W        W37473  22.438   4.664  31.964 -0.2621  0.1567  0.0864
30874W        W37474  21.006   0.362   7.949 -0.1268  0.2456 -0.0921
30875W        W37475   7.075   6.565   7.879 -0.0025 -0.1834 -0.0458
30876W        W37476   1.550   2.379  25.514 -0.1703  0.3354  0.0396
30877W        W37477   7.783   7.421  18.168  0.1341  0.2347 -0.1930
30878W        W37478   9.321   7.273   6.373  0.2664 -0.0739 -0.0677
30879W        W37479   5.329   0.083  17.548 -0.0044 -0.1546 -0.1244
30880W        W37480  15.256   0.905  28.511  0.2460 -0.2327 -0.0960
30881W        W37481   5.175   3.827   0.054 -0.1038 -0.0420  0.0426
30882W        W37482  12.978   0.482  11.078  0.2503 -0.2116 -0.1847
30883W        W37483   5.716   3.022  29.180 -0.1063 -0.1717  0.0009
30884W        W37484   6.072   1.084  25.946 -0.2525  0.1650  0.0325
30885W        W37485  12.289   7.011  13.493 -0.2114 -0.2071 -0.2017
30886W        W37486  12.252   2.452  10.120  0.0318  0.3260 -0.1459
30887W        W37487  17.865   3.695  17.769  0.1292 -0.1143 -0.0957
30888W        W37488  21.436   4.846   2.921  0.0379 -0.0822 -0.3230
30889W        W37489  17.786   0.481  27.287  0.3808 -0.1109 -0.0419
30890W        W37490   4.178   4.784   7.013  0.1524 -0.1663  0.6167
30891W        W37491   4.762   2.443  27.511 -0.1438 -0.0360  0.1580
30892W        W37492   8.786   5.727   3.885 -0.0810 -0.1223  0.0707
30893W        W37493  20.199   1.041   1.830  0.2162  0.1231  0.0116
30894W        W37494  10.563   4.784  23.614 -0.0086 -0.4558  0.1471
30895W        W37495   6.252   5.378  22.722 -0.2808  0.0681  0.0853
30896W        W37496  14.366   0.660   7.939 -0.0645 -0.0053 -0.1727
30897W        W37497  14.646   1.999  26.539 -0.0324 -0.1996 -0.1499
30898W        W37498   8.187   1.681  10.724 -0.0437  0.0454 -0.0913
30899W        W37499   2.023   5.075   5.808 -0.1053  0.0962 -0.0600
30900W        W37500  19.124   0.871  29.409 -0.0704 -0.4040 -0.0631
30901W        W37501   6.524   0.718  11.079 -0.2062 -0.0059 -0.0350
30902W        W37502  23.502   7.203  27.318 -0.0120  0.1193  0.3993
30903W        W37503  17.350   4.820   7.257  0.2242  0.1570  0.0907
30904W        W37504   5.227   4.945  31.292 -0.0489  0.1161  0.2623
30905W        W37505  16.650   1.417  21.312 -0.2620 -0.0635 -0.1009
30906W        W37506   3.218   3.294  29.994  0.1757 -0.2503  0.0107
30907W        W37507  14.718   3.903  25.502 -0.1787  0.2839 -0.0564
30908W        W37508  24.206   6.378  19.056 -0.0126 -0.1037 -0.0556
30909W        W37509  13.267   1.474   8.492  0.3166  0.0202  0.0396
30910W        W37510  16.528   0.572  24.769 -0.2925 -0.2866  0.0598
30911W        W37511   9.419   4.302  14.629 -0.0420  0.0011 -0.0055
30912W        W37512   7.917   5.426   4.681  0.5365  0.1225 -0.1030
30913W        W37513  22.567   4.923  18.238  0.4180 -0.2987 -0.1948
30914W        W37514   2.385   5.131  25.746 -0.1572  0.0928 -0.0246
30915W        W37515   3.833   4.031   7.142  0.0107 -0.1012 -0.0187
30916W        W37516  12.490   2.611  26.039 -0.0577  0.1438  0.1911
30917W        W37517  19.040   3.937  18.982 -0.1262  0.2084 -0.1511
30918W        W37518   9.048   5.465  28.817 -0.2997 -0.2143 -0.2376
30919W        W37519  16.215   6.975  28.269  0.1072  0.4206  0.0267
30920W        W37520  19.311   7.529  21.179  0.2110 -0.1648 -0.0404
30921W        W37521   2.046   1.688  11.904  0.0716 -0.0956  0.0712
30922W        W37522  18.317   4.477  25.502 -0.2594  0.3157  0.3595
30923W        W37523   5.802   3.172  23.359  0.2756  0.1075 -0.0848
30924W        W37524   6.613   5.761  12.452 -0.0938 -0.0574 -0.0760
30925W        W37525   0.381   2.947  19.695  0.1227 -0.0619  0.2256
30926W        W37526  18.691   3.856   6.013  0.0301  0.0862  0.1531
30927W        W37527   8.309   3.117   5.758 -0.2176 -0.0465 -0.0954
30928W        W37528   9.154   5.429   3.674  0.3485 -0.2594 -0.0464
30929W        W37529  23.509   7.595   8.499 -0.2199  0.1305  0.1663
30930W        W37530   9.864   6.613  27.747  0.0732 -0.4350  0.0189
30931W        W37531  16.308   7.020  18.794 -0.3637 -0.4413  0.2567
30932W        W37532  10.725   6.680   5.435 -0.0423  0.0962  0.1728
30933W        W37533   2.862   6.970   5.639  0.1714  0.0009 -0.1558
30934W        W37534   9.276   6.186   9.205  0.0099  0.2716  0.2128
30935W        W37535  19.538   7.739   0.578 -0.1499 -0.1205 -0.1104
30936W        W37536  13.391   6.688  23.583 -0.0022  0.5182  0.0110
30937W        W37537   0.648   3.387   8.800 -0.0493  0.0752 -0.3104
30938W        W37538   0.052   6.245   9.207 -0.0257 -0.0026  0.0617
30939W        W37539   8.342   1.522  17.179  0.0474  0.1944  0.2820
30940W        W37540  20.603   2.205  30.409 -0.0910 -0.2555  0.1360
30941W        W37541  18.278   4.426   5.180  0.0277 -0.2528  0.0092
30942W        W37542   2.023   1.697  32.502 -0.1006 -0.2064  0.0107
30943W        W37543  21.639   2.812   3.345 -0.3230 -0.0501  0.0781
30944W        W37544  21.045   4.481   2.629  0.0746 -0.1505 -0.0286
30945W        W37545  15.912   7.579  12.748  0.1346  0.0640  0.0460
30946W        W37546  13.905   4.075  29.411  0.0842 -0.1665 -0.2086
30947W        W37547   9.593   1.150  25.491 -0.1520 -0.0773 -0.0523
30948W        W37548  12.016   3.443  12.273  0.2485 -0.0692 -0.0315
30949W        W37549  22.896   5.632  31.615  0.0194  0.0466 -0.0509
30950W        W37550  23.600   4.144   3.508 -0.1507  0.1131  0.2581
30951W        W37551  14.651   3.076  19.990 -0.1088  0.3191  0.2016
30952W        W37552   8.190   4.174   2.572 -0.1056 -0.1424  0.2884
30953W        W37553  21.279   2.027  18.117  0.2103  0.0488 -0.0292
30954W        W37554  18.403   7.535  28.571  0.2336  0.1006 -0.0672
30955W        W37555  18.109   0.991  28.491  0.0917 -0.1003 -0.0664
30956W        W37556  23.098   5.001  27.668 -0.1984 -0.3393 -0.0122
30957W        W37557  15.874   2.330  30.426  0.0619 -0.0186 -0.0927
30958W        W37558   9.940   2.569  13.364  0.3410  0.1483 -0.1717
30959W        W37559   4.035   0.774  14.640 -0.0109 -0.0059  0.0073
30960W        W37560  19.761   3.817  27.670 -0.3923  0.0135 -0.0953
30961W        W37561  21.268   2.145  19.014 -0.1476  0.0021 -0.0282
30962W        W37562  17.912   0.688   6.201 -0.1736 -0.2169  0.1193
30963W        W37563  21.032   3.634  24.870 -0.2180 -0.2176  0.0681
30964W        W37564   6.090   3.506   0.147  0.0017  0.1596  0.0402
30965W        W37565   6.012   3.009  16.243  0.1266  0.1506 -0.1041
30966W        W37566  21.662   6.408  23.719  0.1407 -0.1457  0.1315
30967W        W37567   3.047   1.658  30.153 -0.0556 -0.3797  0.2421
30968W        W37568   8.315   1.598  12.897 -0.0391 -0.0802 -0.0230
30969W        W37569   1.459   7.807  20.777 -0.0696  0.1252  0.0635
30970W        W37570  14.828   1.405   7.677 -0.1797  0.0071 -0.5435
30971W        W37571  11.728   1.288  23.653 -0.2136  0.0592 -0.1119
30972W        W37572   9.823   3.779  13.858  0.0268 -0.2221  0.1500
30973W        W37573  15.816   0.441   3.897 -0.2372 -0.3181 -0.2300
30974W        W37574  18.472   5.626  18.600  0.1414  0.4132 -0.1492
30975W        W37575  10.127   2.986  29.762 -0.0670 -0.1584  0.1306
30976W        W37576  16.793   5.010   0.025 -0.0286  0.3171  0.0091
30977W        W37577  20.597   4.018   9.092 -0.1192  0.0258 -0.0639
30978W        W37578  22.858   5.836  15.426 -0.1435  0.0113  0.2061
30979W        W37579  19.379   5.873  22.527 -0.0233  0.0908 -0.2413
30980W        W37580   0.722   2.500   3.498  0.1506 -0.2488  0.2606
30981W        W37581  15.067   5.907  21.378  0.1880  0.3315 -0.1258
30982W        W37582  16.447   6.090  17.483  0.1543  0.0381 -0.2790
30983W        W37583  21.964   2.781  21.514 -0.1155  0.0809 -0.1008
30984W        W37584  20.109   3.936  26.377 -0.1208  0.0812  0.1473
30985W        W37585  14.865   3.264  22.577 -0.1204 -0.1852 -0.0790
30986W        W37586   8.793   0.282  27.956 -0.1759  0.1409  0.1484
30987W        W37587  10.182   0.338  14.233  0.3615 -0.0765  0.1870
30988W        W37588  13.787   0.059   6.283  0.1809 -0.2295 -0.0953
30989W        W37589   9.433   0.951   6.826  0.1495 -0.0328 -0.2350
30990W        W37590  17.062   5.333  17.845  0.0211  0.1689  0.0271
30991W        W37591   0.775   1.656  28.281  0.0209 -0.0646 -0.2771
30992W        W37592   2.830   4.114   0.137  0.2447 -0.2913 -0.0016
30993W        W37593   1.715   1.755  25.003 -0.0027 -0.0517  0.2465
30994W        W37594   6.150   3.786  26.395  0.0320  0.0618 -0.2322
30995W        W37595  14.698   5.880  23.539 -0.0279  0.0548  0.0107
30996W        W37596  23.443   1.284  16.410  0.1296  0.4101  0.4154
30997W        W37597   7.797   0.977   9.587 -0.0161 -0.0630  0.0917
30998W        W37598  24.474   1.415  15.483 -0.0505 -0.4861 -0.1385
30999W        W37599  18.289   5.063  19.127  0.0857  0.1232  0.0383
31000W        W37600   2.473   7.388  12.716 -0.0589  0.0553 -0.2636
31001W        W37601   9.030   5.527  12.118 -0.2338  0.1629  0.0248
31002W        W37602  24.543   2.667  28.437  0.3484 -0.0092 -0.4635
31003W        W37603   6.952   7.331   2.876 -0.1773 -0.0231  0.1030
31004W        W37604  14.884   6.421  32.528 -0.0111 -0.1659  0.1720
31005W        W37605   0.782   0.412   0.547  0.1891 -0.0313  0.1740
31006W        W37606   6.230   2.359  28.012 -0.1253 -0.1990 -0.3552
31007W        W37607  14.207   2.076  30.454 -0.2101  0.3950 -0.0947
31008W        W37608  25.020   1.852   1.018  0.0458  0.0759 -0.0402
31009W        W37609  12.673   5.897  11.956  0.0250 -0.3265 -0.3448
31010W        W37610  12.759   1.867  11.866  0.2751  0.0847  0.2010
31011W        W37611  18.316   2.997   0.451  0.1123 -0.0103  0.4594
31012W        W37612  11.165   2.626  13.224 -0.0158 -0.1026  0.1475
31013W        W37613  22.993   2.565  10.096 -0.1003 -0.4710 -0.1372
31014W        W37614  19.162   1.541   5.198  0.2425  0.0981  0.1437
31015W        W37615  19.366   5.717   6.197  0.0345 -0.0539  0.1641
31016W        W37616  14.703   5.398  24.415 -0.2331  0.1344 -0.1386
31017W        W37617  13.430   2.528   1.054 -0.0299  0.3035  0.2449
31018W        W37618   2.841   7.090  12.028  0.1518  0.2099  0.0442
31019W        W37619   2.123   4.355   9.735 -0.0923 -0.0373 -0.2516
31020W        W37620   7.402   7.277   5.135  0.0670 -0.1467 -0.1845
31021W        W37621   1.465   5.554   0.520 -0.0070  0.0262  0.1390
31022W        W37622   5.041   4.227   4.666 -0.0512 -0.3879 -0.0749
31023W        W37623   9.678   2.076  24.554 -0.3998 -0.0688 -0.1549
31024W        W37624  19.015   1.202  27.409 -0.0592  0.0318 -0.0514
31025W        W37625   2.172   3.906  26.567 -0.2420  0.1175  0.2822
31026W        W37626  18.356   6.625  18.169  0.0336 -0.0677  0.1275
31027W        W37627  10.308   3.387   0.312  0.1602  0.0403  0.1459
31028W        W37628  20.962   1.223   7.476 -0.3497 -0.1783  0.0883
31029W        W37629  23.863   2.992  24.538 -0.0954 -0.2100 -0.1350
31030W        W37630  18.618   0.123  16.232 -0.2296  0.0775  0.1730
31031W        W37631   9.786   6.487   5.474  0.0237  0.0588 -0.0475
31032W        W37632  16.918   6.781   5.341  0.0653 -0.2635 -0.0874
31033W        W37633  14.226   6.620  22.441  0.1388  0.0697 -0.1556
31034W        W37634   6.785   5.723   5.319 -0.2214 -0.1016 -0.3646
31035W        W37635  24.568   2.582  22.142  0.1764 -0.0633 -0.1707
31036W        W37636   3.932   1.488  27.427  0.1583  0.2011  0.0912
31037W        W37637  16.564   1.452  24.277  0.2203  0.2171 -0.1182
31038W        W37638  17.149   7.660  31.218  0.2779 -0.0675 -0.1116
31039W        W37639  19.178   6.166  16.203  0.1723 -0.0035  0.2021
31040W        W37640  20.720   1.561  29.026  0.0930  0.0016 -0.3491
31041W        W37641  21.396   6.675   8.043  0.0862 -0.1708  0.0678
31042W        W37642   8.738   6.463  15.036 -0.0993 -0.2806 -0.1183
31043W        W37643   7.576   6.043  15.336 -0.3573  0.1639 -0.1168
31044W        W37644  12.127   3.883   1.280  0.1016  0.2970 -0.0290
31045W        W37645  12.371   1.547  11.583  0.1396  0.2999 -0.0855
31046W        W37646  24.352   5.925  23.810  0.0677 -0.1898  0.0944
31047W        W37647  15.654   2.799  29.163  0.0017  0.1355 -0.0261
31048W        W37648  14.405   7.579  20.439  0.2549 -0.1800  0.0126
31049W        W37649  10.067   3.531   5.571 -0.0594  0.2366  0.0071
31050W        W37650  23.005   2.428  22.950 -0.0319  0.2360 -0.1390
31051W        W37651   4.851   0.470  32.686  0.1464  0.2444 -0.1088
31052W        W37652   4.406   6.480   0.859 -0.1964  0.0994  0.1514
31053W        W37653   5.584   5.099  12.768  0.1651 -0.0317  0.1373
31054W        W37654  23.192   0.369  15.790  0.1018  0.0426 -0.0957
31055W        W37655  22.519   4.156  29.466  0.3270  0.1056  0.0436
31056W        W37656   9.910   6.462  12.601 -0.0933 -0.1595 -0.1631
31057W        W37657   9.998   4.753  30.420  0.1132  0.1004 -0.2420
31058W        W37658  17.428   5.409   9.361  0.3551  0.0029  0.0033
31059W        W37659   0.328   2.213   3.388  0.0897 -0.0973  0.2571
31060W        W37660  24.207   1.637  25.111 -0.2284  0.0689  0.1146
31061W        W37661   1.436   6.523  31.231  0.1024  0.0933 -0.0177
31062W        W37662  22.985   3.664  16.754 -0.0791  0.0053  0.1720
31063W        W37663   8.220   0.877  27.373 -0.0813  0.0088  0.1166
31064W        W37664  20.842   1.275  15.070 -0.0202 -0.4186 -0.0177
31065W        W37665  12.918   5.857  12.492 -0.2173  0.0551  0.2283
31066W        W37666   9.486   1.693  11.267  0.2358  0.0351  0.0789
31067W        W37667  12.542   6.102   5.186  0.4218  0.4828  0.0730
31068W        W37668   9.505   1.123  18.181 -0.1123  0.0699  0.1221
31069W        W37669   4.682   6.298  11.540 -0.0561  0.2082 -0.2188
31070W        W37670   4.383   3.066  13.824 -0.0667  0.0942  0.3989
31071W        W37671  23.821   1.982  15.225  0.0700  0.0473 -0.0061
31072W        W37672   3.014   6.978   9.806  0.1224 -0.1191  0.2596
31073W        W37673   6.929   3.295  32.608  0.0162 -0.1975  0.0602
31074W        W37674   4.010   7.650  25.417 -0.1551  0.0326 -0.0306
31075W        W37675   1.636   6.937  28.618 -0.3161 -0.1637 -0.0748
31076W        W37676  21.446   4.722  15.058 -0.0071 -0.1766 -0.2844
31077W        W37677  11.485   6.411  23.217 -0.1253 -0.2780 -0.1620
31078W        W37678   2.559   7.423  11.304 -0.1274  0.2544 -0.2647
31079W        W37679  20.213   3.174   6.781  0.2732 -0.4179 -0.3355
31080W        W37680  19.970   3.774  15.832  0.1319  0.1354  0.2635
31081W        W37681  17.893   0.203   3.817  0.1940 -0.0317 -0.0007
31082W        W37682  16.813   7.480   9.287  0.1736 -0.2817 -0.1347
31083W        W37683   3.954   6.537  13.430  0.0130  0.0352  0.1310
31084W        W37684   8.616   0.330  25.105 -0.2038  0.0600 -0.2324
31085W        W37685   4.174   2.283  26.380  0.2349 -0.1688  0.2023
31086W        W37686   3.900   7.180  10.016 -0.0385 -0.1489 -0.2419
31087W        W37687   3.847   6.027  10.183  0.0692  0.0369  0.1462
31088W        W37688  24.108   1.012  16.149 -0.0673  0.0983 -0.1236
31089W        W37689  20.305   3.625  14.605  0.0067 -0.0354 -0.0778
31090W        W37690  21.977   5.937  30.367  0.0469  0.3683 -0.1570
31091W        W37691   6.643   5.822  28.918  0.0326  0.2376 -0.0812
31092W        W37692   6.778   2.194  14.643 -0.0868 -0.1800  0.0685
31093W        W37693   4.234   5.667  14.299  0.0399 -0.1467 -0.0245
31094W        W37694   4.845   1.074   8.125  0.1329 -0.0557  0.1149
31095W        W37695   2.762   1.920  23.495  0.2250  0.0897  0.3176
31096W        W37696  22.538   1.970   1.287  0.1071 -0.0881  0.0870
31097W        W37697   5.109   3.528  29.522 -0.1851  0.0676  0.0016
31098W        W37698  15.274   3.938   6.008  0.0605  0.0784  0.2491
31099W        W37699  20.281   3.257  21.017  0.1322  0.0826 -0.2891
31100W        W37700  10.734   2.561   0.279 -0.2144 -0.2798 -0.1021
31101W        W37701  20.983   4.354  23.074 -0.1111 -0.1658  0.1725
31102W        W37702  17.035   0.684   6.543 -0.0870  0.3691 -0.0127
31103W        W37703  11.257   4.847  29.194 -0.1263  0.0601  0.1939
31104W        W37704  17.299   5.843   0.230 -0.1100  0.2152 -0.1207
31105W        W37705  10.264   2.884  29.253  0.0577 -0.1697  0.1166
31106W        W37706   5.251   5.181   4.489 -0.0753  0.4760  0.0855
31107W        W37707   8.730   2.677  12.859 -0.1136 -0.4432  0.1827
31108W        W37708   4.741   0.419  16.883 -0.0920 -0.0826  0.1774
31109W        W37709  13.025   7.456   0.939 -0.0012 -0.0140 -0.0097
31110W        W37710  14.717   2.904  23.435  0.2374 -0.1047  0.1102
31111W        W37711   5.266   7.782   6.070  0.0938 -0.2182 -0.1496
31112W        W37712  20.493   2.529  32.365  0.1404  0.3538 -0.1509
31113W        W37713  23.916   5.657   8.033 -0.1146  0.2632  0.5351
31114W        W37714   8.632   0.325   4.191  0.0997  0.0088 -0.0151
31115W        W37715  17.312   7.490  29.470 -0.1123  0.2013  0.2557
31116W        W37716  13.366   5.893  28.293  0.1011 -0.0106 -0.0728
31117W        W37717  11.759   4.855  13.695  0.0740  0.0916  0.1649
31118W        W37718  17.878   2.059  24.557  0.1172 -0.0334  0.2250
31119W        W37719  13.772   2.692   1.408 -0.1016 -0.0277 -0.2152
31120W        W37720  10.397   5.216  17.475  0.2172  0.0078  0.0088
31121W        W37721  22.986   0.416   1.119  0.0962  0.0440  0.3521
31122W        W37722   3.230   4.666  11.521  0.0863 -0.0900 -0.2551
31123W        W37723  17.796   0.770   0.803 -0.0381 -0.1672 -0.0749
31124W        W37724  18.329   2.459  21.082 -0.1463  0.1877 -0.2315
31125W        W37725   6.028   7.115  32.131  0.0084 -0.2860  0.1370
31126W        W37726   9.738   1.642  25.215  0.1072  0.1047 -0.1676
31127W        W37727  17.958   7.528  19.523 -0.0013  0.0636 -0.4286
31128W        W37728  15.964   3.282  25.607 -0.1577 -0.0206 -0.3187
31129W        W37729  17.848   2.328   0.996 -0.0598 -0.1018  0.1065
31130W        W37730  17.967   1.416   4.675  0.0969 -0.1553 -0.1887
31131W        W37731   8.648   3.367  10.816 -0.0804 -0.2316  0.1666
31132W        W37732  21.435   3.336  31.516  0.3606 -0.1166  0.3114
31133W        W37733   7.579   7.529  25.349 -0.1648 -0.1355 -0.1196
31134W        W37734  15.903   4.677  29.238 -0.1009  0.1926  0.1859
31135W        W37735  11.219   5.408  12.317  0.0706 -0.0287  0.2880
31136W        W37736   7.939   5.514   9.792 -0.3073 -0.0532 -0.0993
31137W        W37737   4.291   3.684  22.579 -0.0412 -0.0658  0.0720
31138W        W37738  23.596   4.248  10.292 -0.0370 -0.0247  0.1262
31139W        W37739  23.241   7.329  29.520  0.0144  0.2605  0.0262
31140W        W37740   8.473   1.701  15.910  0.3638  0.1073  0.0493
31141W        W37741   2.922   2.381  25.608 -0.1683  0.0299  0.2497
31142W        W37742   0.432   0.596   3.336  0.1750 -0.2949 -0.0239
31143W        W37743  18.286   0.999  20.640  0.1717  0.2534 -0.0549
31144W        W37744   1.041   5.065   7.339 -0.1971  0.1226 -0.1146
31145W        W37745  11.902   6.804  14.485 -0.2111 -0.0061 -0.0593
31146W        W37746   7.808   4.450  22.191 -0.1631 -0.1483 -0.0849
31147W        W37747   8.520   3.308  12.219  0.1666  0.1429  0.0352
31148W        W37748  13.966   3.344   9.807 -0.3199 -0.0697 -0.4004
31149W        W37749   8.130   3.891  30.550  0.1032 -0.1814 -0.1724
31150W        W37750  21.879   4.196   3.496 -0.0409 -0.0835 -0.2065
31151W        W37751  10.832   4.821  24.006 -0.0754  0.0316 -0.0799
31152W        W37752   2.975   5.236   5.771 -0.0604  0.2655 -0.5467
31153W        W37753  23.646   2.604  31.114 -0.0309  0.0087 -0.0058
31154W        W37754  17.740   2.651   0.199  0.0699  0.0539 -0.0286
31155W        W37755  20.663   5.028   6.621  0.0486 -0.1069  0.2438
31156W        W37756  15.040   0.693   1.134 -0.0154 -0.1243  0.0493
31157W        W37757  13.745   1.996  26.308 -0.1753  0.1339 -0.1937
31158W        W37758  21.202   5.804  28.241 -0.1312 -0.2414 -0.1110
31159W        W37759  11.186   7.752  24.910 -0.3455 -0.4002 -0.3407
31160W        W37760  24.360   1.709  21.736  0.1000 -0.0777  0.3033
31161W        W37761   8.691   2.530  15.927 -0.2371  0.2867  0.0514
31162W        W37762   4.220   3.163   3.146 -0.2467 -0.2493  0.2000
31163W        W37763   7.717   1.068   2.793 -0.1636  0.1666  0.0036
31164W        W37764  11.747   3.343  29.660  0.5061 -0.0675  0.3648
31165W        W37765   1.257   0.690  21.408  0.1361 -0.1148 -0.0519
31166W        W37766  11.851   3.544  30.147 -0.0426  0.1230  0.2553
31167W        W37767   4.976   4.473   7.404  0.2827 -0.0619  0.0723
31168W        W37768  20.338   3.327  18.874  0.1788  0.1840 -0.0783
31169W        W37769   7.121   1.006   6.049  0.0317 -0.2656  0.2465
31170W        W37770  11.894   6.725  32.446  0.0980 -0.0047  0.1425
31171W        W37771  16.933   3.432  19.514  0.0696 -0.0032  0.2101
31172W        W37772  20.137   1.792   5.766  0.1959 -0.4448  0.2431
31173W        W37773   7.318   2.188  17.244 -0.0948 -0.1445 -0.2263
31174W        W37774  20.144   0.341  17.030 -0.2746 -0.1437  0.0301
31175W        W37775  11.740   0.486  16.947  0.0206  0.1023 -0.1307
31176W        W37776  20.020   3.159   5.024 -0.0710  0.0378  0.1474
31177W        W37777   3.311   5.788  14.153  0.0696 -0.1823 -0.0092
31178W        W37778  16.976   5.895  31.992 -0.4694  0.1005  0.1458
31179W        W37779   3.162   5.617   5.965 -0.0701 -0.1302 -0.1756
31180W        W37780   2.444   3.676  21.913  0.0543  0.0847 -0.1811
31181W        W37781   3.120   5.615  27.010 -0.2802 -0.1269 -0.1898
31182W        W37782  11.168   3.317   0.468  0.0085 -0.2015  0.0074
31183W        W37783   7.492   0.581  31.035  0.0027  0.0946  0.0502
31184W        W37784   8.666   2.766  29.914  0.1537  0.0686 -0.3009
31185W        W37785   7.992   7.631   5.831 -0.0623  0.0137  0.2029
31186W        W37786  12.794   6.347   9.621  0.1345  0.1387 -0.2394
31187W        W37787  19.093   3.810   7.091  0.0505 -0.0351  0.1665
31188W        W37788  24.517   3.582  31.578 -0.0161  0.1069 -0.1929
31189W        W37789   9.425   6.446  15.402  0.0946  0.1674 -0.0515
31190W        W37790   4.504   0.298   5.078  0.2605  0.2228  0.1938
31191W        W37791  10.737   1.254   6.458 -0.2987  0.2880 -0.0854
31192W        W37792  15.783   4.377  24.623 -0.1777 -0.1134  0.1225
31193W        W37793   2.414   0.338   9.182  0.1356 -0.2009  0.1707
31194W        W37794  22.347   6.410  16.048  0.4114  0.1938 -0.0250
31195W        W37795   9.586   2.721  31.082  0.3525  0.1263 -0.0386
31196W        W37796  25.036   3.955  20.591  0.1564  0.1280  0.0949
31197W        W37797  16.967   3.895   7.493  0.1584  0.0570  0.1006
31198W        W37798  22.790   6.636  19.026  0.1013  0.0943 -0.0456
31199W        W37799   0.621   4.711  25.899  0.1124 -0.1328  0.0485
31200W        W37800  12.662   3.888   8.596  0.1654 -0.1997 -0.2363
31201W        W37801   5.223   4.400  28.182  0.0608 -0.2443  0.1018
31202W        W37802  23.159   1.311  20.922 -0.1594  0.1796 -0.1166
31203W        W37803   6.437   6.123   8.649  0.1470 -0.2444 -0.0562
31204W        W37804  18.603   5.376   9.982  0.0741 -0.3149 -0.2922
31205W        W37805  17.190   1.890  31.547  0.1659 -0.0243  0.1740
31206W        W37806  20.031   1.697  20.295  0.1580  0.3609  0.2926
31207W        W37807  20.309   4.729  21.043 -0.0177  0.4032 -0.0898
31208W        W37808   8.898   4.812  30.775  0.0364 -0.0353 -0.2608
31209W        W37809   3.840   3.589  26.092 -0.1897 -0.1741  0.0563
31210W        W37810   9.238   5.840   7.934 -0.0081  0.1673  0.1067
31211W        W37811  21.410   6.476  17.274 -0.0530 -0.1120  0.0929
31212W        W37812  10.817   4.052  27.208  0.2693  0.0332  0.0392
31213W        W37813  13.007   1.305  30.488 -0.0782  0.2676 -0.0001
31214W        W37814   5.248   1.594   8.258 -0.3432 -0.0602 -0.1572
31215W        W37815  18.121   2.869  29.028 -0.1174 -0.1898  0.2898
31216W        W37816  24.602   4.882   2.620 -0.3839  0.1123 -0.2693
31217W        W37817  15.284   6.197  26.819 -0.0087 -0.1056  0.0316
31218W        W37818  18.718   7.112  25.181  0.1379  0.0686 -0.0946
31219W        W37819  18.190   1.743  25.753  0.0684  0.1604  0.2579
31220W        W37820   5.751   1.014  26.840 -0.0734  0.2053  0.0554
31221W        W37821   9.754   5.475   9.464 -0.1275  0.2171  0.2786
31222W        W37822   2.899   5.022  29.439  0.1004  0.0794 -0.4016
31223W        W37823  15.459   7.769   0.029 -0.0797 -0.0194 -0.0897
31224W        W37824  12.579   4.227   5.214  0.0255 -0.0379 -0.2439
31225W        W37825  20.402   3.823  29.525  0.1864  0.0310  0.1926
31226W        W37826  11.399   5.933  29.437  0.0702  0.1061 -0.4113
31227W        W37827  14.021   7.453  10.248  0.0944  0.1268 -0.0113
31228W        W37828   9.568   3.886   0.777  0.3152 -0.1648 -0.0514
31229W        W37829  12.638   7.535   6.069 -0.1090  0.0844 -0.1526
31230W        W37830  17.080   7.238  20.187  0.1370 -0.2164  0.1355
31231W        W37831  18.017   3.801  16.807  0.0164  0.0877 -0.0791
31232W        W37832  22.465   2.747  21.337 -0.0258 -0.0502 -0.2659
31233W        W37833   8.945   2.982  14.121 -0.1367  0.1330  0.3625
31234W        W37834  10.609   5.971   8.514  0.2067 -0.1690 -0.2978
31235W        W37835  24.732   3.105   3.888  0.1840  0.1547 -0.0279
31236W        W37836  17.297   1.885  28.616  0.2058 -0.3072  0.1510
31237W        W37837   9.963   5.199   6.050 -0.1502  0.0925 -0.2342
31238W        W37838   8.667   4.359  10.527 -0.0220  0.1197 -0.0323
31239W        W37839   9.504   7.741  10.121  0.0812 -0.3027 -0.1494
31240W        W37840  23.497   1.271   2.398 -0.0499  0.1379  0.0446
31241W        W37841  10.046   2.967  14.978  0.0428  0.1373 -0.2035
31242W        W37842  14.012   5.881   1.720  0.0732  0.0115 -0.0682
31243W        W37843   3.356   4.252   7.038 -0.1687 -0.0821 -0.2181
31244W        W37844  15.573   5.873  25.958  0.0170  0.1334 -0.1125
31245W        W37845   5.385   1.382  28.757  0.0197 -0.0034 -0.0205
31246W        W37846  12.221   4.663  26.217  0.0262  0.0990 -0.2274
31247W        W37847  19.505   7.028  30.442  0.2574  0.0225  0.1471
31248W        W37848  19.190   3.797  27.442  0.2003  0.3451 -0.2494
31249W        W37849  11.808   7.505   8.565 -0.0720  0.1361 -0.0621
31250W        W37850  10.753   5.749  14.246  0.2249  0.1362 -0.0040
31251W        W37851  12.865   6.495  13.409 -0.0523 -0.2433 -0.1239
31252W        W37852  21.812   4.520   3.074  0.0300 -0.1411  0.1443
31253W        W37853  21.210   0.227  14.965 -0.0059  0.3229 -0.1139
31254W        W37854  22.326   2.719   3.948  0.0342 -0.0261 -0.2170
31255W        W37855   2.166   6.972   7.272 -0.0546 -0.1646 -0.0842
31256W        W37856   0.933   6.431  32.565  0.0188 -0.1894 -0.1589
31257W        W37857   8.688   1.129   6.223  0.0212 -0.0224 -0.0492
31258W        W37858  13.223   7.050  13.877 -0.0812 -0.1358  0.1388
31259W        W37859   0.140   7.216   7.444  0.0109  0.1163  0.1256
31260W        W37860  19.543   7.625   1.603  0.2027 -0.1527 -0.1360
31261W        W37861   8.155   7.261  31.813  0.0409  0.0843 -0.3036
31262W        W37862  20.769   3.990  29.736  0.1317  0.0230 -0.0907
31263W        W37863   6.789   3.705  17.722  0.0143 -0.0750  0.2103
31264W        W37864   2.490   4.420   2.693  0.2706  0.2246 -0.2285
31265W        W37865   4.746   0.308   3.759  0.3713 -0.0608 -0.0553
31266W        W37866   0.554   5.547  21.284  0.0416 -0.0233 -0.2061
31267W        W37867  13.623   3.918  30.370  0.4418 -0.0055 -0.0162
31268W        W37868   4.228   3.131   5.653  0.2608  0.0491  0.1547
31269W        W37869   9.272   1.061   6.255  0.1165  0.0928  0.1556
31270W        W37870   5.553   2.671   7.627  0.1027  0.0942 -0.0414
31271W        W37871  20.962   4.023   4.153 -0.0822  0.0158 -0.0501
31272W        W37872   0.078   2.353  30.436 -0.0115 -0.2083 -0.1559
31273W        W37873  19.853   6.111   9.576  0.3284  0.0357  0.1319
31274W        W37874  20.434   3.382  29.922  0.0154 -0.1009  0.1932
31275W        W37875  14.424   1.612  11.616 -0.1624 -0.0613 -0.2968
31276W        W37876   9.501   7.396  14.157 -0.1159  0.0854  0.0530
31277W        W37877   2.333   1.169   1.740  0.0977 -0.0464  0.1350
31278W        W37878   0.291   0.678  10.723 -0.1731  0.2246  0.2015
31279W        W37879  24.360   7.256  19.328  0.1708  0.1592 -0.1639
31280W        W37880  12.762   6.447   0.286 -0.3802 -0.0634 -0.1167
31281W        W37881  10.203   7.489  17.383  0.2638  0.2812 -0.1506
31282W        W37882  24.103   2.223  24.943 -0.0634  0.0161 -0.0946
31283W        W37883  21.741   2.278   6.265 -0.1753 -0.0394 -0.0188
31284W        W37884  23.957   5.470  17.164 -0.0566  0.3536 -0.0525
31285W        W37885  18.718   3.169  23.543 -0.2192  0.3168  0.0917
31286W        W37886  16.328   3.701  23.030 -0.2281 -0.1171 -0.1997
31287W        W37887  13.462   1.890  25.163  0.1252 -0.0573 -0.1818
31288W        W37888   5.910   3.593  16.852  0.1280 -0.1218  0.0742
31289W        W37889  14.832   4.943  10.208 -0.5799 -0.0033  0.0154
31290W        W37890  17.096   6.452  17.774 -0.3877  0.1000 -0.3031
31291W        W37891  11.306   2.952  13.629  0.1363  0.2038 -0.0786
31292W        W37892   1.793   7.782   5.457 -0.1947  0.0296 -0.2161
31293W        W37893  10.302   2.020   5.914 -0.1149 -0.0799 -0.0335
31294W        W37894   8.281   3.341   6.340 -0.0875 -0.1397  0.1588
31295W        W37895  12.389   0.710  15.221 -0.0463  0.2202 -0.2480
31296W        W37896   4.588   2.041  24.236 -0.2492 -0.3571  0.2095
31297W        W37897  22.746   7.824   5.492 -0.4123  0.0264 -0.2830
31298W        W37898  21.638   6.069   9.429 -0.1053  0.0054  0.4256
31299W        W37899  15.961   0.881   7.680  0.2484 -0.3304 -0.2461
31300W        W37900  18.068   2.432   7.718 -0.2625 -0.0451 -0.0357
31301W        W37901  17.878   4.277  19.497  0.1918 -0.1375  0.0078
31302W        W37902  11.763   1.669  24.576  0.0139 -0.1848 -0.1209
31303W        W37903  17.520   4.476  16.361 -0.1208 -0.1875  0.0487
31304W        W37904   1.643   1.313  29.646  0.0357 -0.2215  0.0788
31305W        W37905   4.668   1.212  13.177  0.0046  0.1900 -0.1494
31306W        W37906  21.422   2.625  19.403 -0.1519 -0.2183  0.1505
31307W        W37907  21.472   5.863  18.996  0.2138  0.0812  0.3011
31308W        W37908  24.134   1.634   9.572 -0.2221  0.0473 -0.2121
31309W        W37909  24.964   1.657   2.263  0.1886  0.0787  0.3988
31310W        W37910  24.617   2.142  28.811  0.1169 -0.0036  0.0380
31311W        W37911  23.990   0.108   7.578  0.1897 -0.0134 -0.1789
31312W        W37912   2.689   3.746  21.066  0.0124  0.0792 -0.4184
31313W        W37913   7.433   2.551  29.137  0.1918  0.1146 -0.1148
31314W        W37914  18.421   7.120  18.207 -0.0081 -0.1915 -0.2185
31315W        W37915   3.824   6.226  25.449  0.0429 -0.3067 -0.0982
31316W        W37916  17.258   2.443  24.591 -0.1820 -0.0328  0.4456
31317W        W37917   2.551   4.487   4.742 -0.0868 -0.1971 -0.0432
31318W        W37918  11.533   2.803  29.423 -0.0449 -0.1407 -0.2078
31319W        W37919  12.366   1.440   9.479 -0.1331  0.0267  0.1593
31320W        W37920  11.803   0.678  27.197  0.2362  0.1329 -0.1095
31321W        W37921  21.179   5.863   0.378  0.0952 -0.0637 -0.0856
31322W        W37922  15.215   4.005  21.413  0.0010 -0.0570 -0.1256
31323W        W37923  12.675   0.786  14.384 -0.1604  0.4679 -0.1181
31324W        W37924  21.319   0.530  10.089 -0.3399 -0.2142  0.0515
31325W        W37925  19.097   2.078  25.099 -0.2168  0.1204  0.1603
31326W        W37926  22.949   3.376   8.083 -0.1420 -0.1928  0.2669
31327W        W37927  20.957   4.026  21.000  0.1392 -0.0601  0.0963
31328W        W37928  14.214   5.093  20.879 -0.0677 -0.1266 -0.1724
31329W        W37929  19.868   6.917  23.124  0.1878  0.0569  0.0064
31330W        W37930  18.107   1.044   5.835 -0.1613  0.0540  0.0364
31331W        W37931  12.313   2.859   7.955  0.1305 -0.3580  0.2844
31332W        W37932   2.297   3.686  23.361  0.0631  0.1997  0.3396
31333W        W37933   4.905   2.242  28.432  0.1067 -0.1233  0.1445
31334W        W37934  10.247   7.469   8.919  0.0252  0.2216  0.5654
31335W        W37935  16.659   2.475  18.880 -0.0237 -0.2490  0.1004
31336W        W37936  17.164   7.709   4.360  0.2666 -0.1253 -0.0360
31337W        W37937  12.896   4.551   7.370  0.2361  0.1284  0.0253
31338W        W37938   4.793   6.408   6.060 -0.3616 -0.1313  0.0133
31339W        W37939  20.029   5.306  30.918 -0.2195 -0.0568  0.1273
31340W        W37940  10.748   7.255  25.086  0.1662  0.1281 -0.0135
31341W        W37941   6.045   3.125  12.148 -0.2260 -0.0196 -0.1572
31342W        W37942  18.169   1.412  17.670 -0.0628 -0.1426  0.2346
31343W        W37943  17.906   6.463  20.318  0.1375 -0.0246 -0.0268
31344W        W37944  20.245   3.187   2.599  0.0894 -0.1390  0.1154
31345W        W37945  21.245   3.411   3.565 -0.0523  0.1320  0.0925
31346W        W37946  21.302   3.562   2.578 -0.0073 -0.0960  0.2254
31347W        W37947  10.269   6.658   0.796 -0.0514  0.1735 -0.1805
31348W        W37948  21.370   4.782   7.726  0.0860  0.0606 -0.0890
31349W        W37949  12.346   0.643   9.496  0.4830  0.0559  0.2887
31350W        W37950  14.301   5.486  30.792 -0.0385 -0.1185 -0.1398
31351W        W37951   1.788   3.057   1.801  0.0037  0.1910  0.0293
31352W        W37952  16.264   7.621   8.136  0.0089  0.1098 -0.0126
31353W        W37953  13.083   2.373   6.991 -0.1263 -0.1573 -0.1796
31354W        W37954  15.235   5.953   3.366  0.0526  0.1233  0.3985
31355W        W37955  17.870   4.707  20.100  0.3043 -0.2621 -0.1941
31356W        W37956   2.712   5.707  29.724  0.3451 -0.3727  0.2555
31357W        W37957   5.564   1.406   9.455 -0.0568 -0.0435 -0.1565
31358W        W37958   8.573   1.868  17.487 -0.1346  0.1304 -0.2970
31359W        W37959  15.241   4.389  31.487  0.1777 -0.1890 -0.0481
31360W        W37960   2.220   0.767  11.337 -0.1462  0.3034 -0.1529
31361W        W37961  19.089   3.227  27.657 -0.1604  0.1415  0.5265
31362W        W37962  20.355   0.528   4.828 -0.0491 -0.1434 -0.0649
31363W        W37963   6.593   4.874  10.734 -0.0136 -0.2701  0.3720
31364W        W37964  17.510   3.975  25.847  0.1243  0.4066  0.0016
31365W        W37965   3.153   4.976  22.032 -0.1154  0.1134  0.2936
31366W        W37966   1.119   4.769   1.199  0.1858  0.2181  0.1149
31367W        W37967   3.407   2.641  26.297 -0.1053  0.1400  0.3962
31368W        W37968   6.369   4.348  25.897  0.2173  0.3355  0.0253
31369W        W37969  10.827   1.719  24.201 -0.2356 -0.1426  0.1969
31370W        W37970   6.633   4.542   0.514  0.2375 -0.0917  0.2184
31371W        W37971   5.420   7.377  25.997  0.1626  0.1417 -0.1377
31372W        W37972   0.297   6.547   0.835 -0.0956  0.2699 -0.0885
31373W        W37973  24.104   6.847  22.569  0.0033  0.2435  0.0687
31374W        W37974  11.917   2.786   6.463  0.0459  0.0219 -0.2632
31375W        W37975  15.391   2.336  30.618 -0.7433  0.1263 -0.2581
31376W        W37976  22.852   2.215  26.464 -0.0430  0.0018 -0.1077
31377W        W37977  13.109   5.464   6.197  0.3591  0.0297  0.2612
31378W        W37978  15.235   2.780  21.898  0.0845 -0.1505  0.0825
31379W        W37979  12.251   4.512   6.574  0.0738 -0.2743 -0.1682
31380W        W37980  19.153   2.822   0.125 -0.1054  0.3671  0.0870
31381W        W37981  12.987   6.310  23.835  0.3910  0.1637  0.0607
31382W        W37982  14.907   2.170   0.407  0.0252 -0.0097 -0.2377
31383W        W37983  12.405   0.754   5.378  0.0938 -0.0965 -0.3287
31384W        W37984  19.449   4.721  26.759 -0.2037 -0.2052 -0.2426
31385W        W37985  21.635   6.225   4.557 -0.1887 -0.0545  0.3099
31386W        W37986  12.495   5.550  26.476  0.1614 -0.0148  0.2321
31387W        W37987   7.473   7.040  29.298 -0.2746 -0.3900 -0.0037
31388W        W37988  16.359   6.813  31.226 -0.0148 -0.2057 -0.0920
31389W        W37989  21.314   7.284  22.255 -0.1018 -0.0388  0.1412
31390W        W37990   4.694   6.541   7.134 -0.1282 -0.2947  0.0985
31391W        W37991  23.030   0.035  30.263  0.2620 -0.0447 -0.0020
31392W        W37992  19.774   2.674  25.476  0.2866  0.1891 -0.0334
31393W        W37993  11.144   6.115   3.171  0.0019  0.1370 -0.1205
31394W        W37994  12.553   7.080   4.523  0.0667 -0.0104 -0.0479
31395W        W37995   8.360   4.724  30.886  0.1090  0.0835 -0.2158
31396W        W37996  20.424   3.512   8.640  0.2093 -0.1149  0.1325
31397W        W37997   4.628   4.687   6.005 -0.2933  0.4473  0.4267
31398W        W37998   4.514   3.721   7.550 -0.1519 -0.1687  0.0676
31399W        W37999   4.639   3.426  15.321 -0.0285 -0.0115 -0.2374
31400W        W38000  13.125   7.762  21.259 -0.0983 -0.0201  0.0135
31401W        W38001  11.005   2.640  17.096  0.1083  0.3804 -0.1235
31402W        W38002   8.835   3.512   3.630 -0.0678 -0.0250 -0.1012
31403W        W38003  23.723   3.671   3.285  0.0174  0.0909  0.0244
31404W        W38004  10.635   0.368  13.377 -0.0014  0.1709  0.0061
31405W        W38005  17.033   4.761  17.979 -0.1975 -0.0271  0.0413
31406W        W38006   6.639   7.792  26.597 -0.2397 -0.2258  0.0510
31407W        W38007   0.436   4.541   8.782 -0.2701  0.0647 -0.0954
31408W        W38008  16.497   7.399   1.601  0.2026 -0.0259 -0.2938
31409W        W38009   6.868   2.632  13.839  0.1933  0.0735  0.0075
31410W        W38010  12.617   7.537   6.636 -0.1816  0.1397  0.0325
31411W        W38011   5.614   6.607   6.540 -0.0525 -0.1369 -0.3281
31412W        W38012  15.992   7.200  27.825  0.2110 -0.2939 -0.0698
31413W        W38013   5.540   7.532   0.664 -0.1393 -0.0197 -0.1053
31414W        W38014  12.206   5.917  24.828 -0.0668 -0.2328  0.2428
31415W        W38015  11.651   0.558   3.789 -0.2846 -0.0505 -0.0338
31416W        W38016   8.614   3.996  24.364  0.1847  0.4271  0.0591
31417W        W38017  21.748   2.698  32.575  0.0780 -0.1468 -0.0379
31418W        W38018  15.221   5.252  28.459 -0.1265 -0.2147  0.1377
31419W        W38019   7.045   3.436   2.457  0.2043  0.0900 -0.1542
31420W        W38020   3.240   2.974  24.200 -0.1489  0.3103 -0.0295
31421W        W38021   2.966   0.123  13.599 -0.1478  0.1699  0.0111
31422W        W38022   5.209   4.808  30.234 -0.5124  0.4097  0.0042
31423W        W38023  19.770   7.655   6.265 -0.0926 -0.1902  0.0736
31424W        W38024  23.984   4.675  16.150  0.0448 -0.0355 -0.0172
31425W        W38025   9.360   3.279  16.180  0.0044 -0.0893 -0.3196
31426W        W38026  16.555   6.687   2.352 -0.1505  0.1213 -0.0095
31427W        W38027  19.281   4.026  25.091 -0.1471  0.1881  0.0936
31428W        W38028   4.175   1.975   0.860 -0.0165 -0.2522 -0.1298
31429W        W38029   9.691   7.505   7.733 -0.2657 -0.0724 -0.0204
31430W        W38030  22.260   3.487   6.863 -0.0782 -0.1159 -0.0598
31431W        W38031  19.657   2.613  15.937 -0.0633 -0.1665 -0.1548
31432W        W38032  18.210   4.796   4.465  0.1246  0.0378 -0.0386
31433W        W38033   7.972   4.413  30.832  0.1752  0.3110  0.0680
31434W        W38034   1.902   2.080  23.823 -0.0953  0.2029  0.0612
31435W        W38035  10.032   7.312  17.827  0.2111  0.0276 -0.0927
31436W        W38036   0.932   2.001   0.767 -0.1317 -0.1793  0.0459
31437W        W38037   2.835   7.693  28.017  0.1704 -0.1353  0.0378
31438W        W38038  11.431   5.507  10.199  0.1517  0.0298  0.2012
31439W        W38039  13.310   0.569   8.665 -0.2218  0.0013  0.1201
31440W        W38040  12.695   4.000  28.914 -0.2432  0.0972 -0.0283
31441W        W38041  22.298   5.812  15.482  0.0486 -0.0643 -0.1030
31442W        W38042  14.412   0.158  24.728  0.0703  0.0213  0.0988
31443W        W38043   2.173   7.199  23.211 -0.1944 -0.0673 -0.1841
31444W        W38044  14.532   6.430  10.847 -0.1005  0.0322  0.1349
31445W        W38045  18.049   0.822  10.426  0.1906 -0.0060 -0.0540
31446W        W38046   3.840   0.531  28.803 -0.0243  0.0685 -0.3971
31447W        W38047   2.538   7.725   3.390  0.1121  0.3917  0.1363
31448W        W38048  18.336   4.179  25.962 -0.0624 -0.0252 -0.0297
31449W        W38049   8.695   2.071  14.033 -0.0857  0.0687 -0.2947
31450W        W38050  24.532   0.547  27.985  0.1751 -0.0556  0.0008
31451W        W38051  21.177   6.641   6.860  0.0746 -0.0021 -0.1700
31452W        W38052   9.329   2.906  29.064 -0.0905 -0.0741  0.0216
31453W        W38053  12.239   0.315   6.928  0.0564 -0.3407 -0.0917
31454W        W38054  24.793   6.268  20.550  0.2907 -0.0350 -0.0922
31455W        W38055  11.490   6.039   1.407 -0.0297 -0.1165 -0.0143
31456W        W38056  14.227   6.009  10.921 -0.0216 -0.0884  0.0318
31457W        W38057  19.870   6.887  32.107  0.1281 -0.2408 -0.3086
31458W        W38058   5.719   0.135   2.449 -0.0074  0.3174 -0.4312
31459W        W38059   4.427   6.671  15.413 -0.1852  0.0934 -0.2345
31460W        W38060  10.838   1.708   9.300  0.1916  0.0821 -0.1072
31461W        W38061   3.999   6.127  12.818 -0.2558 -0.0189 -0.0859
31462W        W38062   2.993   7.520   3.374 -0.2701  0.0874 -0.3966
31463W        W38063  20.867   3.631  29.396  0.1149  0.1178 -0.2600
31464W        W38064  24.597   6.680   2.350 -0.2674 -0.1164  0.0079
31465W        W38065  10.744   7.206   9.264  0.0167  0.1133 -0.0580
31466W        W38066   5.059   0.061  25.955 -0.0462  0.0391 -0.0540
31467W        W38067  20.208   2.438  27.772  0.1645  0.2399  0.0545
31468W        W38068  12.805   3.814  23.731  0.2240  0.1710  0.1008
31469W        W38069  19.206   7.078  32.632 -0.1351 -0.3597  0.1487
31470W        W38070  18.593   7.024  22.977 -0.0664 -0.2654 -0.1919
31471W        W38071  10.028   4.309  24.224  0.1731  0.2753 -0.1589
31472W        W38072  11.201   6.444  24.580  0.1480  0.0322 -0.2107
31473W        W38073  24.053   6.667  15.434  0.3861 -0.3009 -0.2187
31474W        W38074  23.839   7.398  22.656 -0.1908  0.0273 -0.2180
31475W        W38075  16.759   3.710  21.089 -0.0296 -0.0972 -0.0198
31476W        W38076  15.013   5.035  22.266 -0.2267 -0.3349 -0.0365
31477W        W38077  11.335   3.123  26.997 -0.3265  0.1534 -0.0232
31478W        W38078   0.837   5.454   2.366  0.0887 -0.1406 -0.1461
31479W        W38079  19.820   4.570  24.427 -0.0976 -0.2075 -0.2097
31480W        W38080  15.575   4.783  19.922 -0.1830  0.1847  0.2041
31481W        W38081   4.552   2.554  23.184  0.1185  0.0726 -0.2457
31482W        W38082  20.959   2.882  26.957  0.3021 -0.1158  0.2783
31483W        W38083   7.877   7.385  24.288  0.1519 -0.2659 -0.0261
31484W        W38084  14.931   1.798  24.250 -0.4762 -0.0343  0.1741
31485W        W38085   7.648   1.534   8.382 -0.0147 -0.3558 -0.1279
31486W        W38086  16.134   7.763   1.812 -0.2050  0.1929 -0.0291
31487W        W38087  10.088   4.168  14.046 -0.0672 -0.0117 -0.1485
31488W        W38088  20.869   0.131  27.382  0.1431 -0.1844  0.3604
31489W        W38089  16.933   6.638  27.094  0.1024  0.0456  0.1395
31490W        W38090  16.538   1.043  18.300 -0.0235 -0.0447  0.3062
31491W        W38091   2.045   3.512  20.854 -0.0960 -0.2136  0.1761
31492W        W38092   5.658   2.311   8.812 -0.0223 -0.1302 -0.0725
31493W        W38093  12.527   2.976  26.540  0.3294  0.1743  0.0210
31494W        W38094   0.500   7.756   1.839 -0.1876  0.1596 -0.1593
31495W        W38095   5.222   2.651  29.305 -0.2876  0.1628 -0.1395
31496W        W38096  16.103   7.186  28.713 -0.1684  0.1148  0.4872
31497W        W38097  16.960   7.200  23.253 -0.0026 -0.1323  0.2277
31498W        W38098   0.684   3.043   7.122 -0.0337 -0.0393 -0.1546
31499W        W38099  24.448   2.989  20.490  0.0022  0.1552  0.3007
31500W        W38100  22.339   4.122  17.759  0.2427  0.3093 -0.1242
31501W        W38101   1.655   6.757  20.372  0.1937 -0.1599  0.1447
31502W        W38102  12.296   5.788  16.852 -0.1443 -0.1013  0.2363
31503W        W38103   6.624   0.776   2.003  0.3629 -0.1669 -0.1759
31504W        W38104   7.344   7.823  15.036 -0.1929  0.0156  0.0085
31505W        W38105   5.515   5.598   2.744 -0.0415 -0.0359 -0.1789
31506W        W38106   2.345   3.619  31.651  0.1264  0.1791  0.2559
31507W        W38107   4.956   3.921  14.874  0.1052  0.0029 -0.1779
31508W        W38108   7.564   7.600   8.870  0.1085 -0.1810  0.0118
31509W        W38109  24.664   4.786  27.824  0.3455 -0.1371 -0.0561
31510W        W38110  14.487   4.276   1.503 -0.2181 -0.1829 -0.0751
31511W        W38111   0.567   3.989  19.024 -0.0400  0.0244 -0.3015
31512W        W38112  24.118   0.586   6.029  0.2388 -0.3409  0.0921
31513W        W38113  12.642   5.580   4.986  0.2773 -0.0701  0.3764
31514W        W38114   6.766   4.742   1.384 -0.0429  0.0644  0.3131
31515W        W38115   0.190   0.803  30.727 -0.1418 -0.2657 -0.0457
31516W        W38116  14.592   6.059   5.565 -0.1531 -0.0449 -0.1758
31517W        W38117   0.017   2.253  26.640 -0.3072 -0.0420 -0.2224
31518W        W38118  24.052   2.532  17.138  0.1464 -0.1037 -0.1157
31519W        W38119  23.689   4.122  20.713  0.0878  0.0673  0.1084
31520W        W38120  24.911   5.525  18.213 -0.1841  0.0545  0.0283
31521W        W38121   2.869   6.962  11.534  0.1317 -0.0625 -0.1034
31522W        W38122   4.892   5.809   8.804 -0.0318 -0.1651  0.4569
31523W        W38123   0.375   6.560  19.187  0.1092 -0.1721  0.1357
31524W        W38124  14.651   2.992  25.628  0.0842 -0.0972 -0.1648
31525W        W38125   0.379   7.443  11.500 -0.1121  0.1183 -0.1516
31526W        W38126   0.734   6.467  32.028 -0.1322 -0.0181  0.0391
31527W        W38127  15.498   5.307  22.719 -0.0402  0.3100  0.1814
31528W        W38128   6.603   1.204  30.095  0.1724  0.1824  0.1475
31529W        W38129   9.080   7.484   9.699 -0.0106 -0.0309  0.0812
31530W        W38130  15.372   6.136   7.895 -0.0371 -0.0232  0.1083
31531W        W38131  13.153   4.414   4.244  0.1180 -0.0121  0.2765
31532W        W38132  21.835   2.633  30.610  0.2505  0.0684  0.2106
31533W        W38133  16.304   6.044   9.592 -0.3002  0.4568 -0.0757
31534W        W38134  21.336   1.030  27.711  0.0375 -0.0818  0.2010
31535W        W38135  24.328   4.887  26.082 -0.0518 -0.2964 -0.0483
31536W        W38136  21.618   4.925  21.046 -0.1468  0.1249  0.0314
31537W        W38137   4.253   0.263   1.461 -0.0699  0.1773  0.0225
31538W        W38138  12.050   4.154  12.403 -0.1361  0.0954  0.0351
31539W        W38139   5.933   7.778  31.225  0.0713  0.1201 -0.0215
31540W        W38140  10.711   4.594  14.497  0.1100 -0.4652 -0.0831
31541W        W38141  10.831   6.232   6.921  0.0982  0.1540 -0.1414
31542W        W38142  20.975   7.547  26.939  0.0294  0.0178 -0.0211
31543W        W38143  13.518   1.340  14.428  0.2653 -0.1211  0.1147
31544W        W38144  20.439   1.012  30.613  0.2663 -0.0865 -0.0076
31545W        W38145   8.843   3.285   0.279  0.1632 -0.0333 -0.1439
31546W        W38146  21.908   0.319  21.682 -0.1919  0.0448 -0.2954
31547W        W38147  17.627   6.706  31.209 -0.1286 -0.0150 -0.1453
31548W        W38148  19.194   0.686  19.074  0.1282  0.0706  0.1207
31549W        W38149  10.665   7.142   1.313  0.3564 -0.1214 -0.2533
31550W        W38150  20.851   3.360  17.051 -0.3738 -0.0585  0.0893
31551W        W38151  11.013   5.267  14.474 -0.1033  0.3248 -0.0499
31552W        W38152  15.213   7.115  23.973  0.2077 -0.2911  0.0833
31553W        W38153  13.499   6.270  24.001 -0.0931 -0.1343  0.2050
31554W        W38154   7.945   4.406  30.131 -0.1363  0.1382  0.1753
31555W        W38155  18.979   7.514  22.233 -0.3614 -0.1674 -0.2689
31556W        W38156   6.995   0.398  32.619 -0.2849 -0.0419 -0.2270
31557W        W38157  15.988   1.176   0.486 -0.0071 -0.1485  0.0305
31558W        W38158   9.175   6.223  25.219  0.1948  0.0646  0.0225
31559W        W38159  13.149   0.425   4.196  0.1665  0.0723 -0.0555
31560W        W38160  13.066   5.043  22.077  0.2185  0.3042  0.1752
31561W        W38161  19.992   6.657  21.195 -0.0528  0.1061  0.2955
31562W        W38162  11.805   1.238   6.257  0.5685 -0.3573  0.0858
31563W        W38163  17.773   0.889   2.102  0.1687 -0.1753  0.2448
31564W        W38164   0.325   0.068  16.886 -0.0891  0.1227  0.4382
31565W        W38165   2.614   4.661   3.226  0.1901 -0.0478  0.2068
31566W        W38166   6.160   3.251   8.542  0.1222 -0.0021 -0.2225
31567W        W38167   2.747   7.792   7.495 -0.0809  0.1883  0.1351
31568W        W38168  20.791   3.320  18.077  0.0666 -0.2192  0.0125
31569W        W38169  18.416   7.665   7.995 -0.0521 -0.1739  0.0742
31570W        W38170   9.808   7.319  31.562  0.2194  0.0973 -0.0819
31571W        W38171   6.678   1.407  30.544  0.2607  0.0278 -0.2718
31572W        W38172  19.103   4.205   9.987  0.0658 -0.0314  0.2134
31573W        W38173   0.297   6.443  24.473  0.1115 -0.0777  0.3695
31574W        W38174   5.376   2.717  14.094  0.0449 -0.1127  0.0649
31575W        W38175  15.429   2.729  24.744  0.1206 -0.1363 -0.1455
31576W        W38176  10.483   5.730   9.113 -0.0760 -0.2436  0.2813
31577W        W38177  10.714   2.512  12.617 -0.1516  0.0253  0.1901
31578W        W38178  13.033   2.081   1.857  0.1018  0.0941  0.2701
31579W        W38179  19.191   7.108  16.458  0.1790 -0.1605 -0.1336
31580W        W38180  17.959   5.432  31.819  0.3670 -0.0415 -0.0517
31581W        W38181  13.718   0.096  32.443 -0.0821  0.0207  0.1245
31582W        W38182  17.334   1.523   5.543  0.0625 -0.0993  0.1197
31583W        W38183   0.802   3.250  22.492 -0.1440  0.0752 -0.1309
31584W        W38184   7.046   0.621  24.405  0.0147 -0.1397 -0.1858
31585W        W38185   8.730   1.268  31.158  0.1507 -0.1220 -0.0497
31586W        W38186   4.479   4.307  24.306 -0.2601 -0.2104 -0.0739
31587W        W38187   0.105   7.020  23.922  0.0341 -0.1033 -0.0404
31588W        W38188   4.011   4.629  22.640 -0.0382  0.0849  0.2486
31589W        W38189  22.192   1.134  21.097 -0.0796  0.0699  0.2753
31590W        W38190  18.746   7.183  25.675 -0.0297 -0.2698  0.1764
31591W        W38191  19.115   3.663   1.018  0.0027  0.2312 -0.0012
31592W        W38192  14.137   0.102   3.707 -0.1291  0.3340  0.0777
31593W        W38193  15.020   4.441  19.303  0.3743  0.0198  0.1775
31594W        W38194   3.654   6.206  21.680  0.1521 -0.0566  0.1629
31595W        W38195  14.095   2.779  11.019  0.1763  0.1830 -0.0440
31596W        W38196   0.923   0.269   1.600 -0.1447  0.0079  0.0063
31597W        W38197  21.327   1.166  23.014  0.0845 -0.0961 -0.0811
31598W        W38198  20.258   4.961  28.842  0.2572 -0.2538 -0.0371
31599W        W38199  11.504   7.566  32.305 -0.2745  0.0810  0.1155
31600W        W38200   0.712   4.204  22.831  0.0633 -0.1389  0.0395
31601W        W38201  20.360   3.045  30.347 -0.0257 -0.0202  0.1914
31602W        W38202  13.539   5.554   0.012  0.0345  0.0678  0.1559
31603W        W38203   3.904   2.493  25.198  0.2274  0.0419 -0.2859
31604W        W38204  23.545   4.188   6.075 -0.4173  0.0013 -0.1083
31605W        W38205   5.660   0.006  29.512 -0.3401 -0.0155 -0.0752
31606W        W38206  17.278   1.215  27.570  0.1236  0.0484 -0.0966
31607W        W38207  11.126   5.442  16.265  0.2339 -0.1861  0.1862
31608W        W38208   4.800   4.845  23.193 -0.1740 -0.2805 -0.0992
31609W        W38209  14.972   1.186   5.964  0.0973  0.1079  0.2795
31610W        W38210  18.601   0.285  10.900  0.2490  0.0198  0.0993
31611W        W38211   4.167   0.215   9.819 -0.3256  0.1352 -0.2039
31612W        W38212  22.384   3.520  18.087 -0.1133  0.0138 -0.1565
31613W        W38213   7.314   1.578  14.771  0.3197 -0.2694  0.0280
31614W        W38214  22.341   1.586  23.633 -0.2616  0.1817  0.0530
31615W        W38215  12.280   4.478   9.406 -0.0173  0.1816  0.0775
31616W        W38216   9.985   5.286  24.104 -0.4402 -0.0194  0.1509
31617W        W38217  14.000   4.188  30.519  0.1542  0.0163 -0.2683
31618W        W38218   0.800   2.760  22.581  0.0777 -0.1263 -0.0254
31619W        W38219   5.070   7.307  25.459 -0.0221  0.3678  0.0165
31620W        W38220   8.039   5.389  15.276  0.2630  0.2221  0.1517
31621W        W38221  20.294   6.879  16.416  0.1208  0.2624  0.2521
31622W        W38222   2.065   7.484   4.361  0.1015 -0.0446  0.3332
31623W        W38223  16.042   1.220   2.148 -0.2991 -0.3327  0.3271
31624W        W38224   8.025   5.036  23.588 -0.0379 -0.1230 -0.1162
31625W        W38225  13.791   5.922  10.762 -0.3330  0.0127 -0.0293
31626W        W38226  22.863   1.496  22.717  0.2470 -0.2489 -0.1002
31627W        W38227   9.133   0.335   4.309  0.0905  0.1751 -0.2789
31628W        W38228  16.178   2.224   8.353 -0.0185  0.0218  0.4161
31629W        W38229   6.957   3.583   9.656 -0.0864  0.1160 -0.3178
31630W        W38230  12.213   4.232  23.425 -0.3138  0.0904 -0.4607
31631W        W38231   0.274   5.197   1.440  0.0314 -0.0080 -0.2093
31632W        W38232  21.757   5.168   8.565  0.0821  0.0051 -0.1818
31633W        W38233  12.280   4.971  27.981  0.4795 -0.1201 -0.1788
31634W        W38234  18.355   6.665   4.753 -0.2954 -0.1904  0.1901
31635W        W38235   9.392   1.317   0.172  0.0811  0.0037 -0.2555
31636W        W38236  16.246   7.060  29.517 -0.4007 -0.0326 -0.1511
31637W        W38237   4.169   2.935  12.066  0.2003  0.0206  0.0528
31638W        W38238   5.753   3.137  17.159  0.1089  0.0427  0.1843
31639W        W38239  10.891   0.826  29.127 -0.0815  0.0882 -0.1038
31640W        W38240  20.435   6.491   0.024 -0.0792 -0.1765  0.0250
31641W        W38241  24.541   3.335   6.123  0.0935 -0.0907 -0.1273
31642W        W38242   9.245   2.726  25.640 -0.1252  0.0995 -0.1809
31643W        W38243  12.765   1.890  26.878  0.1803 -0.1607 -0.0216
31644W        W38244  15.740   2.576  29.574 -0.1145 -0.0533 -0.1653
31645W        W38245   2.208   3.143   8.394 -0.1304  0.2086 -0.0202
31646W        W38246  18.020   2.419  32.544  0.0483 -0.0075  0.1277
31647W        W38247  22.208   6.283  20.634 -0.0501 -0.0734 -0.5073
31648W        W38248  12.713   3.212   9.929  0.1693 -0.2093 -0.4823
31649W        W38249  12.055   0.545  24.628  0.0272 -0.3032 -0.3168
31650W        W38250   6.458   0.917   8.662  0.0577  0.1446  0.0348
31651W        W38251  16.515   4.073  30.293  0.0766  0.2007 -0.1692
31652W        W38252   6.341   0.586   6.051  0.0817 -0.1324  0.2369
31653W        W38253  23.412   5.511   4.751  0.1534 -0.0717  0.1166
31654W        W38254  14.322   3.763  30.314  0.1639  0.1725 -0.0971
31655W        W38255  15.263   3.867  28.615  0.1871  0.3053  0.3383
31656W        W38256  15.335   6.578   6.492  0.1615  0.1096 -0.0475
31657W        W38257  13.576   0.781  10.215  0.1158 -0.0303  0.4059
31658W        W38258   3.980   1.626  12.789  0.2349  0.2345 -0.1932
31659W        W38259  21.123   4.184  28.471  0.0526  0.0268  0.0527
31660W        W38260  11.505   3.937   3.063  0.0192 -0.1113  0.0407
31661W        W38261   9.364   2.415  10.180 -0.1129  0.1359  0.0211
31662W        W38262   0.974   7.071  21.259 -0.0586  0.0120 -0.1338
31663W        W38263  17.216   7.696   9.242 -0.2955  0.0849  0.1594
31664W        W38264   7.792   3.919   0.502  0.0380  0.2080  0.2000
31665W        W38265   1.343   5.614  21.263  0.0759  0.1012 -0.1287
31666W        W38266  14.028   0.564  29.291 -0.5678  0.3569  0.0588
31667W        W38267  11.294   6.982  13.814 -0.1993  0.3591  0.1790
31668W        W38268  21.807   6.239  26.170  0.2900  0.1306 -0.2623
31669W        W38269  14.464   2.739  13.652  0.1066  0.0465 -0.1078
31670W        W38270   9.618   1.479  17.710  0.0273 -0.1131  0.0808
31671W        W38271   2.063   0.954  27.971 -0.2575  0.0394  0.2711
31672W        W38272  19.914   3.964  23.817 -0.0856  0.0462  0.1114
31673W        W38273  21.287   4.452   8.671  0.1829 -0.0924 -0.0683
31674W        W38274  19.636   2.711   0.321  0.1292 -0.0028  0.0190
31675W        W38275  19.151   3.359   4.427 -0.0448 -0.1659 -0.2806
31676W        W38276  16.708   2.661  22.172  0.2901 -0.1716  0.0541
31677W        W38277  15.308   3.993  22.469 -0.1901  0.1554  0.1501
31678W        W38278  13.216   4.134   6.629  0.1299 -0.1076  0.1382
31679W        W38279  13.443   2.849  25.094  0.1965 -0.0006 -0.0034
31680W        W38280  21.081   1.047  15.536  0.0519  0.1329 -0.4014
31681W        W38281  16.001   5.460  28.228  0.0808  0.0657 -0.2561
31682W        W38282  19.185   2.776  20.764 -0.1845 -0.1132 -0.0191
31683W        W38283  18.455   1.548   3.792  0.0236 -0.0629  0.1846
31684W        W38284   5.002   4.234  22.696 -0.3534  0.2432 -0.1644
31685W        W38285   8.633   5.699  10.335  0.0057 -0.1378  0.0521
31686W        W38286  22.021   1.560  31.230 -0.0807  0.2435 -0.3031
31687W        W38287  20.899   6.978   4.395  0.2173 -0.0581 -0.0057
31688W        W38288  11.479   7.748  11.338  0.0225  0.2008  0.1278
31689W        W38289  11.333   6.961  16.520 -0.1217  0.1100  0.1318
31690W        W38290   7.449   4.782  10.348  0.0174 -0.0528 -0.0150
31691W        W38291   2.659   2.725  12.695  0.1708  0.3087  0.2315
31692W        W38292  23.196   0.307  32.250  0.2249 -0.0076  0.2559
31693W        W38293  10.978   4.002   3.036 -0.0864  0.3908  0.4912
31694W        W38294   7.319   6.282  30.248  0.1979 -0.0609 -0.4362
31695W        W38295  16.589   3.136   8.691 -0.2874 -0.1586  0.0838
31696W        W38296  17.113   5.547   5.203 -0.0120 -0.0707 -0.3141
31697W        W38297   2.463   1.635  12.648 -0.2509  0.0285 -0.0026
31698W        W38298  12.988   4.269   6.141 -0.0274 -0.4039  0.1123
31699W        W38299   2.783   5.716   9.403  0.1182  0.3349 -0.2023
31700W        W38300   0.512   3.497   9.908 -0.2460 -0.1114  0.2264
31701W        W38301  14.842   6.158   8.864 -0.1617 -0.0598  0.0295
31702W        W38302  23.386   5.761   9.574  0.0888 -0.3370  0.0001
31703W        W38303  24.080   5.516  18.399 -0.2308  0.0688 -0.3210
31704W        W38304  10.762   4.925  30.856 -0.0122 -0.1717  0.0520
31705W        W38305  20.815   5.539  21.974 -0.2300 -0.0713  0.1530
31706W        W38306   9.566   4.248   1.904 -0.0272 -0.1883 -0.3043
31707W        W38307   6.462   3.007  13.939 -0.0840  0.0950  0.3571
31708W        W38308  21.089   1.101   0.484  0.2888 -0.2127 -0.1136
31709W        W38309  23.480   5.147  22.686  0.0424 -0.3259 -0.1967
31710W        W38310  23.037   0.852  32.319  0.0563  0.0982 -0.1464
31711W        W38311  21.759   7.055  19.242 -0.1366 -0.1633  0.1613
31712W        W38312  13.044   0.544  25.558 -0.0655  0.0084  0.0405
31713W        W38313   0.588   6.942   9.146  0.1791 -0.4242  0.0241
31714W        W38314  19.547   5.771  19.372  0.1300 -0.0213 -0.2611
31715W        W38315  20.305   1.184  20.982  0.1039 -0.3051 -0.2938
31716W        W38316   1.128   4.314  20.906  0.2069  0.0178 -0.0604
31717W        W38317  12.788   1.260  13.264 -0.1425  0.1118  0.0650
31718W        W38318  11.258   5.395  22.470  0.1506  0.0592  0.2044
31719W        W38319   1.155   7.512  27.798 -0.3601 -0.1954 -0.1863
31720W        W38320   7.691   6.849  16.393 -0.0102  0.2227  0.1709
31721W        W38321   2.404   1.292  27.728 -0.1541  0.1047 -0.0665
31722W        W38322  23.883   0.696  26.755  0.0845 -0.0460  0.1062
31723W        W38323   6.585   6.482  14.315 -0.1346  0.0742  0.1691
31724W        W38324  24.558   5.814  32.655 -0.0831  0.1831 -0.0730
31725W        W38325  15.694   7.376  10.472  0.2333  0.0098 -0.1174
31726W        W38326  20.794   6.956  16.637 -0.2026  0.0381 -0.2566
31727W        W38327  23.584   6.239  18.550 -0.0615  0.1155 -0.1987
31728W        W38328   7.515   7.721  23.971 -0.2449  0.0196 -0.0987
31729W        W38329  10.364   1.756   4.934 -0.1482 -0.1947 -0.1110
31730W        W38330  16.008   6.559   6.073  0.2353  0.2377  0.4702
31731W        W38331   8.602   6.611   2.912  0.0150 -0.1591 -0.3345
31732W        W38332   4.181   0.340  26.867  0.2062  0.0725 -0.1047
31733W        W38333   7.778   7.711  17.399 -0.0798 -0.1347  0.1648
31734W        W38334   2.902   2.413   4.334  0.0173 -0.1359  0.0942
31735W        W38335  16.980   6.006  21.318  0.0242 -0.2391  0.3149
31736W        W38336  15.284   0.368  10.128  0.1727 -0.1237  0.2315
31737W        W38337  21.278   2.033   8.880  0.0359 -0.5096 -0.2614
31738W        W38338   9.274   4.511  30.727 -0.0653 -0.1292  0.3110
31739W        W38339  11.877   2.875  31.671 -0.2517 -0.1107  0.3356
31740W        W38340   5.131   3.471   7.085 -0.0823 -0.2325 -0.0997
31741W        W38341  13.780   5.120  30.925 -0.3262 -0.1103  0.0967
31742W        W38342   2.568   1.907   3.727  0.1524  0.0546  0.0567
31743W        W38343  19.690   4.763  16.031  0.0159  0.0192  0.1532
31744W        W38344   0.132   4.621  16.876 -0.4223  0.2814  0.0470
31745W        W38345  24.309   2.397  21.081 -0.0343  0.1145 -0.0865
31746W        W38346  12.177   4.866  22.809  0.2927  0.1321 -0.3673
31747W        W38347  13.413   6.655   1.960 -0.0691  0.3592 -0.0782
31748W        W38348  12.946   0.367  24.854  0.2070 -0.0564 -0.0188
31749W        W38349   1.244   5.599  31.112 -0.2276 -0.1526 -0.1806
31750W        W38350  11.028   2.511   3.203  0.0749 -0.0631 -0.1865
31751W        W38351  22.965   3.955  15.504  0.0216 -0.0988  0.1407
31752W        W38352  24.540   4.298  22.872  0.1142 -0.0760  0.4152
31753W        W38353  11.185   3.126  12.441  0.1672 -0.2106  0.1056
31754W        W38354  14.344   6.731  21.305  0.1849 -0.3313 -0.1033
31755W        W38355  12.805   0.539  23.575 -0.1233  0.0015  0.2863
31756W        W38356   9.273   3.046   8.397 -0.0726  0.1089 -0.0246
31757W        W38357   6.236   4.703  14.454  0.4459  0.2763  0.2644
31758W        W38358   1.529   6.042   0.380  0.1172 -0.4076  0.0492
31759W        W38359  10.706   6.317  24.441 -0.1374 -0.0404 -0.1745
31760W        W38360  10.580   3.121   6.448 -0.0074 -0.1642  0.0206
31761W        W38361   4.244   1.866  27.972 -0.1627 -0.3630  0.0038
31762W        W38362  15.512   5.236  10.977 -0.0998 -0.2055 -0.0853
31763W        W38363   5.905   5.348  30.778  0.3635  0.0532 -0.3865
31764W        W38364   6.830   1.552  13.931 -0.0439  0.0578 -0.1759
31765W        W38365  23.583   3.921  17.539  0.0643  0.0591  0.4267
31766W        W38366   1.958   1.184   2.771 -0.0439  0.2516 -0.1538
31767W        W38367   9.114   6.336   4.511  0.0092  0.1044  0.1983
31768W        W38368   1.611   1.571  29.193  0.1203  0.1061  0.1270
31769W        W38369  15.518   3.607  21.450  0.0922  0.2285  0.0202
31770W        W38370  21.409   5.217  29.868  0.0612 -0.3824 -0.2718
31771W        W38371   0.275   0.442  20.481 -0.1517  0.0539 -0.0527
31772W        W38372  24.327   6.976  18.488  0.2322  0.2311 -0.0423
31773W        W38373  15.170   7.133   9.564  0.0357  0.0865  0.2824
31774W        W38374   2.125   1.491  31.922  0.1408  0.0152  0.0529
31775W        W38375  23.255   3.617  28.559  0.2142  0.1736 -0.2071
31776W        W38376  10.890   2.145   0.225 -0.0542  0.0247 -0.1211
31777W        W38377   3.690   4.824   2.460 -0.3311 -0.0375 -0.1532
31778W        W38378   0.219   5.112  17.277  0.1584 -0.2581  0.1873
31779W        W38379  15.839   7.439  20.355 -0.0395  0.2445  0.2646
31780W        W38380  18.530   0.196   0.016  0.2619  0.0462  0.0049
31781W        W38381  24.090   7.410  23.132  0.1372  0.2716 -0.0482
31782W        W38382   9.704   7.384  30.950  0.2824 -0.1272 -0.1987
31783W        W38383  24.651   7.062   7.087 -0.2495 -0.0970  0.2405
31784W        W38384  18.003   6.771   5.097  0.0916  0.0896 -0.0459
31785W        W38385  18.368   2.514   0.716 -0.3994  0.0604 -0.0990
31786W        W38386   5.430   7.238   7.484 -0.1233  0.1172 -0.2549
31787W        W38387   1.961   6.087  26.685 -0.0364 -0.1427  0.0365
31788W        W38388  19.133   6.922   5.170  0.0000  0.0597 -0.0112
31789W        W38389  14.776   3.707  30.485  0.2240  0.1268 -0.0476
31790W        W38390  17.374   4.710  10.221  0.4448  0.1118 -0.0077
31791W        W38391  24.178   6.518  31.204 -0.1516  0.1740  0.1589
31792W        W38392   6.742   3.078   9.123 -0.0058 -0.0024  0.3406
31793W        W38393   1.718   2.240  26.942 -0.1551  0.1825  0.0492
31794W        W38394  23.303   6.590  19.742 -0.2156 -0.1194 -0.0249
31795W        W38395  18.372   0.096  23.928 -0.3899 -0.0083  0.1208
31796W        W38396   7.376   4.816   7.493  0.0311  0.0109  0.0330
31797W        W38397  10.119   6.031  17.190 -0.2088  0.1610  0.3105
31798W        W38398   9.171   5.358  27.752 -0.2004 -0.3577 -0.0133
31799W        W38399   4.677   0.639  25.360 -0.0925  0.0999  0.2265
31800W        W38400   4.128   4.707   1.262 -0.0517  0.4092 -0.2019
31801W        W38401  21.574   2.970  32.176 -0.2135  0.4708 -0.1051
31802W        W38402  21.597   4.431  23.788  0.1114 -0.1122 -0.2321
31803W        W38403  10.762   6.873  30.358  0.0163 -0.0684 -0.5120
31804W        W38404  23.842   7.275  20.361 -0.2755 -0.1561 -0.0622
31805W        W38405   6.363   4.257  14.680  0.2003  0.0309  0.3119
31806W        W38406  16.339   6.090  27.003 -0.1861  0.0898 -0.2248
31807W        W38407  12.837   6.737  16.049  0.0104 -0.3084 -0.1790
31808W        W38408   1.030   4.237  24.306  0.1017  0.1201  0.0356
31809W        W38409   4.519   4.702   5.483  0.1617 -0.1108  0.1998
31810W        W38410  14.023   6.359  29.324 -0.3084  0.1669  0.1195
31811W        W38411  17.088   2.158  19.761 -0.0595  0.1325 -0.1541
31812W        W38412   8.369   0.061  17.494  0.1462 -0.1374 -0.0140
31813W        W38413   2.917   3.373   1.802  0.1334  0.1864  0.0983
31814W        W38414   8.705   3.102  25.054  0.0543 -0.2263  0.2446
31815W        W38415   7.525   2.668  11.290  0.1144  0.1479 -0.0019
31816W        W38416   0.035   0.132   1.142 -0.3691  0.0389 -0.1834
31817W        W38417  15.171   7.397   5.441  0.1977  0.1621 -0.0589
31818W        W38418   5.799   4.778   1.722 -0.1436 -0.1431  0.1516
31819W        W38419  21.461   3.095  14.862  0.1557  0.0080 -0.0585
31820W        W38420   0.300   5.836  28.131  0.3142 -0.0964 -0.1915
31821W        W38421   9.424   2.458  28.851  0.2569 -0.1898  0.2437
31822W        W38422   4.811   5.299  29.270 -0.0244  0.0805 -0.0525
31823W        W38423   2.432   3.804   5.216  0.1967  0.1040  0.6154
31824W        W38424   7.252   4.040  16.820 -0.1929  0.3887 -0.1480
31825W        W38425   7.388   1.949   7.620 -0.0122 -0.2742  0.1915
31826W        W38426   5.041   1.406  23.596  0.2929 -0.0057 -0.1374
31827W        W38427   7.908   1.035   6.564 -0.1485 -0.1969  0.1150
31828W        W38428   7.751   4.992   1.121 -0.0646  0.0599 -0.1825
31829W        W38429   7.848   0.892  11.415 -0.0888 -0.1699 -0.1988
31830W        W38430  18.205   1.364  32.642 -0.0424  0.2946  0.1272
31831W        W38431  17.378   4.016   5.414  0.0607  0.1067 -0.0127
31832W        W38432   2.205   0.939  22.346  0.0796  0.0136 -0.1247
31833W        W38433  20.521   5.012   1.490 -0.2223 -0.2832 -0.1328
31834W        W38434  17.795   0.593   1.600  0.0743  0.1058  0.2056
31835W        W38435  24.854   4.013  23.767 -0.1129  0.2993  0.0746
31836W        W38436  22.061   4.322  26.660 -0.0212  0.2677  0.0603
31837W        W38437  16.590   2.179  20.137 -0.0526 -0.3168 -0.0975
31838W        W38438  17.071   0.020  29.687  0.0888  0.1271  0.1149
31839W        W38439  18.648   4.119  21.746 -0.0145 -0.2597  0.1804
31840W        W38440  20.613   2.917  16.171  0.1410  0.1228 -0.0816
31841W        W38441   3.464   0.114  32.246 -0.4575 -0.0938 -0.0479
31842W        W38442  11.931   6.846  28.803 -0.3180 -0.2629 -0.0462
31843W        W38443  20.025   6.077   0.948  0.0650 -0.0041  0.2850
31844W        W38444   1.744   1.965   7.021  0.1519  0.0257 -0.1380
31845W        W38445   4.394   2.174   4.109 -0.2813  0.2079  0.0291
31846W        W38446  18.845   1.458   4.204  0.0841 -0.1865 -0.0784
31847W        W38447  18.344   1.116  10.893 -0.0732  0.0078  0.0219
31848W        W38448  11.763   3.750   9.868 -0.1358  0.1253  0.0414
31849W        W38449   6.058   4.148   6.195  0.1808  0.0127 -0.0758
31850W        W38450   1.084   5.729   5.824 -0.1585 -0.0132  0.3929
31851W        W38451  25.019   6.565  24.046  0.1011 -0.3831  0.0669
31852W        W38452  15.897   5.603  20.098  0.0925  0.0396  0.1875
31853W        W38453   5.060   6.896   7.719 -0.1627 -0.0455  0.2196
31854W        W38454  20.437   2.022   7.931 -0.1548  0.2228 -0.0753
31855W        W38455   3.728   1.485  23.787 -0.1850 -0.1270 -0.0020
31856W        W38456   8.772   6.720   6.407  0.1843  0.0792  0.0201
31857W        W38457  20.906   2.983  15.360 -0.1094  0.1254 -0.1910
31858W        W38458  22.520   4.677  20.568 -0.2797  0.0432 -0.0433
31859W        W38459   8.320   4.635  17.040 -0.0449 -0.1462  0.0080
31860W        W38460   6.069   1.525  26.934  0.0717  0.2936  0.0899
31861W        W38461   6.468   3.387   9.466  0.1108  0.0341  0.1624
31862W        W38462  12.147   2.996  11.839  0.1935 -0.3034  0.1005
31863W        W38463  16.632   3.631  25.378 -0.2824 -0.2611  0.1202
31864W        W38464  24.077   4.166  21.999  0.2297 -0.4015  0.0078
31865W        W38465   2.357   5.358  23.875  0.0561  0.0758  0.0496
31866W        W38466  19.812   2.878   8.067  0.1938  0.0999  0.2310
31867W        W38467  16.482   6.373   1.172 -0.3885 -0.1033 -0.2449
31868W        W38468  14.503   5.327   2.361  0.1217  0.2938 -0.0330
31869W        W38469  14.632   2.836  30.990  0.1290  0.0545 -0.1473
31870W        W38470  15.555   5.809  24.520  0.3134  0.0688 -0.2300
31871W        W38471  23.677   4.684  32.525  0.2686 -0.0226  0.0283
31872W        W38472   9.138   6.760   4.839  0.0938 -0.0952  0.1119
31873W        W38473  17.283   4.694  27.058  0.0071 -0.2306  0.0222
31874W        W38474  16.380   2.863   9.603  0.2786  0.0628 -0.2353
31875W        W38475  10.281   3.990  23.572  0.1568 -0.1818  0.0707
31876W        W38476  24.237   1.044   4.159  0.0492 -0.1557  0.2992
31877W        W38477  18.908   5.298  31.881  0.1045  0.0812  0.1843
31878W        W38478   4.211   3.153  30.585 -0.0107  0.1662  0.1301
31879W        W38479  18.195   0.681  22.644  0.1920 -0.0594 -0.2288
31880W        W38480  13.761   3.802   5.095 -0.2483 -0.1949 -0.2535
31881W        W38481  12.978   1.813   7.956 -0.2203 -0.2367  0.0231
31882W        W38482  10.679   6.192  26.788 -0.1443 -0.2762  0.1224
31883W        W38483   0.094   4.569  25.817 -0.1077  0.0444  0.3068
31884W        W38484  16.979   0.369  26.332 -0.2551 -0.1038 -0.0744
31885W        W38485   8.588   2.262  30.023 -0.1409  0.0279 -0.0397
31886W        W38486  11.384   7.082   5.945  0.0556 -0.1106 -0.2065
31887W        W38487   9.499   6.254   4.173  0.4429  0.0209  0.0491
31888W        W38488   9.145   0.148   9.776  0.1757  0.3316  0.3288
31889W        W38489  17.360   1.918   3.874  0.4749  0.0995  0.3033
31890W        W38490   8.430   4.486  31.809 -0.0067  0.3084 -0.0666
31891W        W38491  21.736   4.669   5.241  0.0068 -0.0043  0.0190
31892W        W38492   2.941   0.345   5.828 -0.3729 -0.0736 -0.0492
31893W        W38493   7.141   3.992  26.605  0.2326  0.1744 -0.1437
31894W        W38494  24.639   0.135  19.691  0.0979 -0.2702  0.2680
31895W        W38495  24.660   0.327   2.904  0.1898 -0.1005  0.0891
31896W        W38496  16.144   3.917  23.608 -0.0480 -0.0081  0.1620
31897W        W38497  21.592   0.524  23.859  0.2666  0.0405  0.1649
31898W        W38498  21.771   6.940  25.139 -0.2906  0.0499 -0.0498
31899W        W38499  15.495   5.929  23.304  0.1985  0.1890  0.1787
31900W        W38500  19.836   4.169  22.006 -0.0329 -0.3211 -0.0247
31901W        W38501  20.150   2.169  20.619 -0.1632  0.1609  0.0149
31902W        W38502  25.020   3.753  24.810  0.2001  0.3473  0.0720
31903W        W38503   2.944   1.369  26.988 -0.1701  0.1369 -0.1000
31904W        W38504  16.776   1.628  27.286 -0.1808  0.2733  0.0115
31905W        W38505   1.812   0.538   4.278 -0.5451 -0.2456  0.0125
31906W        W38506  19.155   4.261  18.002  0.1303  0.0453 -0.0604
31907W        W38507   2.857   6.998  27.300  0.3452  0.2084 -0.0763
31908W        W38508  21.956   5.055  28.591 -0.0108 -0.1408  0.0744
31909W        W38509  20.173   5.502   5.879 -0.2279  0.1019 -0.0031
31910W        W38510  18.236   1.998   8.599  0.2389  0.0355  0.2277
31911W        W38511  24.085   7.782  30.432 -0.1401  0.0398 -0.1548
31912W        W38512  22.667   4.617   4.865 -0.3253  0.2065  0.2164
31913W        W38513   1.534   4.492   1.071  0.0604  0.2506 -0.0248
31914W        W38514   5.636   1.355   8.945 -0.3822  0.2349  0.2068
31915W        W38515   0.839   2.971   8.299  0.0233 -0.0739 -0.0787
31916W        W38516  23.386   1.184  26.103  0.0760 -0.1879  0.2433
31917W        W38517   5.362   3.079  29.604 -0.2254  0.0407  0.1926
31918W        W38518  19.644   7.098  19.288  0.1734 -0.2600  0.2567
31919W        W38519  15.575   0.039  26.579 -0.0597  0.0552  0.1021
31920W        W38520  19.896   3.084   0.315 -0.0388 -0.1519  0.1134
31921W        W38521  22.167   1.430   4.770  0.2727 -0.0203 -0.0785
31922W        W38522  21.751   2.084  18.702 -0.2259 -0.1325  0.0102
31923W        W38523  18.647   4.958  31.040 -0.1138  0.0155 -0.0644
31924W        W38524   0.218   5.419  27.829  0.3752  0.0834 -0.1296
31925W        W38525  13.267   3.102   3.804  0.2061  0.0091 -0.3159
31926W        W38526   8.102   1.801  30.851 -0.2998  0.3297  0.1614
31927W        W38527   4.824   0.900  14.981 -0.2864  0.2443  0.0874
31928W        W38528   8.029   7.319  22.805 -0.1647  0.2041 -0.0549
31929W        W38529   0.424   4.777  28.361  0.3226 -0.2048  0.0570
31930W        W38530  14.869   4.796   3.313 -0.1592  0.1610  0.1662
31931W        W38531   2.954   6.397  22.552 -0.0460 -0.2212  0.0484
31932W        W38532   2.073   0.174   3.101  0.1584  0.0154 -0.1343
31933W        W38533   5.238   5.364  13.040  0.2279 -0.0149  0.3527
31934W        W38534  22.690   0.875   6.046 -0.0192  0.2994 -0.1800
31935W        W38535   6.755   2.287  28.157 -0.0563 -0.0252 -0.2038
31936W        W38536   1.895   6.417   9.133 -0.0454  0.1446  0.2875
31937W        W38537  10.618   2.140  31.662  0.2029 -0.1111 -0.2472
31938W        W38538   6.402   6.936  30.135  0.1907  0.3010  0.1013
31939W        W38539   3.152   1.165   2.410 -0.0906  0.0075  0.1018
31940W        W38540  20.232   4.663  17.644 -0.0620 -0.1449  0.0306
31941W        W38541  11.698   1.858  32.189  0.1371 -0.1079 -0.1052
31942W        W38542  23.869   1.739  21.488  0.0768 -0.1795 -0.0079
31943W        W38543   4.425   1.358   4.680  0.4000  0.0426 -0.5165
31944W        W38544  13.272   4.341   9.823  0.1391  0.1401 -0.2002
31945W        W38545   8.463   7.650   5.628 -0.2842 -0.2620 -0.0083
31946W        W38546  22.057   3.886  14.864 -0.0088 -0.2085  0.1115
31947W        W38547  10.602   2.008   1.471  0.1964  0.0423  0.1298
31948W        W38548   5.562   5.925  10.950 -0.3974  0.0963  0.3653
31949W        W38549   1.195   7.115  10.896  0.0392 -0.1250  0.1583
31950W        W38550  21.739   5.054  20.576 -0.1279 -0.0048  0.1019
31951W        W38551   9.774   5.386   6.803 -0.1336  0.0278  0.0120
31952W        W38552   6.649   4.217   7.533 -0.1816  0.2032 -0.0166
31953W        W38553  24.241   6.895  20.255 -0.0035  0.3157 -0.0753
31954W        W38554  14.048   3.849  32.449  0.0226  0.0810 -0.2975
31955W        W38555  10.303   4.585  27.904 -0.1085 -0.2909  0.0971
31956W        W38556  16.859   0.873  17.518  0.0878  0.0822  0.2766
31957W        W38557  21.583   4.048   6.470 -0.0092  0.1058  0.0559
31958W        W38558   4.396   0.795   8.904  0.0875  0.0351  0.0619
31959W        W38559   4.763   6.609   4.394 -0.2403  0.5396  0.0267
31960W        W38560   1.528   1.646  22.485  0.0264 -0.3206  0.0657
31961W        W38561  23.278   1.171  25.561 -0.2070 -0.0472  0.0324
31962W        W38562  20.481   7.069   4.907  0.1464 -0.0255  0.0866
31963W        W38563  22.994   3.207  25.221  0.3557 -0.1618 -0.0768
31964W        W38564  13.291   1.298   8.026 -0.0287  0.0684 -0.1249
31965W        W38565   3.720   4.387   5.765 -0.1704 -0.0302 -0.1212
31966W        W38566   6.025   3.877  29.733 -0.2159 -0.1074  0.0068
31967W        W38567   1.373   0.303  31.193 -0.1874  0.1470  0.1890
31968W        W38568  22.478   2.709  15.995  0.0239 -0.0307 -0.0395
31969W        W38569   3.373   3.293  11.220  0.1627 -0.0168 -0.1195
31970W        W38570  18.510   6.566  25.373  0.1066 -0.2131  0.3688
31971W        W38571  12.652   1.683  15.359  0.2761 -0.1600 -0.5995
31972W        W38572  21.106   5.269   0.426  0.1823  0.0247 -0.0159
31973W        W38573  22.397   6.653  29.653  0.1580 -0.1385 -0.2976
31974W        W38574   9.156   7.700   3.013 -0.2068  0.0904 -0.0205
31975W        W38575   5.043   6.331   4.760  0.0191  0.2086 -0.0269
31976W        W38576   2.919   1.779  12.824 -0.0339  0.0866 -0.1553
31977W        W38577  13.637   5.597  12.064 -0.0959  0.0917  0.0821
31978W        W38578  17.572   2.614  31.958  0.1036 -0.1563 -0.1981
31979W        W38579  20.556   5.366  30.993  0.2185 -0.5017 -0.2581
31980W        W38580   3.350   2.190  31.221  0.1604 -0.1290 -0.0067
31981W        W38581  16.357   1.084  28.885  0.1873  0.2766 -0.0904
31982W        W38582  10.269   3.201  15.594 -0.0078 -0.0041  0.2332
31983W        W38583  22.747   4.559   0.054  0.0836  0.0992  0.0855
31984W        W38584  16.751   0.241   4.877  0.0495  0.0284  0.2485
31985W        W38585   1.563   6.790  11.041  0.0297 -0.1286 -0.1461
31986W        W38586  18.971   5.253  28.052 -0.0827  0.0575  0.0365
31987W        W38587   5.817   0.198   3.394  0.1309  0.1350 -0.1427
31988W        W38588  20.238   1.970  24.360  0.0894  0.1407  0.1321
31989W        W38589  11.527   2.463  15.325  0.1542  0.0621 -0.0764
31990W        W38590   3.737   5.177   7.807  0.0881 -0.2527 -0.2458
31991W        W38591   6.398   3.432  25.764  0.2493  0.2327  0.3745
31992W        W38592  17.367   0.427   6.250 -0.1479  0.1263  0.1946
31993W        W38593  15.007   4.945  23.113  0.0520 -0.1783 -0.4122
31994W        W38594  14.397   3.097   5.215 -0.0052 -0.0142  0.2779
31995W        W38595  24.681   3.553   6.857 -0.1238  0.2454 -0.2341
31996W        W38596   4.640   1.845   7.253  0.3254 -0.2218 -0.0881
31997W        W38597   0.682   6.782   8.647 -0.1223 -0.3014 -0.0088
31998W        W38598  10.780   0.072   7.392  0.1923  0.0069  0.1755
31999W        W38599  11.835   5.921  26.536  0.1291 -0.0318 -0.0452
32000W        W38600   4.906   4.800   3.228 -0.1484 -0.3139 -0.1214
32001W        W38601   6.407   3.384  24.988 -0.2314 -0.2182  0.0674
32002W        W38602   3.522   4.373   7.521 -0.0968  0.0441 -0.0609
32003W        W38603  18.148   6.980  16.973  0.2295 -0.3308 -0.1719
32004W        W38604  16.717   7.379  25.592 -0.1862 -0.2113 -0.1037
32005W        W38605   9.497   2.154  12.878 -0.1231 -0.0952 -0.0481
32006W        W38606  21.951   2.723   7.863 -0.3226  0.1170  0.2517
32007W        W38607  23.600   3.950   2.905 -0.1749 -0.0253 -0.0821
32008W        W38608   5.544   2.237  31.448 -0.2736  0.2552  0.0709
32009W        W38609  24.932   7.007  29.152  0.0734  0.0540  0.1807
32010W        W38610   3.632   1.789   9.845 -0.0838 -0.2326  0.0738
32011W        W38611  15.984   5.860   2.101 -0.0936 -0.0671 -0.0206
32012W        W38612  11.248   5.837   5.658  0.0529 -0.1181 -0.2142
32013W        W38613  22.433   7.285  19.707 -0.0015 -0.0828  0.2026
32014W        W38614  10.211   6.429   4.812  0.2234  0.2980 -0.0630
32015W        W38615   1.607   7.504  27.771 -0.2673 -0.2065  0.1054
32016W        W38616  20.012   1.008   9.925 -0.0513 -0.1296 -0.0324
32017W        W38617  13.136   2.641  23.252  0.3539  0.0157  0.0087
32018W        W38618  20.741   5.765  29.283 -0.3759  0.1341  0.3447
32019W        W38619   2.865   6.506   2.910 -0.1820  0.1076  0.1971
32020W        W38620   8.231   7.385  13.507  0.2269 -0.1125 -0.0934
32021W        W38621   0.383   6.130  31.083 -0.0646  0.0169 -0.2120
32022W        W38622   0.621   6.761  23.800 -0.3524 -0.3682  0.0026
32023W        W38623  13.152   2.646   5.403 -0.2200  0.1919  0.2106
32024W        W38624   4.725   6.719  12.400  0.1507  0.0864  0.2041
32025W        W38625  22.196   1.706  19.906 -0.1367  0.0151  0.2459
32026W        W38626   7.627   2.354   1.196 -0.0494  0.0224 -0.0810
32027W        W38627  23.322   1.387   9.878 -0.2526  0.1069  0.1317
32028W        W38628  14.089   1.577  10.095  0.1788  0.0217  0.0748
32029W        W38629   5.093   7.532  28.380 -0.3030  0.4084 -0.0916
32030W        W38630  10.849   1.691  29.489  0.2070 -0.1730  0.2978
32031W        W38631  11.625   7.555  24.770 -0.0093 -0.0785  0.1585
32032W        W38632  17.419   1.908   8.674 -0.1665  0.0654 -0.3280
32033W        W38633  21.341   6.570  18.448  0.0743  0.0648  0.2085
32034W        W38634  21.839   1.375   1.690  0.3545 -0.0199 -0.3626
32035W        W38635  17.439   6.329  10.484 -0.2230  0.2530 -0.3135
32036W        W38636  10.517   0.307  11.651  0.3120  0.1584  0.2617
32037W        W38637   6.471   3.435   2.579 -0.0915  0.0533 -0.0249
32038W        W38638   4.892   0.257   6.358  0.0994  0.2203  0.0504
32039W        W38639  20.318   3.958   5.317 -0.0250 -0.1809 -0.3626
32040W        W38640   6.830   5.990  32.267 -0.1541 -0.2146 -0.0649
32041W        W38641  17.965   6.409  21.656 -0.1489 -0.2012  0.1367
32042W        W38642  13.853   4.621   7.324 -0.0761 -0.1385  0.1131
32043W        W38643  21.447   3.210  32.682 -0.2122 -0.2232 -0.0534
32044W        W38644   4.783   6.424   5.193  0.0020 -0.0000  0.0734
32045W        W38645  20.200   3.478  19.742  0.2120 -0.1305  0.1602
32046W        W38646  22.277   6.062  26.357 -0.0819  0.4062  0.0367
32047W        W38647   8.705   1.692   7.525  0.1110 -0.0791 -0.1623
32048W        W38648   1.623   5.727  18.924 -0.1029  0.0821  0.0608
32049W        W38649  22.763   5.710   8.071 -0.2122  0.0358  0.1185
32050W        W38650  22.639   2.045   3.650 -0.2186 -0.2675 -0.1068
32051W        W38651   2.778   3.518  29.219  0.0250  0.3755  0.1105
32052W        W38652   5.124   6.081  10.604  0.0549  0.0485  0.1472
32053W        W38653  13.127   0.961  21.761  0.0622 -0.1365 -0.1205
32054W        W38654  12.102   1.163  11.833 -0.0736  0.2078 -0.4536
32055W        W38655   2.562   0.669  10.496 -0.2246 -0.0880 -0.0831
32056W        W38656  20.891   6.649   3.936 -0.0018  0.0465  0.0902
32057W        W38657  19.731   4.804   1.579  0.0550  0.1923 -0.1551
32058W        W38658   5.793   0.508  22.970  0.1561 -0.0027  0.0840
32059W        W38659   7.341   7.219  11.235 -0.2529 -0.1045 -0.1053
32060W        W38660  20.856   0.927  30.240 -0.3271 -0.0582  0.0415
32061W        W38661   8.101   6.044  15.296 -0.0680 -0.1900  0.0661
32062W        W38662  17.156   6.801  27.615 -0.0368 -0.2220  0.2793
32063W        W38663  22.298   5.625  26.676  0.1156  0.1129 -0.1823
32064W        W38664   3.895   0.932  24.574 -0.3372 -0.0011  0.1034
32065W        W38665   4.494   5.614  32.695 -0.2201 -0.2437 -0.1138
32066W        W38666   3.205   6.364   9.752  0.1146 -0.2523 -0.0434
32067W        W38667  11.916   1.512  12.909  0.0251 -0.0956  0.2102
32068W        W38668   6.473   6.522  22.211 -0.5476  0.0690  0.1577
32069W        W38669  17.668   0.920   2.805 -0.2544  0.3058 -0.2890
32070W        W38670  24.887   5.366  15.683  0.1726 -0.1869  0.0091
32071W        W38671  18.145   2.105   8.118  0.3969 -0.0073 -0.5292
32072W        W38672  18.151   0.734   2.928  0.2654  0.1430  0.0376
32073W        W38673   9.675   1.214  30.215  0.0091  0.0928 -0.1462
32074W        W38674  16.991   3.927  10.792 -0.2674 -0.1431  0.0356
32075W        W38675  10.318   1.750   5.504  0.1356 -0.1474  0.0026
32076W        W38676  16.605   0.158  25.728  0.0785 -0.2505  0.0220
32077W        W38677  21.858   1.501   2.215  0.3470  0.0425 -0.0812
32078W        W38678   2.648   6.279   1.083  0.1121  0.2522  0.1454
32079W        W38679   0.682   7.222  11.011  0.2670  0.3255 -0.0134
32080W        W38680  18.657   3.374   1.328 -0.0541  0.1069  0.1621
32081W        W38681  19.102   4.798  14.170 -0.0275 -0.1963 -0.0473
32082W        W38682  19.433   7.083  18.855 -0.1098 -0.1768 -0.1771
32083W        W38683   6.731   3.772  23.622  0.0409  0.1704 -0.0301
32084W        W38684   7.937   1.828  26.992  0.3032  0.2251 -0.0423
32085W        W38685   5.669   3.703   9.821  0.1901  0.4062  0.3440
32086W        W38686  24.090   7.057  29.850 -0.1188  0.1213 -0.2339
32087W        W38687  17.592   2.523  27.198  0.2208 -0.1644 -0.0898
32088W        W38688   8.675   3.491  10.143  0.2233 -0.2055  0.1717
32089W        W38689   1.068   7.211   7.832  0.2086  0.3649  0.0108
32090W        W38690  18.463   6.754   2.783 -0.1287  0.0680  0.1231
32091W        W38691  21.772   0.317  29.114 -0.1032  0.1583  0.0585
32092W        W38692  10.292   5.544  28.565 -0.1439  0.0208  0.0859
32093W        W38693   4.699   5.217  26.155  0.0193  0.0459 -0.0115
32094W        W38694  22.883   5.369   6.103  0.1223 -0.2322 -0.0030
32095W        W38695   9.312   4.827   7.347 -0.0034  0.1755 -0.3191
32096W        W38696   4.876   6.311   7.671  0.0906  0.0700  0.1254
32097W        W38697  22.600   5.170  19.589  0.1286  0.2383  0.3874
32098W        W38698  14.868   7.727  11.539  0.5013  0.0142  0.2269
32099W        W38699  13.855   5.128   7.442 -0.4017  0.0250 -0.0199
32100W        W38700  16.743   4.917  10.578 -0.4310  0.1697  0.0118
32101W        W38701  16.204   7.135   8.111 -0.0729 -0.0925 -0.0501
32102W        W38702   9.984   1.586   2.827 -0.0269  0.2916 -0.1497
32103W        W38703   3.496   2.719   3.609  0.0910 -0.0169  0.1751
32104W        W38704  11.112   1.243  16.841 -0.0016  0.2014  0.1591
32105W        W38705  16.887   6.133   2.911 -0.1748  0.1172  0.1039
32106W        W38706  14.454   6.194   6.469  0.1741  0.2499 -0.1720
32107W        W38707  20.221   6.076  19.448  0.1319 -0.2197 -0.1342
32108W        W38708  18.159   3.080  20.162  0.0450  0.2371 -0.0874
32109W        W38709  22.877   6.045  31.374  0.1627  0.0420  0.0807
32110W        W38710   6.629   3.493   7.233  0.0019 -0.0415 -0.0067
32111W        W38711   4.678   3.953  23.426 -0.1317 -0.1093 -0.1019
32112W        W38712  24.245   6.931   9.932  0.1401  0.1241 -0.1428
32113W        W38713   1.665   2.773  32.051 -0.1679 -0.1358  0.0869
32114W        W38714  13.941   2.402  10.239  0.3283  0.0816 -0.2381
32115W        W38715  11.316   1.584  14.216 -0.1004  0.1238 -0.1603
32116W        W38716   6.560   4.621   1.817  0.2974 -0.0314 -0.0112
32117W        W38717   8.630   0.590  25.576 -0.0573  0.2207 -0.1276
32118W        W38718  19.590   7.224  31.855 -0.0330 -0.1339 -0.2670
32119W        W38719   6.976   4.872  17.685  0.0697  0.0025 -0.0079
32120W        W38720  21.035   7.550  16.067  0.0367  0.0007  0.1312
32121W        W38721  16.596   1.420   3.627  0.0522 -0.1275  0.0409
32122W        W38722  20.938   2.589  25.813 -0.0823  0.2842 -0.1293
32123W        W38723   8.906   1.261   3.812 -0.1015  0.0191 -0.3358
32124W        W38724   1.544   3.110  29.962  0.2680 -0.0374 -0.1732
32125W        W38725  19.715   1.376   4.939 -0.2520 -0.0312 -0.2600
32126W        W38726   4.971   2.344   8.399  0.1180 -0.3156  0.2977
32127W        W38727   6.802   6.594  11.188  0.1707  0.0835  0.0039
32128W        W38728   5.674   4.581   9.731 -0.3409 -0.0270 -0.1394
32129W        W38729  12.692   4.370  30.186 -0.3908  0.0579 -0.2253
32130W        W38730  21.153   5.547   7.383  0.0936  0.0008 -0.0622
32131W        W38731  16.409   1.852   8.570  0.0389 -0.0152  0.1052
32132W        W38732  20.052   7.452   8.228  0.1253  0.1303 -0.2940
32133W        W38733  19.369   1.540   1.501  0.4767  0.1500 -0.2551
32134W        W38734  24.512   7.535  16.846 -0.1397  0.0671  0.0304
32135W        W38735   3.886   3.607  14.401 -0.0183  0.0218  0.0043
32136W        W38736   1.735   0.812  27.055 -0.2720  0.2930  0.0538
32137W        W38737   6.771   2.844  13.025  0.0447 -0.1271  0.2104
32138W        W38738   9.006   2.559   1.343  0.1061 -0.0476 -0.1328
32139W        W38739  20.069   6.991   0.773 -0.1840 -0.0121 -0.3315
32140W        W38740  20.965   2.521  16.187  0.0466 -0.1628  0.1348
32141W        W38741  14.931   2.907  18.721 -0.1721 -0.1698  0.1199
32142W        W38742  15.806   1.640  24.579  0.0359  0.0246  0.2436
32143W        W38743  22.742   2.637  16.458  0.1095  0.1647 -0.0582
32144W        W38744  16.444   0.494   4.477  0.0323  0.0917  0.4341
32145W        W38745  11.004   5.878  17.556  0.1444  0.0672  0.0096
32146W        W38746  14.371   4.993   3.144 -0.1677 -0.2147 -0.1268
32147W        W38747  14.289   2.964  25.295  0.0108 -0.0811  0.2499
32148W        W38748  24.715   5.388  30.703  0.0120 -0.0013 -0.2559
32149W        W38749  19.669   1.376   9.909  0.3241  0.2162 -0.1936
32150W        W38750   7.306   6.534  22.727 -0.1396 -0.2710 -0.0590
32151W        W38751   2.835   2.167  10.445 -0.1437 -0.3449  0.0699
32152W        W38752   3.551   3.154  28.166 -0.2642 -0.0753  0.2963
32153W        W38753  22.221   5.728  16.641  0.2473 -0.3437 -0.2287
32154W        W38754  11.986   1.162  26.235 -0.0721  0.2393 -0.2663
32155W        W38755  12.202   2.815  12.460  0.1229  0.5979 -0.1009
32156W        W38756   6.630   5.552  14.285 -0.0542  0.1387  0.2092
32157W        W38757  11.909   5.042  23.205 -0.0064 -0.0557  0.1714
32158W        W38758   4.407   6.715  10.578  0.1009 -0.0706  0.0627
32159W        W38759   7.815   1.855  28.653 -0.0496  0.0917 -0.1114
32160W        W38760  20.453   2.898  21.352 -0.0007  0.0276  0.1857
32161W        W38761   7.325   1.035  16.361 -0.1250  0.0899  0.2332
32162W        W38762  22.992   1.515   6.053 -0.0134 -0.0575  0.3627
32163W        W38763   2.719   5.060  27.365  0.0840  0.1400 -0.2047
32164W        W38764   0.829   5.431  23.890  0.0080 -0.1090 -0.0310
32165W        W38765  17.791   3.075  21.560  0.1805  0.2575 -0.2154
32166W        W38766   5.035   4.377  10.366  0.0040 -0.0425 -0.0981
32167W        W38767  10.718   6.611  15.899 -0.0861 -0.2402 -0.1109
32168W        W38768  22.942   7.371   4.350 -0.1975  0.0940 -0.1032
32169W        W38769  22.910   7.515  19.744 -0.1131 -0.1346 -0.1706
32170W        W38770   4.589   3.336  12.136  0.1487 -0.1239  0.3101
32171W        W38771  12.727   0.492  32.683 -0.0640  0.0109  0.0437
32172W        W38772   2.616   6.979  27.716 -0.0433 -0.0518 -0.0363
32173W        W38773  23.857   0.271   6.364  0.0320 -0.1927  0.1161
32174W        W38774   3.487   7.738   4.519 -0.0962  0.0282 -0.0699
32175W        W38775  14.736   7.490   0.432  0.1658  0.0463 -0.2702
32176W        W38776  15.869   4.273   9.699 -0.0816  0.1086  0.0494
32177W        W38777  23.431   3.951  32.603 -0.1049 -0.2041 -0.0154
32178W        W38778  15.704   0.990  12.740 -0.1409 -0.3553 -0.5609
32179W        W38779   8.436   2.541  30.471  0.0820 -0.0792 -0.0152
32180W        W38780   1.653   1.577  23.188 -0.2649 -0.0624  0.0307
32181W        W38781   0.946   5.027  31.722 -0.0113  0.0022  0.0742
32182W        W38782  15.603   2.442  22.711  0.0579 -0.2843  0.1241
32183W        W38783  19.095   6.188  10.075 -0.0843 -0.2062  0.0076
32184W        W38784  13.678   3.062  30.674 -0.0172  0.1276  0.1571
32185W        W38785   3.430   3.749  32.296 -0.2799  0.0561 -0.3133
32186W        W38786  20.916   4.030   0.025 -0.0992 -0.2807 -0.0594
32187W        W38787   1.472   7.318  11.230  0.1330  0.0080 -0.0739
32188W        W38788   3.945   2.969   1.511 -0.0563  0.1089 -0.2479
32189W        W38789  13.900   4.798  13.567  0.1798  0.1686  0.1774
32190W        W38790   1.554   5.839  24.510  0.1722 -0.1027  0.1457
32191W        W38791   6.319   1.499   8.326 -0.3131  0.0053  0.2536
32192W        W38792   0.401   5.356   7.803 -0.2782  0.0559 -0.3346
32193W        W38793  14.441   2.420  25.598  0.2792 -0.0141 -0.0191
32194W        W38794   1.583   4.194  22.859  0.2715  0.0180 -0.1477
32195W        W38795   8.565   0.124  29.743 -0.1859  0.1337  0.1366
32196W        W38796  19.344   0.575   2.743  0.3140 -0.1290 -0.1185
32197W        W38797   5.605   2.997  12.473 -0.1404  0.0110 -0.0523
32198W        W38798  17.428   5.263  24.937  0.0751 -0.0578 -0.1015
32199W        W38799  14.949   0.023   5.539 -0.1340 -0.0923  0.1174
32200W        W38800  24.230   7.242  27.965  0.1633  0.0484  0.2194
32201W        W38801   5.772   6.815  16.694 -0.0765 -0.0460  0.0177
32202W        W38802   8.653   4.273  11.612  0.0175  0.0006  0.2882
32203W        W38803  19.763   3.189   3.073  0.1143  0.1427  0.0256
32204W        W38804  11.685   3.579  14.610 -0.1667 -0.0914  0.0011
32205W        W38805  18.722   1.482  32.564  0.2044 -0.2134  0.1129
32206W        W38806   5.865   5.481  10.725  0.1171 -0.0223  0.1017
32207W        W38807  14.152   1.977  23.908 -0.1613 -0.2353 -0.0896
32208W        W38808  20.208   7.530  17.865  0.0405 -0.0757  0.1713
32209W        W38809   5.559   4.450  15.327  0.0604  0.0033  0.1810
32210W        W38810   7.268   5.524   5.283  0.0573 -0.1319 -0.0198
32211W        W38811   4.915   1.682  25.947 -0.1550  0.0398  0.3430
32212W        W38812  17.790   6.207  32.214 -0.1530  0.0834  0.2439
32213W        W38813  17.086   3.777   6.449  0.1349  0.1673 -0.1514
32214W        W38814  18.665   0.951   5.712 -0.1385 -0.0359 -0.0891
32215W        W38815   6.789   0.280  24.827  0.0051  0.1172  0.1094
32216W        W38816   6.365   0.449  26.683 -0.1039 -0.1679  0.0363
32217W        W38817  23.163   2.969  24.726  0.0707  0.1156  0.0626
32218W        W38818   8.242   7.075  24.391  0.2248 -0.1036  0.1381
32219W        W38819  13.656   1.475   0.263 -0.0238 -0.0566 -0.0297
32220W        W38820  23.343   2.785  28.146  0.0423 -0.2179 -0.1494
32221W        W38821  23.135   0.216  15.302 -0.0719 -0.1696 -0.0237
32222W        W38822   2.462   6.802  25.563 -0.0593 -0.0399 -0.0548
32223W        W38823  17.687   4.009  32.494  0.0945 -0.2952  0.1405
32224W        W38824  19.427   2.358   5.342 -0.1070  0.0470 -0.3155
32225W        W38825  22.715   2.836   3.670 -0.0405 -0.0140  0.1463
32226W        W38826  18.335   1.971   9.180  0.2073 -0.0750  0.1189
32227W        W38827  22.856   6.030   6.210  0.2349  0.0199 -0.3218
32228W        W38828  10.049   2.886   3.190 -0.2473 -0.1638  0.0591
32229W        W38829  20.535   5.677  27.611 -0.0455  0.1091 -0.1292
32230W        W38830   3.659   7.335  31.545 -0.0441  0.0698  0.0778
32231W        W38831   0.203   1.506  24.027 -0.1113 -0.2098 -0.0051
32232W        W38832  20.279   3.635   3.443  0.4475  0.0828 -0.0597
32233W        W38833   2.362   6.661  26.707  0.0686 -0.2193  0.2623
32234W        W38834   4.307   0.774   5.270  0.0611 -0.0521 -0.2735
32235W        W38835   1.775   1.872  28.304 -0.0934  0.1673 -0.0692
32236W        W38836  12.279   3.293   3.424  0.1593  0.1067  0.2605
32237W        W38837   7.711   2.837  13.038 -0.0042 -0.2622 -0.1972
32238W        W38838  23.165   4.718   9.116  0.1717  0.0739 -0.1147
32239W        W38839   8.066   2.907  11.169  0.1332 -0.3464  0.3299
32240W        W38840  16.298   5.603   6.875  0.4198  0.2051 -0.3427
32241W        W38841  18.868   2.524   2.484  0.1980  0.4457  0.1461
32242W        W38842  14.400   2.708   4.555 -0.1296  0.0182 -0.0152
32243W        W38843  11.297   6.204  23.717 -0.1415 -0.1145 -0.0043
32244W        W38844   1.868   2.193  18.175  0.1281  0.3451 -0.1848
32245W        W38845  11.743   2.346  10.127 -0.0239 -0.0792  0.1452
32246W        W38846  22.041   2.776   3.054 -0.0864  0.0577 -0.0356
32247W        W38847   0.524   7.662  26.581  0.0877  0.0811 -0.2426
32248W        W38848   1.035   0.962  26.041 -0.3419  0.0303 -0.1289
32249W        W38849  17.150   7.397   5.966 -0.0101 -0.0461  0.1272
32250W        W38850   4.703   3.291  16.675 -0.1675 -0.0806  0.0899
32251W        W38851  10.716   3.919  23.235 -0.4228  0.2302 -0.2815
32252W        W38852  20.767   0.576  18.862 -0.0818  0.3007  0.1231
32253W        W38853  24.027   5.997  18.543  0.1177 -0.2024 -0.1779
32254W        W38854   2.387   4.578   4.224  0.1793  0.2615 -0.3654
32255W        W38855  23.508   3.706  25.647 -0.1104 -0.0792  0.2030
32256W        W38856   0.507   2.427  17.035  0.0761 -0.0389  0.1614
32257W        W38857   9.726   6.896  31.258  0.0719  0.1663  0.0479
32258W        W38858   9.587   2.223  17.238 -0.1294  0.2227 -0.0645
32259W        W38859   8.485   6.906  14.802  0.0273 -0.0818 -0.2360
32260W        W38860  12.831   4.146   1.928  0.2532 -0.1295  0.0610
32261W        W38861  23.263   7.478  20.860  0.0028  0.0680  0.2794
32262W        W38862   1.178   3.113  27.287  0.0670  0.3590  0.2324
32263W        W38863  22.826   4.207   3.932 -0.0551 -0.2920 -0.1289
32264W        W38864   3.792   6.859  12.474  0.1083 -0.0603  0.1727
32265W        W38865   6.671   5.625   6.079 -0.1443 -0.0078  0.0842
32266W        W38866   3.731   6.028   0.282 -0.0436 -0.0177  0.1049
32267W        W38867  18.141   4.869   4.957  0.1554 -0.0578  0.2626
32268W        W38868   0.819   1.783  31.057  0.1094 -0.0279  0.1301
32269W        W38869  11.183   5.886  15.035  0.0467  0.1262  0.2371
32270W        W38870   9.922   3.619   2.359  0.1729 -0.0510  0.0622
32271W        W38871  18.970   4.310  29.002  0.1626 -0.0429  0.4681
32272W        W38872   1.243   5.382  26.703  0.0047 -0.0321 -0.0841
32273W        W38873   4.616   6.540   0.052 -0.1637 -0.1685 -0.1179
32274W        W38874  24.175   1.438  28.994 -0.0131  0.3203  0.2893
32275W        W38875  12.464   1.901  12.454 -0.0917  0.1226  0.1610
32276W        W38876  20.962   5.969  22.485  0.1582  0.0863  0.1466
32277W        W38877  20.779   2.092   2.048  0.1783  0.1919 -0.0106
32278W        W38878   2.733   4.080  13.162  0.1052  0.2807 -0.0084
32279W        W38879   6.486   1.653  16.327 -0.0278  0.0365 -0.0435
32280W        W38880  24.916   0.775   6.350  0.1557 -0.0477  0.1897
32281W        W38881  14.423   2.777   5.622  0.0383 -0.0519  0.0093
32282W        W38882  21.254   5.290  32.629  0.2519 -0.1592 -0.2891
32283W        W38883  14.214   0.042   9.290 -0.2521  0.3306  0.0979
32284W        W38884  22.666   3.093  31.111 -0.0514  0.1547 -0.2232
32285W        W38885   8.066   1.241  30.127 -0.3057  0.1159 -0.1880
32286W        W38886  13.209   0.387  23.273 -0.0695 -0.2606  0.1854
32287W        W38887   5.869   5.299  29.487 -0.0412 -0.3514 -0.2027
32288W        W38888  19.200   7.464  20.534  0.1019 -0.0116 -0.0084
32289W        W38889  23.364   4.851  21.004 -0.2219  0.1489  0.2185
32290W        W38890  19.066   0.160  20.392 -0.1306  0.2233 -0.0778
32291W        W38891  16.758   2.294   1.483 -0.4122  0.0521  0.2086
32292W        W38892  24.560   2.571   2.072  0.4610  0.0496 -0.1747
32293W        W38893  17.142   4.667  24.204 -0.2038 -0.2889 -0.0146
32294W        W38894   9.294   0.898  11.206  0.2664  0.4115 -0.0248
32295W        W38895   8.913   0.857  15.673 -0.0108 -0.3131 -0.1007
32296W        W38896  22.433   5.705  14.567 -0.0383  0.0153  0.0160
32297W        W38897  16.999   4.191  29.296  0.0845 -0.1818  0.1288
32298W        W38898  16.294   1.599  17.689  0.0734 -0.1846  0.1133
32299W        W38899  18.790   1.319  10.636 -0.0480 -0.1983  0.1435
32300W        W38900   2.860   6.858  24.690 -0.1331 -0.2617 -0.1998
32301W        W38901   1.098   2.935  10.461  0.0957  0.0175  0.0211
32302W        W38902  19.993   4.830  14.139  0.3214 -0.3303 -0.1846
32303W        W38903   2.556   7.190  28.222 -0.0689  0.2226  0.2953
32304W        W38904  23.054   1.465   4.863  0.0232  0.0215 -0.2396
32305W        W38905  17.083   6.845  29.940 -0.4943 -0.3028 -0.1235
32306W        W38906   0.323   5.415  30.046 -0.2132 -0.3548  0.0317
32307W        W38907  23.139   0.133  27.755 -0.4274  0.0654  0.1829
32308W        W38908  24.013   7.650   8.047 -0.0637  0.0866 -0.4268
32309W        W38909   4.708   7.071   5.717  0.1282  0.0952 -0.0593
32310W        W38910  12.594   6.249   7.357 -0.0292 -0.0317  0.0609
32311W        W38911  13.051   4.890   6.071  0.0912 -0.4124  0.0083
32312W        W38912   5.480   0.572  24.765  0.2614  0.1156 -0.1590
32313W        W38913  13.237   0.200  31.142 -0.2920  0.0872 -0.2186
32314W        W38914  11.676   5.909  26.015 -0.1428 -0.0898  0.0415
32315W        W38915  22.906   3.764   3.666  0.0586  0.2905  0.3948
32316W        W38916  11.612   5.939   8.263 -0.0762 -0.3287 -0.1483
32317W        W38917   3.160   7.355  32.509 -0.3839 -0.0090 -0.0432
32318W        W38918  10.164   6.375  25.920  0.0183  0.0492  0.0652
32319W        W38919  15.212   5.527  11.189  0.1612 -0.0765 -0.1547
32320W        W38920  17.437   1.110  16.426 -0.2324  0.1368  0.0033
32321W        W38921  16.202   2.448   3.144 -0.0517  0.1353  0.0871
32322W        W38922   0.237   1.254  30.889  0.2019  0.0907 -0.0177
32323W        W38923  24.083   1.236  23.649 -0.1268 -0.2478 -0.0444
32324W        W38924  14.762   7.378  24.340 -0.0785 -0.0405 -0.0836
32325W        W38925   0.878   6.226  26.844  0.1059 -0.1547  0.1516
32326W        W38926  14.190   5.458  21.294 -0.2120  0.0799 -0.0113
32327W        W38927   9.740   2.815   9.469  0.1736 -0.0854 -0.1360
32328W        W38928  15.247   6.896  12.406  0.2831  0.1935 -0.0483
32329W        W38929  22.531   5.538  24.655  0.0351  0.1375 -0.3209
32330W        W38930   4.171   3.619   0.989 -0.1523 -0.0504  0.1463
32331W        W38931   3.711   6.133  14.155  0.0659  0.2404  0.0729
32332W        W38932   4.882   4.380   8.784  0.1915  0.0173  0.1797
32333W        W38933  23.605   6.925  24.001 -0.0980 -0.1141 -0.1214
32334W        W38934  21.717   1.396   4.120  0.0233  0.2248  0.2049
32335W        W38935   0.307   5.626   2.856  0.1978 -0.3967  0.1013
32336W        W38936  15.959   4.378   6.193  0.2617 -0.2085  0.1765
32337W        W38937  17.640   0.638   4.592  0.1579 -0.2251 -0.1545
32338W        W38938  21.911   3.693  30.635 -0.1671  0.2400 -0.1294
32339W        W38939  15.013   7.115  23.062  0.0756  0.0190  0.1668
32340W        W38940  10.653   2.595   8.176  0.0383  0.0345 -0.2875
32341W        W38941  10.754   3.115   1.481 -0.0269 -0.0912  0.0284
32342W        W38942   9.569   6.598  16.785 -0.2193 -0.0234 -0.1895
32343W        W38943   6.184   6.629   1.111  0.0865  0.0487  0.1178
32344W        W38944   7.556   2.727   3.598 -0.1855  0.0761  0.1647
32345W        W38945  15.051   4.554  12.397  0.1914  0.3109 -0.4099
32346W        W38946  19.733   3.026  20.891 -0.0443 -0.0849  0.3284
32347W        W38947   4.411   2.204  14.487  0.0984  0.1700 -0.0489
32348W        W38948  18.869   6.096  22.520 -0.0610 -0.1015 -0.2723
32349W        W38949  21.109   6.225   7.182  0.0794 -0.1201  0.0454
32350W        W38950  21.947   3.714   7.247  0.1843  0.2037  0.0075
32351W        W38951   7.264   6.386  26.174  0.0126 -0.0783 -0.2058
32352W        W38952   5.827   0.733   8.806 -0.0623 -0.1157 -0.0268
32353W        W38953  16.928   3.371   1.390  0.0060 -0.2525  0.0239
32354W        W38954  15.962   2.505  19.565 -0.0779 -0.0234  0.0790
32355W        W38955  13.272   3.960   4.369 -0.0229 -0.1932  0.1251
32356W        W38956  20.427   6.794  26.688  0.3648  0.0103 -0.3156
32357W        W38957  20.448   7.414  28.196 -0.0742  0.1465  0.1686
32358W        W38958   1.471   0.789  30.265  0.0443  0.1910  0.1919
32359W        W38959   2.722   4.347   9.900 -0.0503  0.0018  0.1701
32360W        W38960  23.528   2.594   6.669 -0.0486 -0.0708 -0.1602
32361W        W38961  24.683   1.952  21.359 -0.2871  0.1885 -0.4256
32362W        W38962   9.235   5.498  12.960 -0.3510 -0.2824  0.2650
32363W        W38963   2.670   6.045  25.329  0.2717 -0.0782 -0.0927
32364W        W38964  10.949   7.533   7.716  0.2301  0.2073 -0.0108
32365W        W38965  11.173   2.123  27.876  0.1048 -0.4202 -0.0569
32366W        W38966   5.450   1.046  30.742 -0.3801  0.3230 -0.1820
32367W        W38967   4.731   0.750  14.129 -0.0320 -0.0873 -0.3071
32368W        W38968   2.697   4.600  23.511 -0.2359 -0.2186 -0.3426
32369W        W38969   4.074   2.868  11.583 -0.4003 -0.1512 -0.0027
32370W        W38970   4.550   0.004  25.871  0.0617 -0.0469 -0.2040
32371W        W38971   2.876   4.923   9.143  0.1672 -0.1532 -0.3145
32372W        W38972  17.199   3.553  21.314 -0.0208  0.2998 -0.2599
32373W        W38973   8.624   6.350  26.773 -0.3118  0.4729  0.0477
32374W        W38974   6.973   1.661  24.052 -0.3129 -0.0182  0.1133
32375W        W38975  23.618   1.248  31.378 -0.0762 -0.1700 -0.0152
32376W        W38976   7.674   4.346  16.746 -0.1562  0.2583  0.1119
32377W        W38977   2.770   5.987   3.798  0.2407 -0.2736 -0.0226
32378W        W38978   0.395   2.212   7.419  0.2159 -0.3020 -0.1523
32379W        W38979  10.435   6.225  15.852  0.2480  0.2435  0.0173
32380W        W38980  24.132   4.129  27.249 -0.0572 -0.2699 -0.0920
32381W        W38981  13.445   5.896  11.197 -0.0981 -0.0469 -0.1035
32382W        W38982   2.856   4.657  24.113 -0.1009 -0.3091 -0.0548
32383W        W38983   8.970   4.037  28.583 -0.1673 -0.2016 -0.1793
32384W        W38984  10.012   0.847  25.161  0.2764  0.0428 -0.2366
32385W        W38985   2.668   7.118  30.673 -0.3030 -0.1649  0.1292
32386W        W38986   5.883   7.780  11.947  0.0127 -0.0027  0.2455
32387W        W38987   9.453   6.431   8.116 -0.1936  0.0031 -0.0634
32388W        W38988  16.098   0.844  19.830 -0.0692  0.0825  0.0848
32389W        W38989  10.728   0.505  31.546  0.1281  0.1222 -0.1353
32390W        W38990  10.732   1.414  31.297 -0.0367 -0.0239  0.1640
32391W        W38991   4.905   4.484  14.168 -0.1162  0.3596  0.2081
32392W        W38992  23.599   5.466   0.812  0.0328 -0.0059 -0.0390
32393W        W38993   2.488   0.560   7.288 -0.1915 -0.0087  0.1460
32394W        W38994  11.216   3.219   2.558 -0.2204 -0.2254  0.2852
32395W        W38995  21.262   5.908   1.075 -0.1579 -0.1441  0.2229
32396W        W38996  21.601   5.906  29.921 -0.1827 -0.1211  0.2728
32397W        W38997  17.952   1.740   8.916 -0.3172 -0.3080  0.0126
32398W        W38998  18.166   3.961  10.072 -0.0628  0.2848 -0.3917
32399W        W38999  15.212   0.324  11.418  0.0821  0.4352  0.0206
32400W        W39000  20.289   1.385  18.995 -0.0810  0.2929  0.3206
32401W        W39001  13.425   7.722   3.960  0.0545  0.2555  0.3092
32402W        W39002   9.268   7.664   3.951  0.1812  0.0660 -0.0617
32403W        W39003   8.394   1.126  26.036  0.0095 -0.1198 -0.1720
32404W        W39004   3.055   2.383   7.501  0.1891 -0.1615  0.2203
32405W        W39005  10.142   7.293  25.657  0.4043 -0.1040  0.1786
32406W        W39006  10.862   4.610  16.440  0.1156  0.0220 -0.5855
32407W        W39007  20.869   3.282  27.240  0.2441  0.0942  0.1190
32408W        W39008  17.166   0.559   8.887 -0.0410 -0.3432  0.2994
32409W        W39009  19.924   3.407  16.667  0.1082 -0.1386  0.2375
32410W        W39010   9.271   2.534   2.212 -0.0149  0.0886  0.0143
32411W        W39011   2.049   2.991  22.911 -0.1007 -0.0307 -0.3714
32412W        W39012   9.862   0.695   9.015  0.1297  0.0784 -0.2521
32413W        W39013   1.321   4.616  32.265  0.1339  0.0274 -0.1867
32414W        W39014  24.541   2.383  32.325 -0.0226 -0.1309  0.1222
32415W        W39015   9.750   4.237   8.757  0.0110  0.0965 -0.0476
32416W        W39016   0.267   3.088  31.599  0.1336 -0.1336  0.0459
32417W        W39017  11.566   4.325  14.544  0.1443  0.1062 -0.0395
32418W        W39018  21.656   1.982  27.353 -0.0504 -0.0328 -0.1089
32419W        W39019  20.838   1.169   5.463  0.3216  0.0849  0.3705
32420W        W39020  11.716   0.787  30.393  0.2030  0.3414  0.1125
32421W        W39021  21.652   1.521  23.251  0.0989 -0.0152 -0.4671
32422W        W39022   0.533   4.358  24.205 -0.0505  0.1339 -0.0716
32423W        W39023   5.717   6.034  26.495  0.1514 -0.1939  0.1625
32424W        W39024  23.096   4.008  29.754  0.2674 -0.0527 -0.0215
32425W        W39025  10.944   1.947  14.089  0.1054 -0.1825 -0.1876
32426W        W39026  10.770   5.348   7.868 -0.1768 -0.1989 -0.2818
32427W        W39027   0.038   6.204   1.062  0.1106 -0.1673 -0.2783
32428W        W39028  19.687   2.910  28.336 -0.0952  0.1613  0.0576
32429W        W39029   9.130   6.333  23.479  0.1307  0.0192 -0.4078
32430W        W39030  21.522   2.311  28.354  0.1375 -0.1749  0.5437
32431W        W39031   2.909   6.215  31.902  0.1515  0.1703 -0.1456
32432W        W39032   2.289   2.287   9.113 -0.0336  0.2519  0.0409
32433W        W39033  23.334   7.001  26.306 -0.0971 -0.2248 -0.0347
32434W        W39034  22.457   6.940  18.721 -0.1242  0.2979 -0.2847
32435W        W39035  22.093   2.756   0.810  0.0858  0.2869  0.1777
32436W        W39036   9.953   6.056  24.815  0.0783  0.1493 -0.0081
32437W        W39037  18.155   1.992   7.298 -0.0900 -0.0938  0.0277
32438W        W39038  24.683   3.962  17.178  0.0322  0.2165 -0.0717
32439W        W39039   6.625   4.830  31.320  0.1583  0.1954  0.0269
32440W        W39040   5.153   5.698  22.159  0.1643 -0.1787 -0.2202
32441W        W39041  25.023   5.299  20.478  0.0582 -0.0937  0.0528
32442W        W39042   7.482   3.720  15.258 -0.3162  0.1933 -0.0172
32443W        W39043  16.261   6.375  11.007 -0.0884 -0.1505 -0.2156
32444W        W39044  24.237   0.673  15.500 -0.2423  0.1334 -0.1275
32445W        W39045   8.337   0.947   1.958 -0.1107  0.0819  0.1335
32446W        W39046   1.686   4.521   5.271  0.0893 -0.3940 -0.1102
32447W        W39047   7.987   4.647   8.327  0.0416  0.1684 -0.1051
32448W        W39048   2.917   1.378  28.212 -0.1316  0.4110 -0.2638
32449W        W39049  12.889   4.399  14.528  0.0263  0.1305  0.0512
32450W        W39050  17.584   3.828   6.242 -0.0260  0.1211  0.0670
32451W        W39051  18.083   0.901  25.527 -0.1685 -0.0096 -0.1977
32452W        W39052   2.818   7.356  24.831 -0.0441  0.0429 -0.3826
32453W        W39053   4.654   2.408  26.662  0.0175 -0.1211  0.8161
32454W        W39054  14.808   3.474   6.840 -0.0060  0.0443 -0.0089
32455W        W39055   8.107   2.421   1.183 -0.1357 -0.0536  0.1730
32456W        W39056  18.169   1.516   2.012 -0.0368  0.1817  0.2523
32457W        W39057   7.466   2.994   1.648  0.1523  0.2427 -0.1723
32458W        W39058   9.877   3.594  32.460 -0.0726  0.2109  0.3626
32459W        W39059  18.632   0.479  26.271  0.0761  0.0030 -0.1880
32460W        W39060  24.721   4.803  28.516  0.1459  0.1897  0.0162
32461W        W39061   2.731   6.620   0.193  0.1925 -0.0287  0.3699
32462W        W39062  23.058   3.642  18.733 -0.0371 -0.2225  0.0217
32463W        W39063  22.970   6.196   2.012 -0.0041 -0.2843  0.2245
32464W        W39064  23.887   3.178  19.423 -0.0788 -0.2529  0.2185
32465W        W39065   9.945   2.963  13.662  0.1631  0.2861  0.2956
32466W        W39066  21.127   4.855  17.805 -0.4265 -0.2225 -0.2952
32467W        W39067   8.674   4.992   8.818 -0.0062  0.0612  0.0515
32468W        W39068  13.161   0.294   9.557  0.0158 -0.0676  0.3076
32469W        W39069  19.897   7.563  25.279 -0.2161  0.0235  0.1023
32470W        W39070  13.687   4.165  10.020  0.0221  0.1523 -0.0961
32471W        W39071  13.606   0.169  29.210 -0.0099 -0.0524 -0.2159
32472W        W39072  10.978   4.089  10.898 -0.2467 -0.0389  0.0750
32473W        W39073  20.452   0.171   0.974 -0.0808 -0.1266  0.0454
32474W        W39074   8.062   0.028  13.769  0.2145 -0.0095 -0.0656
32475W        W39075   5.693   4.643  26.499 -0.0650  0.0395  0.2080
32476W        W39076  22.594   7.728   6.015  0.0905 -0.3148 -0.0382
32477W        W39077  23.481   6.628  17.259 -0.1038 -0.1455 -0.4161
32478W        W39078  16.953   1.947  17.252  0.1347 -0.0623 -0.1417
32479W        W39079  18.131   4.024   9.416  0.0376 -0.1035  0.1333
32480W        W39080   6.398   4.890   0.240 -0.2335 -0.0428  0.1427
32481W        W39081   9.759   0.221  13.795  0.0104  0.2022  0.0055
32482W        W39082  18.775   6.508   9.100 -0.3072  0.1941 -0.0946
32483W        W39083  21.880   1.319   5.223  0.2341  0.1397 -0.0765
32484W        W39084   1.279   5.636  20.242  0.0609 -0.1192  0.0938
32485W        W39085  11.640   1.559  31.386 -0.0342  0.2703 -0.1349
32486W        W39086  19.304   6.492   7.038 -0.0980 -0.1679  0.1919
32487W        W39087   2.943   6.040  31.439  0.0609  0.2144 -0.1103
32488W        W39088   3.436   1.132   1.311  0.1514  0.2323 -0.3609
32489W        W39089   5.371   3.964  15.216  0.5404  0.0099  0.0232
32490W        W39090   7.665   3.460  12.609 -0.0641  0.1547  0.0347
32491W        W39091   3.675   4.717  31.868  0.0408 -0.0566  0.2255
32492W        W39092  16.279   4.177  11.134 -0.1495 -0.1786  0.0286
32493W        W39093   8.459   0.462  10.853 -0.2418  0.0179 -0.1199
32494W        W39094  15.543   1.537   0.080  0.0113  0.1054  0.1069
32495W        W39095  11.446   6.231  22.558  0.1116 -0.4069 -0.0841
32496W        W39096  17.024   5.143  21.688  0.1133  0.0103  0.0571
32497W        W39097  14.577   6.276   2.321 -0.0040  0.2169 -0.0562
32498W        W39098   7.458   4.831   9.638  0.2453  0.1226  0.0145
32499W        W39099  16.522   5.068   1.550 -0.2878 -0.1968  0.1207
32500W        W39100  20.163   0.422  31.463 -0.0424  0.1032 -0.1757
32501W        W39101   1.471   3.430   3.090 -0.0625 -0.0767 -0.2125
32502W        W39102  19.410   1.031  19.923 -0.1878  0.3172 -0.2321
32503W        W39103  21.043   2.118  17.669 -0.2684  0.3065  0.1040
32504W        W39104   6.079   4.685   8.727 -0.2365 -0.0632  0.2743
32505W        W39105  22.526   6.689  24.071 -0.0675  0.1204  0.0504
32506W        W39106  20.746   1.823  17.206 -0.0888 -0.0758 -0.1468
32507W        W39107  16.610   1.840  25.057 -0.0361  0.0580  0.3390
32508W        W39108  17.120   2.070  25.182  0.0395 -0.0903 -0.3039
32509W        W39109  14.210   0.785  10.838 -0.0966 -0.3907 -0.0800
32510W        W39110   0.430   5.743  32.317  0.1332  0.1938  0.1508
32511W        W39111   6.513   4.916   3.305 -0.2522  0.0782  0.0530
32512W        W39112  17.866   6.741  26.817 -0.1729  0.1826 -0.1023
32513W        W39113  18.682   7.397   8.929 -0.0354 -0.0297 -0.1559
32514W        W39114   9.250   0.092  31.576 -0.1100 -0.2715  0.1213
32515W        W39115  19.518   4.677  30.959  0.1782 -0.3063 -0.0507
32516W        W39116  19.031   2.970   6.924  0.3503  0.1067  0.1892
32517W        W39117  13.466   1.809  13.193  0.3001  0.0542 -0.0212
32518W        W39118  13.066   1.585   6.673  0.0711  0.0711 -0.0520
32519W        W39119   6.684   6.625  12.384 -0.0612 -0.0586  0.0920
32520W        W39120   5.270   4.376  12.388 -0.0926  0.0313  0.0306
32521W        W39121   3.858   6.986  11.988 -0.1049  0.4811 -0.0236
32522W        W39122   1.359   7.714   2.478 -0.2354  0.1068  0.3017
32523W        W39123   9.198   0.000  13.207 -0.0742  0.1796 -0.3976
32524W        W39124  15.019   4.637  10.704 -0.1546 -0.1328  0.1781
32525W        W39125   6.102   3.520  23.679  0.0750 -0.1296  0.0721
32526W        W39126   3.566   5.977  32.485 -0.0370  0.2378  0.0665
32527W        W39127  17.539   0.665  10.079 -0.1020 -0.3014  0.1590
32528W        W39128  22.870   6.432  19.524 -0.2061 -0.0326  0.0519
32529W        W39129  20.315   7.265   5.529  0.0927 -0.0802  0.1909
32530W        W39130  20.037   7.750  29.359 -0.1662 -0.1635  0.3630
32531W        W39131   4.628   2.002   0.452  0.0898  0.0028 -0.4195
32532W        W39132   2.017   2.685   9.245  0.0166 -0.0687 -0.3081
32533W        W39133  11.456   6.696  17.099 -0.2406  0.2145 -0.0046
32534W        W39134   6.756   1.740  11.233 -0.1505  0.2554 -0.0755
32535W        W39135   7.122   1.310   5.129 -0.0224 -0.1270 -0.1780
32536W        W39136   5.874   3.464  12.901 -0.0086  0.0791 -0.0752
32537W        W39137  21.773   0.841   2.985 -0.1586  0.0778  0.0791
32538W        W39138   8.675   6.069  13.231 -0.2304  0.0346  0.2534
32539W        W39139   7.405   0.732  28.059  0.0366  0.2413  0.2353
32540W        W39140   9.589   3.514  28.037 -0.0917  0.1156  0.0782
32541W        W39141   1.624   7.051  24.053  0.1844  0.0943 -0.1567
32542W        W39142   6.093   0.346   2.839  0.0491 -0.2833 -0.2860
32543W        W39143  17.359   4.204   6.639 -0.1204  0.2633  0.1687
32544W        W39144   1.734   7.394  22.382 -0.2522 -0.0200  0.0146
32545W        W39145  20.638   6.190  30.223 -0.2803 -0.2031  0.1299
32546W        W39146   0.441   1.822  29.136  0.2973 -0.0975  0.1752
32547W        W39147   0.804   2.102   8.108 -0.0989  0.0296 -0.3438
32548W        W39148   4.050   4.502  28.616  0.2800 -0.0183 -0.0962
32549W        W39149  19.490   5.095   5.384  0.1191  0.1162  0.0156
32550W        W39150   6.237   0.613   7.015 -0.1957 -0.0533 -0.1010
32551W        W39151  10.329   3.895   6.460 -0.1973  0.0754  0.1919
32552W        W39152  10.386   4.653   6.712  0.1257  0.2773 -0.0533
32553W        W39153   8.636   7.431   3.260  0.0929 -0.3178 -0.2174
32554W        W39154  11.917   0.014   1.599  0.3811 -0.2260 -0.1530
32555W        W39155  20.570   3.226  15.733  0.0190  0.1032  0.2996
32556W        W39156   3.132   0.037  30.894 -0.1125  0.3018 -0.0263
32557W        W39157  17.707   0.280  31.729 -0.1380  0.1716 -0.2790
32558W        W39158   1.859   0.872   6.012  0.3889 -0.0877  0.0654
32559W        W39159  14.514   3.879   5.100  0.0937  0.2534  0.0844
32560W        W39160  22.187   6.249  16.500  0.0973  0.1093 -0.0274
32561W        W39161  13.650   0.416  22.763 -0.1456  0.1670  0.0929
32562W        W39162  23.474   2.693  24.481 -0.0924 -0.0309 -0.2431
32563W        W39163   6.184   5.333  32.466  0.0153 -0.2828 -0.0795
32564W        W39164   6.576   2.455  22.561  0.2058 -0.0480 -0.1015
32565W        W39165  10.724   3.568   8.323  0.0946  0.0966 -0.2585
32566W        W39166  19.208   7.407   0.544  0.0684  0.1172  0.2729
32567W        W39167   2.561   4.733  25.511  0.0928 -0.2558  0.0272
32568W        W39168   2.223   5.824  20.244  0.2819  0.1441 -0.1179
32569W        W39169   9.271   2.130  23.265  0.0003  0.0627 -0.1175
32570W        W39170   4.637   7.391   5.361 -0.1817 -0.0390  0.2572
32571W        W39171  22.718   5.418  27.410  0.2207  0.0406 -0.1377
32572W        W39172   7.254   4.799  17.308  0.0269  0.0853  0.2150
32573W        W39173  11.141   1.880  29.146 -0.1483  0.0498  0.1494
32574W        W39174   2.509   4.576  10.267 -0.0958 -0.1966  0.0367
32575W        W39175  20.578   0.089  14.295 -0.0540 -0.0314 -0.3467
32576W        W39176  21.239   3.089   1.151  0.2592  0.2185  0.0921
32577W        W39177  22.673   2.954   4.253 -0.3992 -0.1140  0.0481
32578W        W39178  11.520   6.111  32.140 -0.1320 -0.2249  0.1568
32579W        W39179  23.314   2.634  30.760  0.1549 -0.2726 -0.2211
32580W        W39180  15.456   4.849  12.389  0.1690  0.0113 -0.0366
32581W        W39181   0.132   7.338  18.779  0.0767  0.2916  0.1018
32582W        W39182   6.023   3.184  15.274 -0.0085  0.1216 -0.2183
32583W        W39183  17.492   7.364  22.574  0.2274  0.1675 -0.2133
32584W        W39184   3.693   1.728  26.499 -0.1800 -0.0078 -0.3350
32585W        W39185   8.425   1.460  31.623 -0.0438  0.2071  0.0205
32586W        W39186  16.462   0.773   7.682  0.0453  0.1010 -0.0362
32587W        W39187  12.129   4.955   8.122 -0.0012  0.1117  0.3414
32588W        W39188  18.174   2.231  19.095 -0.1410 -0.1417  0.1154
32589W        W39189   4.921   5.671  31.407  0.0081 -0.3709 -0.0192
32590W        W39190   9.411   0.331  11.341  0.0892 -0.0203  0.1227
32591W        W39191  10.388   1.068  13.799  0.1591  0.0136  0.0795
32592W        W39192  10.382   0.212  31.886  0.1369 -0.0473  0.1075
32593W        W39193  10.462   3.648   3.744 -0.0515  0.1037 -0.0955
32594W        W39194   4.092   5.740   5.541  0.4642 -0.4117 -0.0445
32595W        W39195   9.456   5.510  10.775 -0.0913  0.1247 -0.1315
32596W        W39196  12.899   0.386   1.479 -0.1546  0.1674  0.2453
32597W        W39197   4.679   5.170   1.600  0.5966  0.1033 -0.2008
32598W        W39198  12.561   4.494   8.214 -0.1509 -0.0958 -0.1270
32599W        W39199  14.792   6.734  29.230 -0.1445  0.0773  0.0828
32600W        W39200  19.076   2.036  26.848  0.0625 -0.3353 -0.0391
32601W        W39201   4.955   4.658   3.776  0.0751  0.2579 -0.0074
32602W        W39202  11.998   0.891  23.559  0.3029 -0.0760  0.0562
32603W        W39203  22.534   2.288   6.338  0.0463  0.1532  0.2218
32604W        W39204  20.866   6.272   3.238  0.0396 -0.4966 -0.0583
32605W        W39205  19.763   1.876   4.569 -0.0036 -0.2097 -0.3167
32606W        W39206  17.371   3.868   4.204 -0.0506 -0.0148 -0.0820
32607W        W39207   5.305   7.448   8.932  0.0688 -0.1908  0.1722
32608W        W39208  22.803   6.579   4.623  0.0819 -0.1163  0.0091
32609W        W39209  16.431   2.090  23.501  0.0338  0.0902 -0.0402
32610W        W39210   1.676   4.351  26.707  0.1076 -0.0750  0.0430
32611W        W39211   7.410   1.203   3.194  0.2921 -0.1128  0.0881
32612W        W39212   4.146   6.424  11.078 -0.1109  0.1667  0.0254
32613W        W39213   6.725   4.738  29.867 -0.0845  0.0104 -0.1322
32614W        W39214  10.878   2.039  10.290  0.1215  0.2022  0.2562
32615W        W39215  11.523   3.010  28.122 -0.2738  0.2243  0.0780
32616W        W39216  19.811   3.915  20.558  0.3000 -0.2001  0.1319
32617W        W39217   5.922   1.738   9.275 -0.0219  0.0484 -0.2710
32618W        W39218  17.466   5.412  19.677 -0.1362 -0.0123 -0.2583
32619W        W39219  19.340   5.059  31.764 -0.0887  0.2682 -0.0657
32620W        W39220  11.134   7.008  30.950  0.1125 -0.1528 -0.0089
32621W        W39221  20.382   4.186  19.071  0.2878  0.0459  0.0208
32622W        W39222  22.007   4.465  26.011 -0.0249  0.1359 -0.1734
32623W        W39223  18.218   7.678   7.184 -0.0670 -0.0375 -0.3154
32624W        W39224   0.263   3.476  24.341 -0.1468 -0.1529 -0.2687
32625W        W39225  19.524   2.286  19.539 -0.2585 -0.1602 -0.0084
32626W        W39226  10.246   6.131  27.685  0.0545  0.1328 -0.1359
32627W        W39227  12.877   1.384   9.412 -0.1885  0.0606  0.0453
32628W        W39228  10.702   1.395  25.585  0.1504 -0.2149  0.1382
32629W        W39229   9.010   6.068  15.699 -0.1481  0.0293  0.0387
32630W        W39230  14.996   0.083  23.530 -0.1949  0.1080 -0.0617
32631W        W39231  15.735   0.290   0.263  0.1659 -0.2553  0.2423
32632W        W39232  12.130   4.536  11.907 -0.2064  0.0085 -0.4842
32633W        W39233  10.663   6.781  27.506 -0.1222  0.2259  0.2211
32634W        W39234  18.350   2.933   6.085  0.3787 -0.3486  0.0180
32635W        W39235   0.119   3.003  31.150  0.2368 -0.0033  0.3191
32636W        W39236  19.840   3.047  20.347 -0.2481 -0.0168 -0.0813
32637W        W39237  12.571   0.748   8.173  0.1809  0.0302  0.0768
32638W        W39238  13.745   0.776  27.948  0.1709  0.0045 -0.1639
32639W        W39239  11.903   7.088   8.836  0.1689 -0.1596  0.0606
32640W        W39240  10.800   0.247  18.101 -0.0209  0.0900  0.0480
32641W        W39241   9.302   1.580  31.848  0.1643  0.0944 -0.0633
32642W        W39242  12.945   6.169   3.196 -0.0649  0.0880 -0.1037
32643W        W39243   8.668   7.372  12.514 -0.0583  0.0843  0.2323
32644W        W39244  10.883   3.118   5.705 -0.2141 -0.0610 -0.3672
32645W        W39245   4.334   2.319  31.861  0.0882 -0.0856 -0.0328
32646W        W39246  17.925   1.418  28.807  0.1085 -0.0612 -0.0539
32647W        W39247  22.699   1.820   9.016 -0.0800  0.0678  0.2388
32648W        W39248  24.987   4.453  31.466 -0.0369  0.0270  0.2457
32649W        W39249  18.332   5.306   2.216 -0.1253 -0.2691  0.1543
32650W        W39250   9.154   4.926  31.503  0.1372 -0.1885  0.0820
32651W        W39251  13.029   6.055   5.019 -0.3903  0.4541  0.1062
32652W        W39252  15.388   4.308  30.747 -0.0015 -0.1471  0.1530
32653W        W39253   5.521   0.518  10.854  0.0179  0.3406  0.0111
32654W        W39254  11.415   3.626  29.259  0.2447 -0.3232 -0.1540
32655W        W39255  22.750   3.702  29.880  0.0953  0.1980 -0.1969
32656W        W39256  19.040   6.295  24.166  0.1471  0.0070  0.1935
32657W        W39257  19.400   2.477   6.888 -0.4289 -0.1509 -0.1853
32658W        W39258  13.170   6.307  29.128  0.0925  0.1932 -0.0554
32659W        W39259  20.087   3.134   3.434 -0.0625 -0.0457  0.0294
32660W        W39260   5.321   4.318   5.563  0.0669 -0.2520 -0.0637
32661W        W39261  22.179   1.122  25.654  0.2388 -0.3331  0.1105
32662W        W39262   0.733   0.835  19.511  0.4531  0.0748 -0.2881
32663W        W39263   9.752   0.376   4.408 -0.1229  0.2565  0.0655
32664W        W39264  21.092   6.016  29.025  0.2587  0.1302 -0.1880
32665W        W39265   5.384   2.645  29.829  0.2046  0.2847 -0.0241
32666W        W39266  13.016   4.122   8.822  0.1001  0.2460  0.1490
32667W        W39267  20.612   7.065   6.304  0.1609 -0.0661  0.3249
32668W        W39268  17.078   3.281  10.055  0.4583 -0.1133  0.0148
32669W        W39269   3.611   1.321  11.184  0.0021 -0.0421  0.0731
32670W        W39270  23.864   2.959  31.355 -0.2069  0.2076  0.2921
32671W        W39271   8.047   1.699   8.675 -0.0322  0.0536 -0.0588
32672W        W39272  19.029   5.951  19.345 -0.2228  0.1235 -0.1395
32673W        W39273  20.346   3.189  28.725 -0.1400  0.0721  0.2280
32674W        W39274  19.500   0.788  22.239  0.2809 -0.0233  0.1057
32675W        W39275  18.099   3.441  10.284  0.4302  0.0969  0.0402
32676W        W39276   2.205   1.539   7.229 -0.0625 -0.0468 -0.0205
32677W        W39277  22.911   4.124   6.996 -0.2080 -0.2058  0.1092
32678W        W39278  13.050   0.551   6.527 -0.0659  0.1878 -0.0159
32679W        W39279  10.000   1.511  28.417  0.1558 -0.1348  0.0622
32680W        W39280  23.711   5.495   0.203 -0.2243  0.0894 -0.2058
32681W        W39281   0.767   1.276  26.856 -0.1380  0.2496  0.0405
32682W        W39282  22.269   7.504  28.758 -0.0849  0.3273 -0.1552
32683W        W39283   1.254   4.870   3.361  0.1630  0.1040 -0.1526
32684W        W39284  24.950   3.430  28.911  0.2286  0.2558 -0.4950
32685W        W39285  23.405   5.407  26.886  0.0319  0.0936 -0.0065
32686W        W39286  11.122   3.817  11.654  0.5624  0.0677 -0.1123
32687W        W39287  18.845   4.594  17.637  0.1664  0.0026  0.0007
32688W        W39288  24.402   1.965  15.220  0.1702  0.1948 -0.0164
32689W        W39289   3.505   0.435   4.500 -0.0440  0.0319 -0.0631
32690W        W39290  24.645   1.566  30.874 -0.0984  0.2201  0.1306
32691W        W39291  10.556   0.160   6.170 -0.0997  0.4069  0.2076
32692W        W39292   2.437   3.979   2.969 -0.0339  0.1463  0.2056
32693W        W39293  21.498   1.650  27.829 -0.1067 -0.1138 -0.1745
32694W        W39294  12.757   0.904   2.240  0.0487  0.1731  0.0667
32695W        W39295  22.860   1.937  20.332  0.2418 -0.1049 -0.0365
32696W        W39296  24.178   5.507  20.332 -0.1805 -0.1768 -0.1830
32697W        W39297   0.979   3.435   9.903 -0.0631 -0.0408  0.2437
32698W        W39298   2.954   3.534  30.975  0.0563  0.3647 -0.0835
32699W        W39299   2.993   0.263   4.566 -0.1532 -0.5813 -0.0157
32700W        W39300  10.036   1.516  11.031 -0.2399 -0.1811 -0.3752
32701W        W39301   8.378   2.535  31.960  0.0168  0.1018 -0.0827
32702W        W39302   0.605   1.448   9.265 -0.2493  0.0042 -0.1971
32703W        W39303  12.517   0.254  15.119  0.1087  0.0532  0.1735
32704W        W39304   7.435   3.774  27.613 -0.0307  0.0381 -0.1481
32705W        W39305  23.544   7.141   5.477 -0.1230 -0.0182 -0.0852
32706W        W39306  20.073   4.329   9.637 -0.1881  0.1365  0.0844
32707W        W39307  13.384   7.455   0.531 -0.0590  0.1954  0.0375
32708W        W39308  18.314   0.527  23.678 -0.2269 -0.0619 -0.2013
32709W        W39309  19.171   4.041  27.931 -0.2342  0.1328  0.0292
32710W        W39310  12.788   7.503  10.652 -0.5293 -0.2218  0.0383
32711W        W39311  10.440   0.867  31.828  0.0409 -0.3433 -0.2718
32712W        W39312  15.547   2.288   5.490 -0.0801 -0.0415 -0.3183
32713W        W39313  23.487   2.652   1.061 -0.1204  0.1365  0.1451
32714W        W39314   8.304   2.854   6.169 -0.0878  0.4378  0.0307
32715W        W39315   8.919   0.262   4.845  0.2905  0.0571 -0.1788
32716W        W39316  16.755   3.032  21.854  0.5675 -0.0938  0.1339
32717W        W39317  13.818   0.116  31.502  0.2073  0.4450 -0.2059
32718W        W39318   3.305   2.258   9.129  0.1718  0.0308  0.0858
32719W        W39319  12.224   5.873  28.361  0.1039 -0.2847  0.3429
32720W        W39320  21.862   6.367   6.760  0.0511 -0.1558 -0.2623
32721W        W39321  11.467   2.882   8.190 -0.1984 -0.1123  0.1590
32722W        W39322  21.671   6.768  29.045  0.0877  0.0148  0.0737
32723W        W39323  18.271   1.592  30.762 -0.3452 -0.0281 -0.1095
32724W        W39324   2.659   0.494  22.399  0.0208  0.2816 -0.1323
32725W        W39325  12.846   3.955  25.771 -0.1498 -0.0333  0.0113
32726W        W39326   1.682   4.904   1.286 -0.0663 -0.0753 -0.0921
32727W        W39327  19.330   3.827  10.167  0.3061  0.0548 -0.2340
32728W        W39328   4.087   5.394   8.297  0.0556 -0.3877  0.1355
32729W        W39329  17.918   0.959  22.348 -0.1051 -0.3624 -0.3077
32730W        W39330   4.153   6.201  14.452  0.1465  0.0112  0.1741
32731W        W39331   1.221   0.725   4.670 -0.0080 -0.1052  0.0751
32732W        W39332   3.471   5.212   5.781  0.0869 -0.0341 -0.1568
32733W        W39333  14.532   7.816  30.889 -0.1424  0.0271  0.0364
32734W        W39334  22.493   3.949   6.773  0.2033  0.2418  0.2778
32735W        W39335   8.956   0.529  19.075 -0.1199 -0.0213  0.1475
32736W        W39336   1.737   6.257   4.329 -0.2809 -0.1497 -0.0229
32737W        W39337  22.885   7.585  29.378 -0.3030 -0.1499  0.1158
32738W        W39338   8.385   3.844  22.922 -0.2810  0.0309  0.2672
32739W        W39339  12.282   0.427  23.526 -0.2178 -0.0151 -0.0360
32740W        W39340   9.820   6.376  11.736  0.0853  0.3420  0.2649
32741W        W39341   0.388   7.079  30.307  0.0249  0.1646 -0.1067
32742W        W39342  23.318   2.381  23.408 -0.0020  0.0212  0.2824
32743W        W39343   6.923   1.838   3.374  0.2310 -0.0130  0.1473
32744W        W39344   7.916   1.655  30.418 -0.0511 -0.1183  0.1904
32745W        W39345  19.473   0.366  21.794 -0.1244 -0.2041 -0.1456
32746W        W39346  14.928   0.803   3.675  0.0450 -0.2963  0.0399
32747W        W39347   5.741   1.595   4.027 -0.1576 -0.2656 -0.0506
32748W        W39348  14.933   5.546  26.364  0.2655  0.1554  0.1653
32749W        W39349  14.336   3.727   3.770  0.2052  0.0567  0.2708
32750W        W39350  24.936   0.132   8.951  0.1081  0.1028  0.3348
32751W        W39351   2.097   4.431  11.478 -0.1458 -0.2113  0.1588
32752W        W39352  15.530   2.833  24.176 -0.4044 -0.1681  0.3799
32753W        W39353   4.309   6.326   6.730  0.1654  0.0429  0.1482
32754W        W39354  19.707   6.636   8.760  0.1785  0.2375 -0.4806
32755W        W39355  11.703   1.832   2.304 -0.4208  0.1913 -0.3573
32756W        W39356  11.714   1.370   9.120 -0.0233 -0.3229  0.2734
32757W        W39357  17.603   7.584   4.552 -0.4324  0.0574  0.2203
32758W        W39358  14.722   2.790  32.560 -0.0976 -0.1057  0.1091
32759W        W39359  25.019   5.045  10.942 -0.2832 -0.0669 -0.1158
32760W        W39360   6.097   3.738  12.597  0.0088  0.2333  0.2399
32761W        W39361  19.510   2.416   1.711 -0.0423  0.1949  0.0406
32762W        W39362   6.603   7.246   7.908  0.0614  0.3266 -0.1489
32763W        W39363  19.103   0.557  24.088  0.3294  0.1450 -0.3267
32764W        W39364   0.659   6.094   0.194  0.2488  0.0096  0.2915
32765W        W39365   2.884   7.312   4.099 -0.2493 -0.0395  0.0573
32766W        W39366  23.510   6.038   0.089 -0.1088 -0.0269 -0.1075
32767W        W39367  14.105   4.904   8.284  0.0428  0.1379 -0.4139
32768W        W39368  14.476   1.778  13.112  0.1071 -0.1206 -0.2417
32769W        W39369   5.248   4.614   8.583 -0.2537  0.0206  0.1369
32770W        W39370  12.934   3.393  22.386  0.0885 -0.0326 -0.1129
32771W        W39371   6.767   6.736  24.498 -0.2299  0.0758 -0.2711
32772W        W39372   6.173   3.869   4.746  0.0221 -0.2211  0.0379
32773W        W39373  16.136   6.489  28.166  0.4042 -0.0465 -0.1924
32774W        W39374  21.247   5.207  25.601  0.0380 -0.0020 -0.3591
32775W        W39375  19.224   6.975  25.799  0.2101 -0.0755 -0.0490
32776W        W39376  10.383   6.898  13.272  0.0550  0.2295  0.2589
32777W        W39377   4.970   3.861   7.458 -0.0746 -0.0103 -0.3127
32778W        W39378   4.139   6.661  31.905 -0.1116  0.0689 -0.0092
32779W        W39379  13.611   7.200  13.636  0.0320 -0.0180 -0.0032
32780W        W39380  22.902   1.025  26.322  0.2323  0.3079  0.2327
32781W        W39381   0.701   4.292  21.197 -0.1509 -0.0878  0.2379
32782W        W39382   5.061   0.170  30.876  0.0192 -0.1272 -0.1065
32783W        W39383  22.526   2.489  20.905 -0.1758 -0.0068 -0.0182
32784W        W39384  22.679   1.264  29.399  0.0126  0.0353  0.1011
32785W        W39385  13.899   2.729  22.008  0.2374 -0.1765 -0.0572
32786W        W39386  18.856   2.338   0.594 -0.2515 -0.1107  0.0682
32787W        W39387  14.567   6.059   1.534  0.0516 -0.2642  0.1289
32788W        W39388  16.420   7.523  11.686  0.0070 -0.0596 -0.0326
32789W        W39389  18.941   1.722   3.544  0.2205 -0.3227 -0.0352
32790W        W39390  20.756   2.448  18.139 -0.3046  0.3522  0.1406
32791W        W39391   8.390   3.781  12.056  0.3350 -0.0406  0.1438
32792W        W39392   6.834   0.859  11.587  0.3292  0.2632  0.0512
32793W        W39393  15.845   0.542  32.050 -0.0674  0.3715  0.1729
32794W        W39394  11.103   6.845   4.864  0.0139  0.2217  0.3461
32795W        W39395  21.192   5.331   6.913 -0.0340  0.2239 -0.2554
32796W        W39396  19.751   3.998  16.627 -0.0076  0.0933  0.3783
32797W        W39397  16.521   3.948   1.028  0.1138  0.1750  0.1547
32798W        W39398   8.151   0.443  11.590  0.2212  0.1902  0.0894
32799W        W39399  12.355   3.061   5.769  0.0773  0.2126  0.3416
32800W        W39400   6.063   3.804   4.274 -0.0701 -0.0039  0.0550
32801W        W39401  20.000   6.581  29.236 -0.1714 -0.0569  0.0940
32802W        W39402  14.026   2.102  29.556 -0.0330 -0.0710  0.0488
32803W        W39403  15.333   2.661   4.230 -0.0546 -0.2507 -0.3423
32804W        W39404  20.667   4.734   5.816  0.6151 -0.0870  0.0557
32805W        W39405  13.799   2.091   5.751  0.0629 -0.0828 -0.1187
32806W        W39406  24.303   6.395   2.662 -0.0943 -0.0414 -0.2660
32807W        W39407   8.626   3.499  14.960 -0.3242 -0.1172  0.0763
32808W        W39408   1.099   4.295   7.608  0.1993  0.1500  0.2324
32809W        W39409   3.883   2.353  30.016  0.0234  0.1809 -0.2196
32810W        W39410   8.852   7.401   9.024  0.1023  0.2717 -0.2911
32811W        W39411   0.924   4.501  26.254  0.0394  0.2122 -0.1009
32812W        W39412  11.314   6.556  10.206 -0.2156  0.0756 -0.1588
32813W        W39413  23.083   2.477   5.820 -0.2202 -0.3406 -0.0869
32814W        W39414   3.246   0.791   5.718 -0.0355  0.0736  0.0810
32815W        W39415  10.336   0.603   1.360 -0.2185 -0.1808 -0.0087
32816W        W39416  17.312   2.888   9.842 -0.0285  0.1092  0.0669
32817W        W39417  14.322   1.124  27.085 -0.0327 -0.0834 -0.1079
32818W        W39418  21.052   5.109   0.965  0.0554  0.1853  0.1969
32819W        W39419  20.479   6.393  16.787 -0.0079 -0.3650 -0.0271
32820W        W39420   5.131   5.355  30.251 -0.1356  0.2380  0.1268
32821W        W39421   4.560   1.683   8.851 -0.0501 -0.1667  0.2711
32822W        W39422  17.542   6.707   0.754  0.2591  0.1108  0.1420
32823W        W39423  16.344   0.092  12.596 -0.3472  0.0059 -0.0101
32824W        W39424   9.216   5.822   9.550  0.0167 -0.3625 -0.0318
32825W        W39425  19.974   0.824   9.070  0.0753  0.0301  0.0265
32826W        W39426  19.001   0.356   6.545  0.1087 -0.0361  0.1576
32827W        W39427  23.788   3.180   0.480  0.0737  0.0507 -0.0704
32828W        W39428   2.802   0.484  27.373  0.1396 -0.0807  0.4073
32829W        W39429   3.102   1.834  28.197 -0.1378  0.1618 -0.1512
32830W        W39430  18.953   5.590  16.364 -0.3242  0.0466  0.0916
32831W        W39431  16.525   1.181  10.089 -0.1266  0.1480 -0.4218
32832W        W39432  12.738   3.884  22.331 -0.0683 -0.0152 -0.0269
32833W        W39433   6.500   5.666   4.925  0.0832 -0.0581  0.2017
32834W        W39434   4.913   1.166  31.490 -0.2954  0.3396 -0.2303
32835W        W39435  15.675   0.668  21.972  0.2164 -0.0174  0.0999
32836W        W39436  11.253   3.958   1.296  0.0060  0.0444  0.3026
32837W        W39437  23.252   2.489  24.871 -0.0921  0.1370 -0.1052
32838W        W39438  15.575   3.472   1.070 -0.1461  0.1244 -0.1363
32839W        W39439   2.899   3.245   0.124 -0.0601  0.2784  0.1295
32840W        W39440  19.349   0.718   0.330  0.0343  0.3283  0.3192
32841W        W39441   4.361   4.601  25.454 -0.1803 -0.0323  0.0439
32842W        W39442   0.627   4.672   2.198 -0.0868  0.2684 -0.1507
32843W        W39443  18.256   5.848  23.266 -0.0512  0.0385  0.0598
32844W        W39444   3.728   2.928  12.318 -0.0320  0.3192 -0.3707
32845W        W39445   4.402   3.727  10.121 -0.2863  0.1408 -0.3234
32846W        W39446  10.055   7.306  16.935 -0.0195 -0.0098 -0.1363
32847W        W39447   0.405   5.604  22.983 -0.1017 -0.2051 -0.2467
32848W        W39448  11.071   3.284  31.136 -0.3389  0.0427  0.2972
32849W        W39449   0.701   1.841  27.450  0.0438 -0.2105 -0.0373
32850W        W39450  12.027   4.348  32.250  0.0882 -0.1961  0.0776
32851W        W39451   8.262   3.016   8.340  0.2274  0.1183  0.3139
32852W        W39452  10.878   0.982   2.787  0.0451 -0.0205 -0.0849
32853W        W39453  22.840   4.420   5.262  0.5240 -0.3578  0.0958
32854W        W39454  14.830   7.043  13.186  0.1199 -0.1482 -0.0782
32855W        W39455  20.976   0.143  19.145 -0.0088 -0.0441  0.0513
32856W        W39456   8.326   3.896   0.677 -0.0371  0.0939  0.2579
32857W        W39457  18.994   2.350  26.087 -0.1867  0.0951 -0.3392
32858W        W39458  15.006   7.060  27.001  0.0901 -0.0776  0.0282
32859W        W39459  24.043   7.643  24.486 -0.1564 -0.2706 -0.2115
32860W        W39460   2.210   6.033   4.512 -0.0450 -0.1189 -0.1491
32861W        W39461  12.407   3.824   9.441  0.4254 -0.1051  0.1658
32862W        W39462   6.094   2.809   2.182 -0.1026  0.1711 -0.2194
32863W        W39463  16.745   4.347  26.397 -0.1197 -0.1350  0.4783
32864W        W39464  13.467   3.911  26.559  0.1419 -0.0902 -0.1531
32865W        W39465   7.423   1.181  12.720 -0.0301 -0.0358  0.1475
32866W        W39466  24.846   5.199  28.113  0.0082  0.0641 -0.0546
32867W        W39467  18.851   6.310  24.979 -0.0417 -0.1317  0.0984
32868W        W39468  18.131   6.583   3.427 -0.2352 -0.0969  0.2462
32869W        W39469   8.819   1.540   3.177 -0.0311  0.1253 -0.1265
32870W        W39470  20.610   3.877   3.755  0.1057  0.0038 -0.0768
32871W        W39471  11.988   1.322  14.778 -0.3554 -0.1789 -0.1526
32872W        W39472  22.342   2.701   9.193 -0.0927 -0.0976  0.1734
32873W        W39473  11.425   0.031  29.422 -0.0790  0.3332 -0.0352
32874W        W39474   4.683   7.168  23.532 -0.0918  0.5600 -0.0306
32875W        W39475  15.109   6.277   3.819 -0.0214 -0.2683  0.1633
32876W        W39476   1.340   3.920  27.380  0.1324  0.0061 -0.1234
32877W        W39477   5.074   7.297   3.479 -0.1981 -0.0517 -0.0043
32878W        W39478  20.848   7.520   2.734  0.2012 -0.0250 -0.1211
32879W        W39479  25.009   0.373   3.243 -0.0870  0.1113 -0.0512
32880W        W39480  24.509   0.984  19.503 -0.2252  0.1823 -0.0411
32881W        W39481  18.913   2.435   9.794 -0.4789 -0.0971  0.0879
32882W        W39482  17.174   1.741   5.071 -0.2404 -0.2647  0.0973
32883W        W39483   3.027   0.424  22.870  0.1973  0.2295 -0.1728
32884W        W39484  11.849   1.763  14.978  0.0796 -0.0561 -0.2384
32885W        W39485  12.768   6.175  11.009 -0.0731 -0.1057 -0.0353
32886W        W39486   9.497   3.776  32.188 -0.1025 -0.2199  0.4824
32887W        W39487   2.756   0.566   6.883 -0.1218  0.1924 -0.2569
32888W        W39488   8.771   7.225   5.618 -0.3741  0.1529 -0.0213
32889W        W39489   8.952   3.606  13.219 -0.0126 -0.1939 -0.0146
32890W        W39490   5.463   4.186   2.249 -0.1228  0.0610  0.0976
32891W        W39491   4.721   4.150  21.487  0.2547 -0.3827  0.0554
32892W        W39492  21.712   0.753   3.688 -0.1025  0.2025 -0.1904
32893W        W39493  13.205   6.215  29.878  0.2081 -0.0002 -0.1534
32894W        W39494   9.225   0.606  13.204  0.0690  0.5412 -0.1518
32895W        W39495  22.932   2.518  21.251  0.0443 -0.1021  0.4750
32896W        W39496   9.488   2.043   4.618  0.1867 -0.1009  0.1492
32897W        W39497   0.487   2.579  26.576 -0.0476 -0.1502 -0.0672
32898W        W39498  23.833   5.050  17.488 -0.4754  0.0821  0.1768
32899W        W39499  17.927   5.275   3.235  0.0051 -0.0844 -0.0065
32900W        W39500   4.813   4.348  22.207 -0.1294 -0.0345 -0.3540
32901W        W39501   1.758   5.123  27.326  0.1917  0.0065  0.4463
32902W        W39502   3.228   0.238  31.345 -0.0162  0.0475 -0.0004
32903W        W39503  24.417   3.495   8.690  0.1135  0.0767  0.0877
32904W        W39504  11.716   5.244   7.092  0.0108  0.1207 -0.1812
32905W        W39505  19.320   1.908   6.748 -0.1311 -0.1330  0.3363
32906W        W39506   3.305   4.258   4.125  0.0422  0.1223 -0.3892
32907W        W39507  23.054   5.373  20.360 -0.1578 -0.0942 -0.0155
32908W        W39508  20.867   1.387   5.902 -0.0577  0.0742 -0.3452
32909W        W39509  12.666   7.349   4.109 -0.0228  0.0380 -0.0841
32910W        W39510  11.549   5.714   4.487  0.0310 -0.1849  0.1817
32911W        W39511   1.796   4.518  32.515 -0.1755 -0.0841 -0.1468
32912W        W39512  15.853   4.758  31.491 -0.0899 -0.3165 -0.0814
32913W        W39513  11.464   3.029  22.700  0.0171 -0.0516  0.0628
32914W        W39514  23.871   0.671  15.833  0.2942 -0.2492 -0.1546
32915W        W39515  18.741   7.533  23.766 -0.1269 -0.4897 -0.2578
32916W        W39516  24.240   1.433   6.996 -0.3685  0.1459  0.1708
32917W        W39517  20.227   7.151  30.367  0.0508 -0.1483  0.1736
32918W        W39518   4.890   0.149  11.311  0.0308  0.3070 -0.0012
32919W        W39519  24.072   0.773  20.262 -0.0695 -0.0015 -0.1264
32920W        W39520  23.042   6.048  16.846  0.1719 -0.0684 -0.1242
32921W        W39521  12.184   4.366  22.908  0.0816 -0.0566  0.0133
32922W        W39522   4.394   6.125   4.599  0.1055 -0.1072  0.0106
32923W        W39523  19.575   0.728  24.257  0.1749  0.1276 -0.1795
32924W        W39524  12.400   6.119   3.354  0.1170 -0.2513  0.0287
32925W        W39525  24.011   2.489  22.778  0.2705  0.1144 -0.1219
32926W        W39526   5.037   0.368  15.913 -0.1582  0.0357 -0.0999
32927W        W39527  13.367   4.887  29.854 -0.2909 -0.2015 -0.0788
32928W        W39528  23.321   2.455  28.955  0.1930 -0.3754 -0.0423
32929W        W39529  15.556   2.010  27.991 -0.0365  0.0491  0.1196
32930W        W39530  17.308   0.828   1.967 -0.0517 -0.1081 -0.0730
32931W        W39531  22.191   5.419  30.247 -0.2256 -0.1483 -0.0695
32932W        W39532  13.861   2.952  30.036 -0.0323 -0.2740  0.0016
32933W        W39533   8.853   1.406   7.096  0.0370  0.0952  0.4234
32934W        W39534   5.087   2.640  30.251  0.0789  0.0459 -0.0810
32935W        W39535  19.508   5.909  18.400 -0.3265  0.0091  0.0268
32936W        W39536  22.604   6.041  19.759 -0.0276  0.0846 -0.5421
32937W        W39537   0.887   0.884   7.544  0.1134  0.0094 -0.0540
32938W        W39538  21.005   0.261  32.577 -0.0499  0.4317  0.0504
32939W        W39539  12.673   1.601  25.902 -0.0242  0.1536  0.0639
32940W        W39540  23.509   3.192   3.233  0.1443  0.1340  0.1570
32941W        W39541   4.527   7.166  25.628  0.0856  0.2621  0.1894
32942W        W39542  20.525   0.650  26.004  0.1391 -0.1409 -0.0830
32943W        W39543  13.510   1.211   6.495 -0.0137 -0.1365  0.0253
32944W        W39544  16.394   2.577  10.369 -0.1093 -0.0807 -0.3322
32945W        W39545   7.543   3.603   8.485 -0.1992  0.0667 -0.0196
32946W        W39546   4.418   2.733   5.353 -0.1776 -0.1852 -0.1070
32947W        W39547  18.492   6.404  10.896 -0.0095 -0.3246  0.0095
32948W        W39548   5.780   6.458  17.086  0.1380 -0.1551 -0.0388
32949W        W39549   1.716   0.455  21.583 -0.1693 -0.2993  0.1655
32950W        W39550  23.390   5.671  28.208 -0.3637  0.0453 -0.2726
32951W        W39551   9.116   7.366   7.994 -0.0052  0.0698 -0.3456
32952W        W39552   9.049   3.548  23.704 -0.0177  0.1218  0.3504
32953W        W39553  12.338   7.383  11.478  0.1770  0.0229 -0.1669
32954W        W39554  12.953   1.449   1.298  0.1273 -0.0773  0.3052
32955W        W39555   5.775   3.124   7.726  0.3209  0.2502 -0.2472
32956W        W39556  15.664   2.336   1.748  0.3501  0.2272 -0.0058
32957W        W39557  18.194   5.454   3.657 -0.1535 -0.1017  0.0021
32958W        W39558  18.747   0.517  20.256  0.1061  0.1583 -0.4221
32959W        W39559  17.583   2.622  28.247 -0.0559 -0.1376 -0.3258
32960W        W39560   3.390   2.280  22.218  0.1309 -0.0472  0.0832
32961W        W39561   9.280   3.833  10.124 -0.0323  0.0221 -0.0818
32962W        W39562   5.158   4.012  13.357  0.1174  0.2976  0.0281
32963W        W39563   5.469   1.168  11.687  0.1202  0.3114 -0.0883
32964W        W39564   0.485   6.110   4.409 -0.0102 -0.0783  0.1468
32965W        W39565  14.812   5.708   0.528 -0.0231  0.2725  0.1994
32966W        W39566   1.290   6.935  30.401 -0.2523  0.2336 -0.1925
32967W        W39567   0.916   7.334   0.485 -0.3882  0.0446 -0.0267
32968W        W39568  18.749   6.119  26.485  0.0455 -0.2349 -0.1074
32969W        W39569  10.522   1.485  24.496  0.0470 -0.1655  0.3874
32970W        W39570  20.425   5.843   6.861 -0.1549  0.1407 -0.0066
32971W        W39571   8.196   0.304  25.402 -0.0080 -0.0534  0.2052
32972W        W39572   4.484   7.331  30.355 -0.0740  0.1277 -0.1936
32973W        W39573   9.750   3.185   6.441  0.1482  0.0107  0.0983
32974W        W39574  17.517   7.463  31.492  0.2781 -0.0104 -0.3041
32975W        W39575  13.522   7.801  31.908  0.1222 -0.0780  0.2449
32976W        W39576  11.322   3.933  12.064 -0.2324  0.0323  0.1812
32977W        W39577  24.394   3.710  20.735  0.1314 -0.0414  0.0002
32978W        W39578  18.851   7.802  28.470 -0.1101 -0.0286 -0.1755
32979W        W39579  15.188   3.470   6.168  0.1465 -0.2360  0.2490
32980W        W39580   1.419   1.535   8.284 -0.2245 -0.1177 -0.0705
32981W        W39581   3.199   5.703   3.924 -0.0793  0.0299  0.0934
32982W        W39582  23.238   0.453  18.812 -0.2452 -0.1431  0.3199
32983W        W39583  18.747   7.686   8.451  0.0825 -0.0012 -0.1024
32984W        W39584  10.595   5.253  31.683 -0.1775  0.0040  0.1350
32985W        W39585  17.001   1.366  18.073 -0.0029  0.2682  0.2532
32986W        W39586   4.938   0.006  28.731 -0.1945 -0.0148 -0.1647
32987W        W39587   3.050   2.187  12.565  0.0539 -0.1168  0.0622
32988W        W39588  23.331   3.499   3.623 -0.3584 -0.0160 -0.1336
32989W        W39589   4.099   4.364  22.167  0.1894  0.1443  0.0178
32990W        W39590  17.533   2.775  24.120  0.0859  0.2514 -0.2090
32991W        W39591   5.384   6.991  17.628  0.0901 -0.2510 -0.2256
32992W        W39592   6.532   1.751   6.279  0.2246  0.0530 -0.1287
32993W        W39593   9.188   0.693   5.087 -0.3583  0.0963 -0.2161
32994W        W39594  14.349   1.625  29.315  0.1745 -0.2701  0.1965
32995W        W39595  14.575   6.447   9.746 -0.0813  0.2172 -0.1126
32996W        W39596   7.603   4.211  26.764  0.1173  0.1208  0.0492
32997W        W39597  22.078   0.032   1.586 -0.3022 -0.2991 -0.1302
32998W        W39598   7.554   3.987  31.079  0.0055  0.0188  0.0434
32999W        W39599  14.326   5.994  29.553  0.0611 -0.0717 -0.1103
33000W        W39600  16.926   5.133   3.205 -0.1373 -0.2503  0.1557
33001W        W39601  17.532   4.048  26.534 -0.1206  0.1015 -0.2243
33002W        W39602  14.220   2.805   3.010 -0.0813 -0.2876  0.1859
33003W        W39603  11.172   5.605  24.385 -0.0897  0.0934  0.2637
33004W        W39604  20.427   3.163   6.270  0.1034 -0.1447  0.1920
33005W        W39605  20.838   3.633  23.475  0.1381 -0.0807 -0.1292
33006W        W39606  13.396   0.081   5.535  0.3113 -0.0739 -0.1868
33007W        W39607   3.883   1.011  22.961 -0.0637 -0.0480 -0.2263
33008W        W39608  24.385   2.020   5.238  0.1961  0.0302 -0.0119
33009W        W39609  23.074   4.221   3.487 -0.3923  0.1408 -0.1380
33010W        W39610  21.441   2.732   9.447  0.2147 -0.0157 -0.2458
33011W        W39611   5.413   5.304  31.557  0.1819 -0.2278  0.1726
33012W        W39612   9.227   1.664   7.369 -0.1442 -0.2650 -0.0045
33013W        W39613  17.066   0.223  32.481  0.1122 -0.2892  0.1617
33014W        W39614  15.858   3.007  29.827  0.3932  0.2014  0.2000
33015W        W39615  23.965   4.147  21.529  0.0787 -0.0736  0.2130
33016W        W39616   3.122   4.277   8.493  0.0772 -0.0725  0.4350
33017W        W39617  15.627   2.286  22.012 -0.2912 -0.2683  0.1081
33018W        W39618  22.123   5.312  31.203  0.0494 -0.0988  0.0648
33019W        W39619   2.666   6.130  21.330  0.2524  0.1831  0.0782
33020W        W39620  23.260   1.044   8.916  0.0470  0.1266 -0.1715
33021W        W39621   2.478   4.946   5.689  0.0815  0.3284 -0.1491
33022W        W39622  24.946   2.616  16.055 -0.1639 -0.1186 -0.0439
33023W        W39623   4.233   1.305  13.410 -0.0232 -0.0578 -0.0299
33024W        W39624  23.525   2.123  16.541 -0.0456  0.0685  0.0091
33025W        W39625  17.659   0.376   7.176 -0.1568  0.0939 -0.1365
33026W        W39626  13.660   6.049   9.047 -0.0684 -0.1536  0.1852
33027W        W39627   5.064   4.854  11.721 -0.0241  0.3588 -0.1691
33028W        W39628  13.242   6.734   4.801  0.0446  0.1020 -0.0163
33029W        W39629  12.565   0.991  11.737 -0.0044  0.2436  0.2988
33030W        W39630  15.467   3.106  18.794  0.0271 -0.0403 -0.0554
33031W        W39631  16.313   4.704   2.817  0.0349 -0.1769 -0.0230
33032W        W39632   1.525   2.633  11.467  0.0519 -0.0729  0.2449
33033W        W39633  25.039   5.289   4.476  0.2624  0.0048  0.5521
33034W        W39634  17.517   2.443  18.493  0.0416 -0.2842  0.2248
33035W        W39635   0.338   1.725  18.892  0.0759  0.0284  0.0814
33036W        W39636  14.865   6.374  30.472  0.2852 -0.0100 -0.1171
33037W        W39637  18.964   5.604  28.417 -0.0662  0.3235 -0.3602
33038W        W39638  12.499   3.562   4.741  0.0668 -0.3022  0.3792
33039W        W39639   1.862   0.917  29.799  0.1131 -0.2552  0.0481
33040W        W39640  15.594   3.209   5.489  0.3312  0.0075  0.0713
33041W        W39641   9.518   3.418   7.032  0.0211 -0.1018  0.0917
33042W        W39642  14.362   6.120  26.658 -0.1352  0.3685 -0.0166
33043W        W39643  24.780   4.539  21.278  0.0742  0.0776  0.3443
33044W        W39644   1.945   5.556   5.767  0.0962 -0.0790 -0.2727
33045W        W39645  21.568   4.253   4.039 -0.1200 -0.1318 -0.1541
33046W        W39646  18.723   0.400  16.625 -0.1958 -0.2288  0.1081
33047W        W39647   9.541   6.068  14.995 -0.1511 -0.1974  0.0521
33048W        W39648  18.459   4.642  31.440  0.1991 -0.1290 -0.0509
33049W        W39649  17.675   2.931  31.223  0.1812  0.2031  0.3369
33050W        W39650  19.832   4.929   2.379 -0.1388 -0.2641 -0.3560
33051W        W39651   6.332   4.442   3.125  0.0388 -0.3350  0.0078
33052W        W39652  17.856   7.202   2.163  0.1010  0.1656 -0.1054
33053W        W39653   5.179   4.428  10.900  0.0163 -0.3584  0.1178
33054W        W39654  16.772   2.341  17.810  0.0410  0.0230  0.0621
33055W        W39655  22.657   6.663  29.049 -0.3871  0.2094  0.0034
33056W        W39656   5.147   5.156   2.331 -0.2526  0.0706 -0.0800
33057W        W39657   5.852   4.291  29.067  0.0580 -0.1985 -0.0032
33058W        W39658   3.075   1.944   3.521  0.0764 -0.0324 -0.2979
33059W        W39659  19.384   7.069   1.736  0.4490  0.0928 -0.2197
33060W        W39660  23.493   2.568  17.542  0.2173 -0.0854  0.1963
33061W        W39661  20.278   1.671  27.068  0.0628  0.1454  0.0021
33062W        W39662   8.558   3.214  31.547  0.0965 -0.2935 -0.3642
33063W        W39663   9.695   6.132  32.228  0.5435  0.1071  0.2314
33064W        W39664  16.680   2.280  32.020  0.0040 -0.0491 -0.1713
33065W        W39665  11.965   5.332   3.050 -0.1151  0.0681  0.1306
33066W        W39666  14.068   5.861  29.118 -0.1410  0.0861  0.0609
33067W        W39667   6.668   5.331  17.716 -0.1570 -0.1149  0.0428
33068W        W39668  14.869   1.178   2.005 -0.0439 -0.1875 -0.2844
33069W        W39669  12.352   2.768  24.705 -0.1371 -0.1402  0.2361
33070W        W39670   0.983   6.478  18.526 -0.1978  0.0119  0.0485
33071W        W39671   8.114   2.476  29.283 -0.0513  0.1327  0.1968
33072W        W39672   7.494   4.678  27.022  0.1861  0.3041 -0.0084
33073W        W39673   6.731   1.224  21.463 -0.0267 -0.2638 -0.1045
33074W        W39674  13.149   3.448   9.428 -0.1499  0.1392 -0.2250
33075W        W39675  11.919   6.832  23.095 -0.3376  0.1827  0.0821
33076W        W39676   0.124   4.123  32.528 -0.3072 -0.2367  0.0698
33077W        W39677  11.168   2.540  23.826  0.1610  0.3697 -0.0519
33078W        W39678  11.441   3.066  30.502 -0.0448  0.1301 -0.1098
33079W        W39679  12.296   3.954  10.631  0.2761  0.0961 -0.4244
33080W        W39680   6.894   3.548  28.424 -0.0863  0.1750  0.0917
33081W        W39681   8.425   5.751   9.826 -0.0274 -0.0634 -0.0369
33082W        W39682   7.255   2.322  31.055 -0.1079  0.1979  0.1092
33083W        W39683   9.317   6.006  17.299  0.0581 -0.0017  0.3492
33084W        W39684  11.685   6.505  30.384 -0.3460 -0.1264  0.1382
33085W        W39685  15.690   1.360  31.745 -0.0995 -0.0220  0.3576
33086W        W39686  14.197   5.001   0.054 -0.2875 -0.1237  0.0703
33087W        W39687  17.463   4.053  28.622 -0.0095  0.2506  0.0184
33088W        W39688   1.335   0.410  22.728  0.2006 -0.1791  0.0248
33089W        W39689  18.799   5.247  15.227 -0.1335  0.1705 -0.0526
33090W        W39690  20.981   4.835  30.255  0.1057  0.2179 -0.0926
33091W        W39691  23.990   2.668   1.394 -0.0621  0.0897 -0.0918
33092W        W39692  10.466   2.220   7.362 -0.0135 -0.0308  0.2712
33093W        W39693   7.443   3.199  30.319 -0.0517 -0.2198  0.1664
33094W        W39694   2.766   5.985   1.549  0.1530 -0.1334  0.1678
33095W        W39695   0.383   7.390   4.617  0.2397  0.3729 -0.0779
33096W        W39696   6.191   4.634  11.473  0.1185  0.0639 -0.2129
33097W        W39697   1.048   3.327   4.340 -0.1811 -0.2380 -0.0581
33098W        W39698  10.961   1.953  22.808  0.0416 -0.0422 -0.0333
33099W        W39699  11.195   7.553  29.750  0.1881  0.0265 -0.2573
33100W        W39700   7.941   7.485   0.720 -0.3801  0.1706 -0.2770
33101W        W39701   4.758   7.471   4.340 -0.0205 -0.1448 -0.0234
33102W        W39702  13.792   0.726  31.606  0.0912 -0.1024 -0.0647
33103W        W39703  15.926   3.301  17.328 -0.2344  0.0911 -0.1675
33104W        W39704  23.950   4.212  23.732  0.1565 -0.0297 -0.1693
33105W        W39705  15.722   4.379  26.578 -0.1214  0.0037  0.0712
33106W        W39706  15.114   5.133  10.606 -0.4227 -0.2133  0.0211
33107W        W39707  11.132   4.259  11.363  0.0565 -0.0735  0.3397
33108W        W39708  10.875   6.734  32.190  0.1600  0.2735 -0.0190
33109W        W39709  23.074   1.273  20.372  0.1448  0.3624  0.2870
33110W        W39710   9.187   4.883  24.635 -0.0673  0.1144  0.1970
33111W        W39711  20.009   0.695  31.858  0.1185  0.2671 -0.0315
33112W        W39712  21.730   3.719   8.013 -0.3341 -0.1348  0.0647
33113W        W39713  11.638   2.758  27.167 -0.1544 -0.0902 -0.3147
33114W        W39714   5.894   7.030   6.650 -0.4492  0.0339  0.2122
33115W        W39715  14.644   6.774  10.105 -0.2762  0.0006 -0.0303
33116W        W39716  19.067   1.609  25.376 -0.2984  0.0060 -0.0795
33117W        W39717  12.300   2.512  31.649 -0.1812  0.2054 -0.0604
33118W        W39718   4.593   1.642  23.301 -0.0550  0.1011 -0.0030
33119W        W39719  11.123   7.181   2.801  0.1769  0.1137  0.0161
33120W        W39720   7.918   5.631  16.950 -0.3718 -0.2585 -0.0053
33121W        W39721  20.849   6.240  21.101 -0.0959 -0.1653  0.1658
33122W        W39722  22.640   4.746   7.972  0.0176 -0.1242  0.2551
33123W        W39723   6.120   0.354  13.163 -0.3133 -0.1896  0.1909
33124W        W39724  15.192   1.485  31.844 -0.1604 -0.2081 -0.0385
33125W        W39725  19.436   1.407  26.209  0.0968  0.2873 -0.0577
33126W        W39726  23.682   0.383  26.177  0.1942 -0.0689 -0.0657
33127W        W39727  20.986   5.018  26.976 -0.2163 -0.0454 -0.1246
33128W        W39728   7.094   7.473   5.491 -0.1625 -0.2790  0.0730
33129W        W39729   1.666   4.539  23.568 -0.2658  0.0616 -0.2185
33130W        W39730   9.604   3.588  23.486 -0.0425  0.0596  0.0879
33131W        W39731  11.582   6.684  14.105 -0.1803 -0.3151 -0.0533
33132W        W39732  12.410   2.149  13.866 -0.0782  0.6188 -0.1387
33133W        W39733   5.492   6.623   5.669 -0.1710 -0.2196 -0.3132
33134W        W39734  18.224   1.841   2.825 -0.0353 -0.1592  0.1144
33135W        W39735  18.894   1.757  18.355  0.2534 -0.0418 -0.0331
33136W        W39736  24.815   4.103  29.885 -0.2378  0.0867 -0.3596
33137W        W39737  11.494   5.287  15.291 -0.1000  0.0298  0.1056
33138W        W39738  24.718   6.701   7.508 -0.5646  0.2595 -0.1523
33139W        W39739  24.835   1.269  31.313  0.3157 -0.0748 -0.0718
33140W        W39740  19.471   5.027  28.121 -0.0554 -0.0153  0.1994
33141W        W39741  23.755   2.980   7.900  0.3421 -0.0207 -0.1102
33142W        W39742   0.451   6.312   7.357  0.0086  0.3721  0.1260
33143W        W39743  20.261   6.579  21.696  0.2065  0.1176  0.1551
33144W        W39744  10.047   2.617  18.004 -0.1726 -0.0533  0.0632
33145W        W39745  12.122   4.879   1.524  0.0822 -0.2655  0.1655
33146W        W39746  19.359   1.049   7.783  0.0965 -0.0525  0.0306
33147W        W39747  10.974   6.227   5.487 -0.1529 -0.0199  0.0993
33148W        W39748  17.559   3.517   3.967  0.0387  0.1272  0.2289
33149W        W39749  24.518   2.494  15.070  0.0034  0.1265 -0.0909
33150W        W39750  21.286   2.586   6.305  0.0188  0.1108  0.0489
33151W        W39751  15.966   4.519  26.177 -0.1683 -0.1353  0.0285
33152W        W39752   2.794   0.732   2.925 -0.0018  0.1285 -0.0552
33153W        W39753   0.130   1.467  28.907 -0.1400  0.0053 -0.1646
33154W        W39754   4.378   2.548  25.477 -0.0968  0.1902 -0.1818
33155W        W39755  13.723   4.511  25.191  0.1644 -0.3653  0.0578
33156W        W39756   0.305   3.726   1.442 -0.0241 -0.3788 -0.0283
33157W        W39757  18.843   6.559  15.626 -0.0967 -0.1274  0.0057
33158W        W39758   3.056   2.381  32.422 -0.1611  0.4001  0.0294
33159W        W39759  23.165   1.083   2.832 -0.1055 -0.1448  0.2647
33160W        W39760   5.723   5.785  15.593  0.1626  0.0410 -0.0464
33161W        W39761   5.431   2.442  26.808  0.1425  0.0224 -0.2564
33162W        W39762   0.847   6.044  29.591 -0.1251  0.0439  0.0850
33163W        W39763   4.176   6.287  30.204  0.0770  0.3150 -0.1566
33164W        W39764  23.396   4.120  21.492 -0.2043  0.0144  0.1130
33165W        W39765  13.480   5.267  28.137  0.2286  0.0266 -0.1064
33166W        W39766   7.083   5.104   7.168 -0.1559 -0.2256  0.0852
33167W        W39767  17.918   3.133   4.236 -0.1743 -0.0802 -0.0593
33168W        W39768  11.896   2.333  26.825 -0.4187 -0.3154  0.0764
33169W        W39769   7.646   5.892  23.921  0.1954  0.1931  0.4138
33170W        W39770  16.664   2.900  26.121  0.0751 -0.1732  0.3015
33171W        W39771  24.092   6.504  27.586  0.0324 -0.3424  0.1841
33172W        W39772   7.891   2.727   1.490 -0.0789 -0.1214  0.2349
33173W        W39773   2.381   1.960   7.637  0.3721 -0.1309 -0.0681
33174W        W39774   4.046   5.808  12.399 -0.0357 -0.2021 -0.0059
33175W        W39775  10.210   7.383  25.175  0.0569 -0.1566  0.2731
33176W        W39776  24.224   6.167  21.132  0.2767  0.0360 -0.1330
33177W        W39777  19.010   1.203   1.725 -0.1655 -0.1989  0.0167
33178W        W39778   9.915   7.225   3.705 -0.5686 -0.1562 -0.0677
33179W        W39779   6.187   6.575  29.488  0.1680  0.0239 -0.0925
33180W        W39780   1.836   3.088  24.742 -0.0441  0.0810  0.0552
33181W        W39781   7.920   1.124  25.806  0.0605 -0.1089 -0.4325
33182W        W39782  10.432   7.618   8.469 -0.0118  0.1735 -0.0226
33183W        W39783  18.033   5.802  22.355  0.1320 -0.2413  0.1355
33184W        W39784  20.638   3.352  32.295  0.0131 -0.0568  0.0347
33185W        W39785   2.092   5.345  11.442 -0.2491  0.1044  0.1318
33186W        W39786   9.636   1.018  14.198  0.1402 -0.2545  0.1511
33187W        W39787  16.122   2.207  21.324  0.1024  0.2217 -0.3134
33188W        W39788   4.299   7.047  11.018 -0.0518  0.0719 -0.0632
33189W        W39789  20.309   6.401  25.227  0.3279  0.0752  0.0855
33190W        W39790  18.420   6.283  24.638  0.2643 -0.1505  0.1032
33191W        W39791  13.148   3.871   2.995  0.1913 -0.1456 -0.2526
33192W        W39792  22.784   3.218  29.751 -0.0067  0.0841 -0.1528
33193W        W39793  12.167   3.858  11.139 -0.0572  0.2092 -0.0397
33194W        W39794  24.804   6.056  27.394 -0.1795  0.0950 -0.0467
33195W        W39795   6.051   0.618  16.138 -0.2554  0.1914 -0.1222
33196W        W39796  23.399   6.339   2.243  0.0759 -0.0408 -0.1795
33197W        W39797  17.630   1.213  24.261  0.3528 -0.1990  0.0595
33198W        W39798  20.663   1.005  22.532 -0.1517 -0.0332  0.0699
33199W        W39799  12.589   1.740  22.321 -0.0346  0.1282  0.0258
33200W        W39800   0.083   4.502  23.652  0.0543  0.1836 -0.0284
33201W        W39801  13.679   6.831  22.791 -0.0095 -0.1275 -0.0886
33202W        W39802  11.513   4.578   9.957  0.1220 -0.3305 -0.0556
33203W        W39803  14.786   0.327  30.447  0.2453  0.0975  0.1473
33204W        W39804  24.151   7.210  27.369  0.3608 -0.0616 -0.2346
33205W        W39805  21.058   3.906  24.356  0.0896 -0.3092 -0.2392
33206W        W39806  16.135   5.599  26.905  0.1197 -0.0189  0.2445
33207W        W39807  22.682   6.693   1.647  0.0042 -0.0237 -0.3512
33208W        W39808   5.591   0.522  22.457  0.1399  0.0205  0.0471
33209W        W39809   4.059   5.620  10.785  0.1931 -0.2091 -0.0865
33210W        W39810   3.353   6.475   2.623  0.0610  0.0769  0.0607
33211W        W39811  23.914   5.021   9.994  0.0513 -0.0436 -0.2014
33212W        W39812  24.182   0.591   7.458  0.4412 -0.1511 -0.0104
33213W        W39813   7.164   5.609  22.958  0.1851 -0.0169 -0.3892
33214W        W39814  16.954   1.037   2.402  0.0169 -0.1403  0.0767
33215W        W39815   3.913   2.775   5.787  0.0853  0.0156  0.4432
33216W        W39816   3.287   0.047   3.597 -0.3528  0.0171  0.0337
33217W        W39817   2.541   6.716  28.556  0.0143 -0.1816  0.0189
33218W        W39818  10.825   0.367  27.957 -0.1508  0.1167  0.0318
33219W        W39819   8.273   3.625   9.111  0.0045  0.0817 -0.1220
33220W        W39820   5.301   7.430  28.829  0.2003  0.0386  0.1220
33221W        W39821   7.656   1.587  13.716 -0.1920 -0.1148 -0.2231
33222W        W39822   4.717   4.657  24.741  0.0271  0.2187 -0.0743
33223W        W39823  23.090   4.681  32.416 -0.1131 -0.1211 -0.1705
33224W        W39824  16.450   6.225  24.696 -0.1068 -0.1336  0.0029
33225W        W39825  10.759   2.543   7.699  0.2154  0.1947 -0.0091
33226W        W39826   0.049   4.020  22.415 -0.2148  0.1398  0.0338
33227W        W39827   5.407   6.736  12.878  0.3933  0.3295 -0.3037
33228W        W39828  19.740   2.973  19.295  0.0067 -0.0203 -0.1628
33229W        W39829  12.273   4.544   3.996 -0.1792  0.0151 -0.1206
33230W        W39830  22.899   5.187   6.963 -0.3439 -0.0509  0.2788
33231W        W39831  20.415   7.178  15.171  0.1349  0.0478  0.4073
33232W        W39832  18.505   0.683  18.246  0.3161  0.1227  0.1554
33233W        W39833   0.669   0.848  24.335  0.2237  0.0739  0.1765
33234W        W39834   2.980   6.946  28.664  0.1968  0.1779  0.0961
33235W        W39835   0.165   4.681   1.891 -0.0188  0.3593  0.0020
33236W        W39836  17.414   7.261  32.600 -0.3816  0.1957 -0.0787
33237W        W39837  21.691   0.367  31.988  0.1664  0.0573  0.1404
33238W        W39838   5.256   6.941   1.109  0.3436  0.0983  0.0195
33239W        W39839   5.630   2.571  26.354  0.1041  0.2705 -0.0417
33240W        W39840  23.433   7.736  25.384  0.0370 -0.0312 -0.3431
33241W        W39841  24.429   5.300   2.719  0.0039 -0.2671  0.2297
33242W        W39842   1.304   5.582  25.729 -0.1915  0.1440  0.1918
33243W        W39843  18.523   3.715  18.387 -0.0445  0.0221 -0.1084
33244W        W39844   2.047   0.624   2.196  0.1900  0.0448  0.4498
33245W        W39845  13.868   6.242  26.371 -0.0235 -0.0120 -0.1033
33246W        W39846  19.041   7.742  24.491  0.1001 -0.1903  0.1363
33247W        W39847   6.473   4.024   1.816 -0.1837 -0.0536  0.1527
33248W        W39848  11.360   5.508   4.883 -0.0988 -0.0236  0.0097
33249W        W39849   6.075   5.275   4.464 -0.3605  0.1838 -0.3530
33250W        W39850  22.066   7.276  15.055 -0.0013  0.2082 -0.2858
33251W        W39851  19.484   0.788  25.748 -0.1053  0.0035 -0.0322
33252W        W39852  11.426   7.016   6.986  0.0512  0.5617  0.0254
33253W        W39853   8.217   0.575  17.011  0.2043  0.1425  0.2669
33254W        W39854  20.937   7.453   6.349  0.0043  0.1501  0.2132
33255W        W39855   8.772   2.426   5.252  0.3879  0.0659  0.1415
33256W        W39856   5.768   6.574   3.601  0.1899  0.1229  0.0896
33257W        W39857  13.197   7.503  13.717 -0.1233 -0.0002 -0.2536
33258W        W39858   9.676   1.609   1.151 -0.1825  0.3093  0.2590
33259W        W39859   5.310   2.827   2.337  0.1585  0.0918  0.0393
33260W        W39860   9.499   3.415   8.067 -0.0510  0.1004 -0.0048
33261W        W39861  20.481   1.105   7.951  0.0801 -0.3237 -0.0315
33262W        W39862   2.266   2.808  31.256  0.0914 -0.0238  0.0007
33263W        W39863   8.181   3.448   5.217  0.2737  0.1263 -0.2983
33264W        W39864   7.867   6.492   5.526  0.1449  0.2690  0.2971
33265W        W39865  22.661   3.180   6.861  0.0954 -0.1547 -0.0689
33266W        W39866  14.219   3.643   0.769  0.3384  0.1260  0.1466
33267W        W39867   5.786   4.093   5.783  0.1007 -0.4470  0.0701
33268W        W39868  20.445   6.944  27.234 -0.0665 -0.0937  0.2293
33269W        W39869   2.203   6.924  31.525 -0.0670 -0.0837 -0.0290
33270W        W39870  16.348   4.965  24.198  0.1456  0.1098 -0.1289
33271W        W39871  22.749   4.260  17.568 -0.0343  0.0394  0.4163
33272W        W39872  14.071   0.341   5.102 -0.1065  0.2874 -0.1355
33273W        W39873  22.600   1.665   0.012 -0.1230  0.1799  0.1735
33274W        W39874   8.911   4.252   8.012 -0.3305 -0.1453 -0.2847
33275W        W39875   5.312   0.210   5.007 -0.5761  0.0451 -0.2266
33276W        W39876   4.407   5.859  23.012  0.2956  0.0373  0.1000
33277W        W39877   8.205   3.101  13.386 -0.0228 -0.1013  0.1210
33278W        W39878  22.999   5.727   7.607 -0.0387  0.2537 -0.3037
33279W        W39879  19.654   4.666   8.359  0.2767  0.1138  0.0724
33280W        W39880  17.424   4.258   2.433  0.3039 -0.0770 -0.2840
33281W        W39881   8.631   4.021   7.624 -0.1887 -0.0141 -0.2452
33282W        W39882  12.464   3.582   1.105 -0.1191  0.2567 -0.1242
33283W        W39883  12.448   3.780  25.567 -0.2979 -0.0667  0.0727
33284W        W39884  24.761   4.285  28.563 -0.1172 -0.0749 -0.1220
33285W        W39885  20.750   3.042  18.578  0.1259  0.1794  0.3601
33286W        W39886  11.172   0.401  24.079  0.3154 -0.2894  0.0725
33287W        W39887   4.870   3.077  29.898  0.0520 -0.3499  0.0907
33288W        W39888   0.526   2.499  29.507 -0.3227  0.2316  0.2732
33289W        W39889  13.965   2.550   0.944  0.0612  0.2958  0.0629
33290W        W39890  16.480   3.400   4.753  0.2841  0.2760  0.0888
33291W        W39891  23.696   0.083   3.082  0.0728  0.0197  0.2987
33292W        W39892   0.081   0.314  32.620 -0.1701 -0.0938 -0.0554
33293W        W39893  10.680   1.158  16.408  0.1129 -0.5077  0.1199
33294W        W39894   4.184   1.918  30.879 -0.3567 -0.1259  0.1503
33295W        W39895  23.064   1.396  18.653  0.2305  0.1075  0.1673
33296W        W39896  22.767   2.985   8.395 -0.1024  0.1425 -0.0077
33297W        W39897  16.167   2.182   8.844  0.2212  0.0314  0.0093
33298W        W39898  23.849   2.288  29.564 -0.0521  0.0683 -0.4494
33299W        W39899   4.154   3.979  14.059 -0.1624  0.1967  0.1606
33300W        W39900   4.609   1.712   3.860 -0.1096 -0.0927  0.0686
33301W        W39901  21.997   7.371   7.130  0.1619  0.0119  0.2200
33302W        W39902  24.132   3.073  10.040 -0.0821  0.1085 -0.3228
33303W        W39903  19.212   4.805  23.849 -0.0330 -0.0979 -0.2042
33304W        W39904  19.807   2.265   7.176  0.0330  0.3958  0.1184
33305W        W39905   0.527   7.755  32.360  0.1351 -0.2491 -0.0189
33306W        W39906  15.824   4.657  20.439  0.0566 -0.0057 -0.2683
33307W        W39907  22.837   1.771  26.700  0.3244  0.4440 -0.1219
33308W        W39908  17.092   6.802  18.428 -0.1636  0.1058  0.3503
33309W        W39909  12.021   7.379  13.782  0.4139 -0.2839  0.1748
33310W        W39910  15.088   5.171  21.309  0.1389 -0.0743 -0.1192
33311W        W39911  15.637   0.144  21.922  0.0087  0.1247 -0.1038
33312W        W39912   9.705   2.935  30.132  0.0223 -0.3769 -0.1784
33313W        W39913  18.816   1.792  22.823  0.0326  0.1075 -0.0443
33314W        W39914  16.702   0.290  28.277  0.0981 -0.3186 -0.0334
33315W        W39915  14.919   3.215   7.278  0.1673 -0.0801  0.0540
33316W        W39916  11.888   5.322  14.543 -0.0054  0.3118  0.1257
33317W        W39917   0.894   6.052  18.237 -0.0525 -0.1615  0.0854
33318W        W39918   6.259   2.322  14.846 -0.1586  0.1080  0.0692
33319W        W39919   3.293   1.919  32.182  0.2366 -0.0184 -0.2548
33320W        W39920  22.765   7.050  29.456  0.1731 -0.3221 -0.0259
33321W        W39921   3.360   6.399  11.617  0.0574 -0.1088 -0.0182
33322W        W39922  10.291   4.528   4.640  0.0839  0.2465  0.2328
33323W        W39923  23.611   1.039  23.730 -0.0952 -0.0895  0.3119
33324W        W39924  20.659   1.531  10.056 -0.0493 -0.0535 -0.2427
33325W        W39925  14.092   6.610  31.462 -0.1117  0.1980 -0.0825
33326W        W39926  19.899   0.716  25.403  0.2455 -0.0254 -0.3457
33327W        W39927   8.124   4.221  28.728 -0.1241 -0.1385  0.2666
33328W        W39928  22.864   1.640   7.728 -0.1656 -0.0328 -0.2713
33329W        W39929   6.101   7.396   6.449 -0.0294 -0.1118 -0.0378
33330W        W39930   1.126   7.411  20.711  0.1157  0.2040  0.1650
33331W        W39931  14.212   0.556   3.907 -0.0976  0.1464  0.0712
33332W        W39932  20.610   4.992  26.536 -0.3256 -0.0038 -0.2014
33333W        W39933  13.584   6.878  15.269 -0.4199  0.0903  0.0247
33334W        W39934   4.660   1.645  12.219  0.2641  0.1064 -0.0193
33335W        W39935  14.594   2.770   7.666 -0.0142  0.1288 -0.1687
33336W        W39936  12.829   2.830  25.640  0.0565  0.1146 -0.0402
33337W        W39937  21.877   6.552  32.414  0.0705  0.1244 -0.2325
33338W        W39938  13.814   3.708  27.556 -0.1407 -0.1877 -0.0690
33339W        W39939  22.488   1.334  28.555  0.0707 -0.3595 -0.0157
33340W        W39940   6.929   6.175   1.323  0.0782 -0.2456 -0.1608
33341W        W39941   9.239   2.153   0.426 -0.4983  0.0930  0.1083
33342W        W39942  13.816   4.926   2.145 -0.1711 -0.1639 -0.0386
33343W        W39943  19.466   1.534  14.977 -0.0439  0.0384  0.0799
33344W        W39944   3.498   2.464  28.628 -0.1298 -0.3606  0.2238
33345W        W39945   5.844   2.415   6.395  0.2221  0.0233  0.1906
33346W        W39946   2.871   5.934   4.307 -0.0735  0.4785  0.1342
33347W        W39947   5.390   0.320  11.862  0.0127 -0.0258  0.0005
33348W        W39948   1.551   1.247  20.441 -0.0259  0.0547 -0.0281
33349W        W39949  11.096   1.604   5.707 -0.0115  0.0017 -0.0915
33350W        W39950  14.582   2.851  11.020 -0.1253  0.1609  0.2739
33351W        W39951   7.563   2.591   5.818 -0.0332  0.0145 -0.2284
33352W        W39952  22.831   7.123  18.433 -0.1034 -0.1674  0.1082
33353W        W39953   4.234   7.565  26.529  0.0683 -0.2602  0.0144
33354W        W39954  11.771   4.149  15.329 -0.1672 -0.0115  0.0740
33355W        W39955  19.921   1.531  17.033  0.0380  0.1196  0.2737
33356W        W39956   9.382   0.267  32.630 -0.1821  0.3072  0.1197
33357W        W39957   3.659   7.116  10.939  0.0329  0.1463 -0.3620
33358W        W39958  15.186   2.835  30.153  0.1786 -0.2374  0.0396
33359W        W39959  16.177   4.076  10.619 -0.0659 -0.0550 -0.0582
33360W        W39960   4.599   5.293   0.401 -0.0540 -0.0480  0.2533
33361W        W39961  21.312   4.885  31.423 -0.0125 -0.2346 -0.0116
33362W        W39962  16.662   4.875  16.343 -0.0847 -0.3611  0.1480
33363W        W39963  18.005   6.086   9.337 -0.0075  0.1863 -0.0916
33364W        W39964  21.792   4.134   8.323 -0.2444 -0.0953 -0.1021
33365W        W39965  12.510   2.514   5.742 -0.4344  0.0835 -0.0722
33366W        W39966  20.059   7.692   3.839 -0.0660  0.0834  0.3467
33367W        W39967  19.697   0.478  23.557 -0.0842  0.1629  0.0976
33368W        W39968  21.875   1.484   1.202 -0.1516  0.2377  0.0365
33369W        W39969   6.957   5.510  32.054  0.0654  0.0057 -0.2342
33370W        W39970  16.688   6.339   9.877  0.2850  0.0602  0.0062
33371W        W39971  21.062   0.108  26.540 -0.2292 -0.3921  0.1470
33372W        W39972   1.293   0.099  27.618  0.0348 -0.0554 -0.1691
33373W        W39973  17.800   5.009  29.341  0.1416 -0.2470  0.0122
33374W        W39974  17.245   3.395   2.881  0.3563 -0.4237  0.1737
33375W        W39975  22.797   6.721  14.801  0.0399 -0.0714  0.1382
33376W        W39976   2.158   1.575   1.958 -0.0353  0.0367  0.1281
33377W        W39977   9.487   4.948  13.420  0.0667 -0.0991 -0.2484
33378W        W39978  20.565   5.922  22.170  0.0140  0.2516 -0.2627
33379W        W39979   2.109   0.866  10.868  0.0624  0.1956 -0.2191
33380W        W39980  18.265   7.564  18.516  0.1645 -0.1250  0.0750
33381W        W39981  23.715   7.672  24.033  0.0836 -0.0344 -0.0281
33382W        W39982   4.704   2.632   4.403  0.0191  0.1238 -0.0462
33383W        W39983  11.971   4.567  15.480  0.2413  0.2882 -0.0456
33384W        W39984  18.159   6.456  27.221 -0.2083 -0.0133  0.2401
33385W        W39985  24.739   0.476  31.475  0.2229 -0.2101  0.1414
33386W        W39986   7.649   5.100  32.682  0.1448  0.0598 -0.1183
33387W        W39987  17.168   2.079  19.207  0.1179  0.2709 -0.1362
33388W        W39988  16.862   1.688  25.964 -0.1042  0.1100 -0.3401
33389W        W39989   9.179   4.080  17.582 -0.1139  0.0403  0.1775
33390W        W39990   6.410   3.684   3.027 -0.0751  0.2186 -0.0589
33391W        W39991  13.079   7.624   2.898  0.3511 -0.1036  0.0749
33392W        W39992  11.646   5.953   9.787 -0.3443 -0.1539 -0.0521
33393W        W39993   7.503   7.113  32.321 -0.2320  0.3233 -0.1757
33394W        W39994  11.822   0.294   2.437 -0.1159 -0.0946  0.0697
33395W        W39995   8.819   7.643  14.230 -0.3964  0.1287 -0.1109
33396W        W39996  22.767   5.217  31.864 -0.1374 -0.3799 -0.3092
33397W        W39997   5.655   7.153  13.881  0.1483  0.1651 -0.0244
33398W        W39998  19.786   0.729   0.823 -0.0557  0.0426  0.0091
33399W        W39999  12.638   0.764   5.868 -0.1267  0.3177  0.4013
33400W        W40000   2.870   0.519   0.028 -0.5912 -0.1805  0.0089
33401W        W40001   2.561   3.217  31.122  0.3756 -0.1453 -0.0535
33402W        W40002   6.673   4.932   0.878  0.0210 -0.1675  0.2211
33403W        W40003   4.010   7.127  28.251 -0.0709  0.3248 -0.1096
33404W        W40004   7.192   5.137  13.876  0.0177  0.1973 -0.1548
33405W        W40005   0.161   2.413   0.104 -0.2458  0.0021  0.1243
33406W        W40006   1.481   4.086   6.104  0.1252 -0.0868  0.2044
33407W        W40007  23.066   5.439  15.639  0.1966  0.1464 -0.0645
33408W        W40008  12.486   1.240   1.367  0.1915 -0.1601  0.1310
33409W        W40009  11.451   2.309   3.197 -0.0972  0.0066  0.2263
33410W        W40010   7.060   2.014  26.045  0.1720 -0.0597  0.2394
33411W        W40011   1.418   2.626   5.603 -0.1193  0.1150  0.0877
33412W        W40012  12.688   5.465  12.139  0.1069  0.1122 -0.0389
33413W        W40013   2.656   4.091  19.956  0.0128 -0.0294  0.2204
33414W        W40014  12.036   4.695  29.759  0.1709  0.0622  0.2457
33415W        W40015  21.235   6.523   3.635 -0.0903  0.1295 -0.2097
33416W        W40016  12.806   3.755  32.008 -0.0667  0.3568 -0.0739
33417W        W40017   4.783   0.444  28.606  0.1905 -0.1148 -0.0681
33418W        W40018   2.362   3.516   7.684 -0.1209 -0.2010  0.2531
33419W        W40019  22.546   6.235  29.259 -0.4344  0.0380  0.0444
33420W        W40020   7.048   4.784   5.673 -0.1440 -0.2858 -0.1691
33421W        W40021   9.948   1.948  12.643 -0.2798 -0.2124  0.2041
33422W        W40022  19.411   7.339  26.072  0.0760 -0.1420 -0.3137
33423W        W40023  22.072   3.692  14.401 -0.0794 -0.2670 -0.4220
33424W        W40024  13.325   0.489  30.661 -0.0262 -0.3837  0.1502
33425W        W40025   9.162   1.993  10.133 -0.0022  0.2386 -0.0974
33426W        W40026  21.276   4.419  21.632  0.0653 -0.2366  0.0340
33427W        W40027   1.245   0.596   3.092  0.0196 -0.3851 -0.1420
33428W        W40028   9.004   6.056  32.182 -0.1645  0.4596 -0.1555
33429W        W40029  15.876   5.624   2.586  0.0157  0.1456 -0.0866
33430W        W40030  21.549   7.360  30.159 -0.0038 -0.0354 -0.0615
33431W        W40031  23.695   0.271  25.289  0.0117  0.0517  0.0410
33432W        W40032  18.921   6.643  32.227  0.0945  0.2670 -0.3120
33433W        W40033   0.207   0.632  22.814 -0.0675  0.2105  0.2609
33434W        W40034  14.719   5.314  24.902 -0.2356 -0.1045 -0.0899
33435W        W40035  23.132   4.436  14.741 -0.1839  0.0003 -0.0392
33436W        W40036  16.164   3.124   2.734 -0.0894 -0.0268 -0.4148
33437W        W40037  17.189   0.788  27.325 -0.2604  0.1805  0.2847
33438W        W40038  17.994   7.762  26.552  0.2412  0.0711  0.1848
33439W        W40039   6.493   4.616   7.247  0.0991 -0.1076 -0.0044
33440W        W40040   0.805   3.781  20.336  0.2454 -0.0569 -0.2839
33441W        W40041   2.532   1.214   3.103  0.1516  0.1161 -0.2304
33442W        W40042   7.796   1.190  25.307 -0.3103  0.1866  0.4721
33443W        W40043   2.506   1.358  10.263  0.3889  0.1279 -0.2062
33444W        W40044  24.366   0.068   4.267  0.0144  0.0767 -0.2514
33445W        W40045  16.371   3.793  21.487  0.0121 -0.2541  0.1369
33446W        W40046  10.574   4.279  17.382  0.1584 -0.0498  0.0031
33447W        W40047  14.456   4.696  32.431  0.1949  0.1945  0.2787
33448W        W40048  15.436   4.596   6.597 -0.2227 -0.2266 -0.0227
33449W        W40049   5.786   5.207   6.763  0.0338  0.0362 -0.0226
33450W        W40050   8.917   0.313  16.388  0.1074  0.4635  0.0522
33451W        W40051   1.643   7.734  21.222  0.2652 -0.1021 -0.0346
33452W        W40052  10.672   2.393  22.646  0.3295 -0.0132  0.0647
33453W        W40053  20.393   2.251   3.742  0.1543  0.2232  0.1749
33454W        W40054   4.872   7.201   0.858 -0.0336 -0.0298  0.2048
33455W        W40055  10.903   7.474  15.469 -0.0983 -0.0071 -0.2326
33456W        W40056  10.586   0.405  26.584 -0.0681 -0.1506 -0.3689
33457W        W40057  19.102   0.170  19.892 -0.3022  0.2090  0.0106
33458W        W40058  15.746   3.820   7.217 -0.2352  0.1249 -0.0178
33459W        W40059  24.798   1.757  31.339 -0.2698  0.1636  0.0064
33460W        W40060   1.274   5.736  10.451 -0.0452  0.0784 -0.0338
33461W        W40061   5.056   1.997  16.085 -0.0175 -0.0147 -0.2225
33462W        W40062   5.177   4.467   0.986 -0.1396 -0.1331  0.0363
33463W        W40063   8.614   0.887  30.287  0.2057  0.1290 -0.1152
33464W        W40064  22.747   4.714  28.338 -0.1510 -0.0536  0.0926
33465W        W40065  17.602   1.487  23.526  0.1749 -0.1039 -0.1178
33466W        W40066  18.285   1.933  17.580  0.0821 -0.0214  0.2424
33467W        W40067   5.836   6.874  30.952 -0.0071 -0.0596  0.0819
33468W        W40068  16.492   5.889   5.601 -0.1659 -0.3743  0.0738
33469W        W40069  11.862   7.399   1.940 -0.1468 -0.0032 -0.1815
33470W        W40070   2.176   0.360  22.452 -0.2624  0.2268 -0.2124
33471W        W40071  14.382   6.291  12.256 -0.1108  0.3508  0.1276
33472W        W40072   4.388   6.334  31.341 -0.1124 -0.1008  0.2139
33473W        W40073   4.160   5.126  27.713 -0.0620  0.0174  0.0191
33474W        W40074  23.705   3.407  17.241  0.2224 -0.2256 -0.1266
33475W        W40075   9.541   4.473  23.112  0.2042 -0.1889  0.3463
33476W        W40076  14.031   5.205  23.111  0.1914 -0.2466 -0.1928
33477W        W40077  11.621   4.107  32.456  0.0385 -0.1287 -0.5162
33478W        W40078   6.625   7.599   3.418  0.1177  0.1821  0.0381
33479W        W40079   8.494   1.188   5.050 -0.1153 -0.2754  0.0330
33480W        W40080  14.485   6.734   7.702  0.0490 -0.3184 -0.1419
33481W        W40081  17.830   3.179   3.681 -0.1021 -0.0950 -0.0518
33482W        W40082   0.111   5.498  27.312  0.2408  0.0623 -0.0845
33483W        W40083  10.007   4.863  15.190  0.0578 -0.1318 -0.0663
33484W        W40084   5.314   0.555  29.262  0.1798  0.0374  0.0874
33485W        W40085  10.103   0.001  15.502 -0.1318 -0.0181 -0.2306
33486W        W40086  20.200   1.412   6.754  0.1625 -0.0962 -0.0222
33487W        W40087  15.341   6.482   6.018  0.3533  0.0630  0.0553
33488W        W40088   2.081   3.567  11.893  0.0490 -0.0773 -0.4095
33489W        W40089   2.217   0.327  27.679  0.3325  0.3167  0.1184
33490W        W40090  14.956   0.889   7.090  0.4199 -0.0632 -0.2364
33491W        W40091   4.029   3.321  13.022  0.5556  0.3081 -0.1157
33492W        W40092   4.444   2.586   1.876  0.1276 -0.0762  0.1655
33493W        W40093   2.902   1.102  27.827  0.0948 -0.0308  0.0474
33494W        W40094  13.427   4.811  10.749  0.1050 -0.3541  0.0982
33495W        W40095   7.466   5.942   7.146  0.2053  0.1286  0.1491
33496W        W40096  10.369   4.793   5.449  0.1924  0.0484 -0.0385
33497W        W40097  15.878   0.778  11.611 -0.1746  0.0896  0.1707
33498W        W40098  11.626   2.364   4.810  0.0028 -0.2609 -0.0300
33499W        W40099  17.161   7.215   0.438 -0.1503 -0.1899 -0.3712
33500W        W40100  18.695   4.139  27.717  0.0633  0.3300  0.2356
33501W        W40101  20.854   2.643   7.178 -0.0401  0.1308  0.0168
33502W        W40102   2.956   0.335  31.833 -0.2743  0.0117 -0.0358
33503W        W40103  17.206   1.264   0.057 -0.0444 -0.2615  0.0912
33504W        W40104   8.767   6.617   1.693  0.0731  0.0131 -0.2339
33505W        W40105  18.852   0.066  10.216 -0.1813  0.1853  0.2001
33506W        W40106   9.386   6.730  29.546  0.1894  0.2416  0.0393
33507W        W40107  20.525   2.419   5.437  0.1740  0.3000  0.2624
33508W        W40108  18.465   5.857  26.868  0.0599  0.2030  0.2758
33509W        W40109   5.052   0.997  13.718  0.2384  0.0715 -0.3242
33510W        W40110   4.169   2.961  25.290 -0.1075  0.1034  0.0133
33511W        W40111  16.959   4.380  31.987  0.0216 -0.2369  0.1759
33512W        W40112   7.113   2.230   5.224  0.4235 -0.1478 -0.0263
33513W        W40113  18.772   3.148  17.181 -0.0431  0.1291 -0.0063
33514W        W40114  17.564   3.917   4.815  0.1879  0.0089 -0.2839
33515W        W40115   2.924   6.510   4.954  0.1739  0.2602  0.1756
33516W        W40116   1.685   6.737   4.798  0.0391  0.0383  0.1059
33517W        W40117  19.119   6.456   5.359 -0.0299 -0.0847 -0.0629
33518W        W40118  22.548   7.259   7.940  0.1172  0.2613 -0.0288
33519W        W40119   5.181   3.342  23.556  0.0136 -0.2596  0.0697
33520W        W40120  16.616   1.155  30.403 -0.2143 -0.0598 -0.4317
33521W        W40121  12.455   3.731  26.700  0.2661  0.1445 -0.2047
33522W        W40122  18.589   7.042  24.002 -0.2245 -0.0446  0.3764
33523W        W40123  12.406   1.341  32.681  0.1988 -0.3506 -0.0581
33524W        W40124   0.942   7.786  19.390 -0.0500  0.2479  0.2653
33525W        W40125  17.498   1.954  20.185  0.1652  0.0470 -0.3353
33526W        W40126  22.653   1.509   3.365  0.1306  0.0023  0.0158
33527W        W40127   9.705   0.801   3.784  0.0938  0.0684 -0.0523
33528W        W40128  24.216   7.707   2.382  0.0178  0.3104 -0.3588
33529W        W40129   8.234   3.144  27.992 -0.0541 -0.0194 -0.1198
33530W        W40130  17.445   4.509  18.060 -0.0483 -0.1500  0.0633
33531W        W40131  10.357   2.831  28.625 -0.1661 -0.1217  0.0924
33532W        W40132  13.331   5.020  13.378  0.1066  0.0282 -0.0252
33533W        W40133  20.467   7.162  31.868  0.0888 -0.2305  0.2538
33534W        W40134   1.024   3.245  17.531  0.2022  0.1136  0.0774
33535W        W40135   1.122   0.905  26.859  0.0034  0.0189  0.0636
33536W        W40136  16.789   1.568  31.415 -0.1145 -0.0414  0.2236
33537W        W40137  16.915   6.248  24.881 -0.1956 -0.0912  0.0053
33538W        W40138   4.976   7.582  12.944  0.0121 -0.0538 -0.1267
33539W        W40139  13.573   3.047   1.086 -0.0481 -0.3381  0.4870
33540W        W40140  16.523   4.861  19.525  0.0391 -0.0713 -0.2088
33541W        W40141  19.424   7.471   3.144 -0.2376 -0.3830  0.1553
33542W        W40142   0.475   0.895  31.140 -0.1309 -0.0046  0.2511
33543W        W40143   3.931   3.977  22.402 -0.2101 -0.1111 -0.1955
33544W        W40144  24.278   5.612   2.278  0.0719  0.0023  0.2712
33545W        W40145  18.027   4.962  32.037 -0.1535  0.0455  0.0931
33546W        W40146  24.295   3.360   0.687  0.0832  0.1845 -0.0349
33547W        W40147  24.570   2.514  21.488  0.3740  0.1075  0.1815
33548W        W40148   8.125   0.276   3.786 -0.0224 -0.2774  0.2582
33549W        W40149  12.170   5.015  23.674 -0.0764  0.2807 -0.0077
33550W        W40150  20.487   1.707  24.709 -0.0923 -0.0552  0.0544
33551W        W40151  23.128   0.540  32.692 -0.0682  0.2290  0.4433
33552W        W40152   8.423   4.764  23.872  0.1718  0.0096 -0.4719
33553W        W40153   9.183   5.509  15.678  0.1604 -0.3379  0.1532
33554W        W40154  23.952   2.972  17.297  0.0345  0.2872  0.2419
33555W        W40155  11.155   2.238   6.844 -0.0708 -0.2102 -0.0275
33556W        W40156   1.224   4.633   4.667 -0.1334 -0.1141 -0.0570
33557W        W40157  23.326   7.344  22.750  0.2195 -0.2273  0.0274
33558W        W40158  14.283   1.030  24.450 -0.2135 -0.1851  0.1595
33559W        W40159  23.080   1.275  32.058  0.2432  0.1041  0.0676
33560W        W40160  18.325   5.595  10.918 -0.0064  0.0884  0.0099
33561W        W40161  18.354   2.711  25.171 -0.1186  0.1179  0.0739
33562W        W40162  23.632   7.795   9.921 -0.0811  0.2561 -0.0038
33563W        W40163  11.442   6.930  14.502 -0.2857  0.0513 -0.0326
33564W        W40164  23.332   4.500   7.815 -0.0895  0.0072 -0.0844
33565W        W40165   2.830   2.298   9.459  0.0539 -0.2435  0.0211
33566W        W40166  17.085   2.639   0.816  0.0741 -0.3626  0.1190
33567W        W40167  20.293   1.413   2.225 -0.4844 -0.2183 -0.2641
33568W        W40168  15.410   5.681  19.814 -0.1623  0.0983 -0.1011
33569W        W40169  17.339   2.105   1.741 -0.0354  0.0960  0.0142
33570W        W40170   3.429   2.774  22.738  0.1731  0.0379  0.0330
33571W        W40171  18.066   7.056  16.512  0.0480  0.0537 -0.0241
33572W        W40172   5.430   7.689  25.598 -0.1519 -0.2116 -0.1296
33573W        W40173  16.764   1.303   1.517  0.2424 -0.0655  0.0653
33574W        W40174   8.712   3.777  17.804  0.1702 -0.0819 -0.1869
33575W        W40175   3.760   5.335  31.760 -0.0843  0.1306  0.1521
33576W        W40176  22.935   1.070  16.274 -0.3319 -0.0208  0.2032
33577W        W40177  20.045   3.449  15.026 -0.1300 -0.0952 -0.0583
33578W        W40178   2.385   2.946  24.045  0.0958  0.0525  0.1872
33579W        W40179   3.200   1.901  10.695  0.0581  0.0189  0.0419
33580W        W40180  16.073   6.535   2.371 -0.0425  0.1545  0.2270
33581W        W40181   1.413   7.317  29.543 -0.0214 -0.4468  0.1603
33582W        W40182  14.977   2.856   9.187 -0.1505  0.2327  0.1183
33583W        W40183  18.906   0.586   7.059  0.1131  0.2161 -0.1795
33584W        W40184   4.191   6.148  11.491  0.0199 -0.0262  0.2384
33585W        W40185  10.943   0.801  29.611  0.2367 -0.2696  0.2911
33586W        W40186  12.309   2.340  12.739  0.0522 -0.2286  0.1136
33587W        W40187   4.030   2.357   7.237 -0.0831 -0.0003 -0.3480
33588W        W40188  12.654   2.992   0.592  0.1013  0.0876 -0.1831
33589W        W40189  15.485   6.759  29.772 -0.2261 -0.0082 -0.1291
33590W        W40190   4.295   2.976  10.210  0.1461  0.0344 -0.0673
33591W        W40191   1.716   1.662   0.198  0.0044  0.1745 -0.1134
33592W        W40192  10.970   3.992  13.970 -0.0037  0.1079 -0.2106
33593W        W40193  13.915   7.316   4.664  0.1029  0.0981 -0.0717
33594W        W40194   0.331   0.350   1.489 -0.0574 -0.3402 -0.1064
33595W        W40195  11.102   4.241  13.227  0.1690 -0.1882 -0.0813
33596W        W40196  18.573   0.875  29.293  0.3802 -0.1352 -0.0141
33597W        W40197  13.340   3.856   9.806  0.0325 -0.0096  0.2901
33598W        W40198   8.217   1.309  11.137  0.1748  0.0010  0.0157
33599W        W40199   8.301   0.827   2.464  0.4470 -0.1255 -0.1151
33600W        W40200  22.279   7.084   8.354  0.0862  0.3165  0.0938
33601W        W40201  10.613   0.989  24.519  0.0020 -0.0631  0.1383
33602W        W40202  20.454   3.821  30.149 -0.0125  0.1659  0.1211
33603W        W40203  12.508   1.193  28.796 -0.1742 -0.2357  0.0951
33604W        W40204  15.489   5.438   9.756 -0.0262 -0.1608 -0.1387
33605W        W40205   4.595   3.349  26.620  0.0982 -0.1167  0.1779
33606W        W40206   9.369   0.944  14.894 -0.2275  0.1673 -0.1241
33607W        W40207  23.884   0.346   4.415  0.1170 -0.0084 -0.1591
33608W        W40208  19.516   3.437  27.508 -0.0393  0.2008  0.2610
33609W        W40209  23.586   5.785   5.905 -0.0425  0.0193  0.1190
33610W        W40210  24.556   3.250   9.852 -0.0588 -0.7032  0.2927
33611W        W40211   8.017   5.721  15.719  0.1400  0.2618 -0.0341
33612W        W40212  16.077   1.105   5.753 -0.1759  0.3143  0.0947
33613W        W40213   6.692   5.306   9.141 -0.0426  0.3455  0.0873
33614W        W40214  22.019   5.230  26.306 -0.1792 -0.0504  0.0171
33615W        W40215  19.262   6.649   2.038 -0.0475  0.1464  0.0249
33616W        W40216  24.766   0.774   3.941 -0.4403  0.2114  0.0633
33617W        W40217  16.438   0.156  10.753 -0.0819  0.3506 -0.0580
33618W        W40218  11.227   3.932   1.968  0.0594  0.4446  0.1792
33619W        W40219  14.836   7.826  29.794  0.0358  0.3216 -0.2055
33620W        W40220   8.012   1.549  24.984  0.1321  0.0009  0.1792
33621W        W40221   4.416   6.806  23.680 -0.1336  0.1760 -0.4076
33622W        W40222  12.559   7.516  14.063  0.0779  0.2224  0.0925
33623W        W40223  10.456   6.633   2.247  0.1418 -0.1558 -0.2153
33624W        W40224  22.846   3.490  25.641 -0.1886 -0.1391 -0.0429
33625W        W40225   6.515   1.407  18.017  0.2963 -0.0303 -0.3771
33626W        W40226   8.926   2.312  11.121  0.2299  0.3451  0.1373
33627W        W40227  20.935   3.040  23.309  0.3304  0.1944 -0.1062
33628W        W40228   9.419   6.263  15.955 -0.0499  0.0967  0.1783
33629W        W40229   7.274   5.945  26.626 -0.1448  0.0464 -0.0275
33630W        W40230   9.422   0.331  14.872  0.0259  0.1188 -0.2031
33631W        W40231  17.028   1.312   5.922  0.1722 -0.1001  0.1257
33632W        W40232   5.550   5.215  28.663  0.0649  0.2400  0.1361
33633W        W40233  22.277   1.681  17.533 -0.3618 -0.1387  0.1017
33634W        W40234  22.356   6.539   0.932 -0.1945  0.2355 -0.4233
33635W        W40235   4.300   2.370   9.804 -0.4012  0.0682  0.0536
33636W        W40236  11.093   5.456  31.651  0.1390 -0.0948 -0.4048
33637W        W40237   0.646   2.940   4.405  0.1599 -0.2479  0.0965
33638W        W40238  20.427   5.675   8.275 -0.3268  0.1585  0.2291
33639W        W40239  21.901   5.488   6.252  0.0561 -0.1446 -0.0905
33640W        W40240  20.486   5.862  18.397  0.1710  0.2209 -0.0465
33641W        W40241   9.083   4.153  15.556 -0.2023 -0.0275 -0.0743
33642W        W40242   5.310   3.010   3.515 -0.2654  0.0202  0.1808
33643W        W40243   1.131   6.313  28.671 -0.0807  0.3639 -0.0045
33644W        W40244  19.874   3.320   9.683 -0.1579  0.0911  0.0108
33645W        W40245  23.583   4.253  21.971  0.1342  0.5284 -0.1005
33646W        W40246  24.915   4.888  25.399  0.3381 -0.3665 -0.1576
33647W        W40247  15.567   0.935  26.890  0.2049 -0.1509  0.1459
33648W        W40248   1.751   4.879   9.163  0.1732 -0.1101  0.0454
33649W        W40249  12.477   5.794  10.093 -0.1146  0.1423 -0.0407
33650W        W40250  18.744   7.790   4.947 -0.1490  0.0165 -0.0379
33651W        W40251  21.564   7.311   4.520 -0.1783 -0.1647 -0.2072
33652W        W40252  22.318   3.345  24.120  0.1658 -0.0577 -0.3578
33653W        W40253  11.239   4.340  13.635 -0.2181  0.1893 -0.2062
33654W        W40254  11.083   5.546  27.942  0.1650  0.0775  0.1205
33655W        W40255  16.530   2.882  18.167  0.0690  0.2037 -0.1078
33656W        W40256  14.647   5.376  10.094  0.5028  0.0572  0.2545
33657W        W40257  19.901   0.402   6.827 -0.2190  0.0199 -0.1002
33658W        W40258  24.396   5.363  11.712  0.3861 -0.0556  0.0489
33659W        W40259   2.138   0.620   0.716  0.1765  0.0156 -0.0787
33660W        W40260  10.554   5.749  11.141  0.2384  0.0980  0.1561
33661W        W40261  13.410   1.763   5.734  0.4016 -0.1395  0.1005
33662W        W40262  11.786   3.203  28.537 -0.0828 -0.0852 -0.1000
33663W        W40263   9.161   0.917  26.401  0.1041 -0.1613  0.0372
33664W        W40264   6.194   6.647  12.876 -0.1534 -0.0934 -0.2318
33665W        W40265   9.150   1.780  23.737  0.0807  0.1521 -0.1209
33666W        W40266   5.935   1.416   1.414 -0.0527 -0.0078 -0.2338
33667W        W40267   5.531   3.147  13.300  0.3886  0.1381  0.1852
33668W        W40268   6.241   5.318   3.986 -0.0841  0.1247 -0.0713
33669W        W40269   7.342   5.995  10.637 -0.1740  0.1162  0.2864
33670W        W40270   8.079   7.222   1.713  0.1653  0.0110  0.0713
33671W        W40271  11.623   1.318  23.108 -0.0614  0.1831 -0.2083
33672W        W40272   3.954   0.372  25.204  0.1725  0.1851  0.2155
33673W        W40273   7.058   4.164  14.176 -0.0245  0.2085  0.1496
33674W        W40274   7.779   0.779  17.719  0.0520  0.0610 -0.0304
33675W        W40275   0.506   5.829  10.725  0.2850  0.1449  0.0585
33676W        W40276  13.640   5.025  11.176  0.0588  0.1730 -0.0348
33677W        W40277  13.040   3.549  14.066 -0.1811 -0.0190  0.0162
33678W        W40278  13.355   0.108   6.687  0.2083  0.0350 -0.0325
33679W        W40279  24.881   4.914  22.023 -0.0599 -0.1358 -0.0753
33680W        W40280   2.956   7.041  11.045  0.4088  0.0449 -0.1944
33681W        W40281  12.992   0.506  28.393 -0.1854  0.0367  0.1721
33682W        W40282  12.259   2.298   9.681 -0.2425 -0.3422  0.0014
33683W        W40283  10.953   4.967  32.523 -0.2866  0.1812  0.3426
33684W        W40284  11.183   1.961  14.544 -0.2435 -0.0233  0.2144
33685W        W40285  21.033   6.152   0.778  0.1324 -0.2472  0.1182
33686W        W40286   8.653   0.710  17.225  0.0088 -0.0810  0.0348
33687W        W40287  22.534   4.498   9.475 -0.0892  0.1071  0.4434
33688W        W40288   0.785   0.634  28.189  0.2319 -0.0310  0.0330
33689W        W40289  21.274   3.316  15.619  0.0553 -0.1015  0.0690
33690W        W40290  22.405   3.832   1.475  0.0311  0.1845 -0.0733
33691W        W40291  17.070   3.019  24.305 -0.2861 -0.1385 -0.1894
33692W        W40292  18.960   1.516  32.016  0.0076  0.0355  0.1025
33693W        W40293   6.939   6.946  27.893 -0.1334  0.1301  0.4041
33694W        W40294  18.262   1.278  21.697 -0.1591 -0.0967 -0.1103
33695W        W40295   2.658   5.872   6.144 -0.2037  0.1865 -0.2327
33696W        W40296   3.922   3.540  21.603 -0.0968 -0.2687 -0.1056
33697W        W40297   5.206   5.789   6.908 -0.1672 -0.0275  0.1295
33698W        W40298  22.242   1.061   7.458 -0.1359  0.2280 -0.0551
33699W        W40299   9.328   6.360  31.464  0.2303  0.1080  0.1224
33700W        W40300  14.733   4.692  13.367 -0.0321  0.0283  0.0626
33701W        W40301   5.621   7.442  27.620 -0.2304  0.1229 -0.0795
33702W        W40302  21.113   6.291  20.667  0.1361  0.2427 -0.3862
33703W        W40303   4.372   2.797   2.431  0.2108 -0.0645  0.0927
33704W        W40304  12.984   1.088  12.437 -0.2100 -0.1229 -0.0728
33705W        W40305   0.925   5.207  25.941 -0.1173 -0.0853 -0.3625
33706W        W40306  13.828   3.192  11.277  0.0558  0.0656 -0.2418
33707W        W40307  16.103   3.638   6.244 -0.2092  0.0698  0.1297
33708W        W40308  22.327   4.621  28.693 -0.1046  0.3893 -0.1520
33709W        W40309  20.127   2.195  30.424 -0.0803  0.1307  0.0997
33710W        W40310   9.338   6.000   2.412 -0.1894 -0.4322  0.1781
33711W        W40311  14.408   5.220  11.138  0.0962 -0.1112 -0.2325
33712W        W40312   2.198   2.909   2.689  0.1631 -0.0176 -0.1722
33713W        W40313  18.959   1.272  22.966  0.0892 -0.1342 -0.1079
33714W        W40314  22.704   3.108  24.814 -0.0738  0.2406 -0.0032
33715W        W40315  17.518   1.706  29.990 -0.2717  0.1553 -0.0256
33716W        W40316  11.717   4.709  29.193 -0.3119  0.1484 -0.0129
33717W        W40317  16.179   3.069   2.093  0.1013 -0.1896 -0.0673
33718W        W40318   6.237   3.251  12.590  0.0241  0.0501 -0.2837
33719W        W40319  21.586   4.048  25.103 -0.2020  0.3172 -0.0758
33720W        W40320  22.326   5.416  32.141  0.1257 -0.0782  0.0759
33721W        W40321  20.428   4.568  23.194  0.0393 -0.0403  0.1324
33722W        W40322  15.793   4.146  11.081  0.0306 -0.1278 -0.1098
33723W        W40323  24.799   6.345  22.291  0.1138 -0.2357 -0.0060
33724W        W40324   5.565   3.127  15.468  0.0948 -0.4860  0.0531
33725W        W40325  18.727   1.316   5.304 -0.1692 -0.0935  0.1149
33726W        W40326   9.319   7.511   0.893 -0.1556 -0.1412 -0.5111
33727W        W40327   6.959   0.450  28.912  0.3181 -0.1586 -0.3603
33728W        W40328   2.439   3.075   0.314 -0.1674 -0.2151 -0.0501
33729W        W40329  13.922   3.187  22.252 -0.1321  0.1791  0.0751
33730W        W40330   1.126   2.076   0.296 -0.0682  0.0519 -0.1824
33731W        W40331  16.351   4.028   8.170 -0.1495  0.1013 -0.1747
33732W        W40332   8.541   4.648  30.043  0.2046  0.3240  0.3085
33733W        W40333   1.191   4.749   7.796  0.1501 -0.1799  0.0889
33734W        W40334   7.195   4.807  26.203  0.2370  0.1425  0.1293
33735W        W40335   0.011   7.823  18.801  0.2985  0.2610 -0.1800
33736W        W40336  24.898   3.741   5.186 -0.3384  0.2674 -0.3543
33737W        W40337  14.136   2.663   7.164 -0.4418  0.0160 -0.3474
33738W        W40338  17.457   0.273  28.616  0.0870  0.0722 -0.3119
33739W        W40339  17.110   5.833   0.955  0.2106  0.1997 -0.0339
33740W        W40340  13.255   6.632  24.106  0.2105 -0.3072 -0.0773
33741W        W40341  10.119   5.634   2.671 -0.1588  0.1008  0.0890
33742W        W40342  13.778   6.399  15.055 -0.2834  0.0809  0.0739
33743W        W40343  23.700   1.338  23.289 -0.0770 -0.1711 -0.2894
33744W        W40344  17.165   2.450   4.005 -0.0237 -0.0768  0.3528
33745W        W40345  21.178   4.397   3.728  0.0271 -0.0858  0.0971
33746W        W40346  12.158   1.085   8.812  0.1915 -0.1082  0.0125
33747W        W40347   8.430   1.749  24.857 -0.1305 -0.2346 -0.3463
33748W        W40348  14.961   0.601  12.332 -0.0082  0.4321  0.4390
33749W        W40349  24.225   2.589  18.137 -0.0302 -0.0690  0.3966
33750W        W40350   5.263   3.972  10.654 -0.0882 -0.3531  0.0651
33751W        W40351  12.438   0.449  23.998  0.0507  0.3377  0.0226
33752W        W40352   9.932   5.124  13.655  0.0509 -0.0009 -0.0623
33753W        W40353  17.773   7.329  30.704 -0.2646  0.0357 -0.0934
33754W        W40354   5.678   1.167  22.791  0.2750 -0.1666 -0.3681
33755W        W40355   8.225   4.328   3.820 -0.3519  0.1631 -0.2954
33756W        W40356   3.132   4.306  30.735 -0.0908  0.3419  0.1030
33757W        W40357   5.002   0.620  26.653  0.0397 -0.1599  0.2751
33758W        W40358   2.000   0.624   7.462  0.0887 -0.0392  0.2203
33759W        W40359  14.553   3.664  22.532 -0.0707  0.2856  0.1929
33760W        W40360   7.166   0.938   8.250  0.0364  0.1682 -0.0542
33761W        W40361  21.141   5.612   1.650 -0.2562  0.1704 -0.3763
33762W        W40362   5.514   3.013  27.832  0.0679  0.0130  0.1759
33763W        W40363  24.134   5.564   7.613  0.0844  0.0670  0.1526
33764W        W40364  18.557   2.462  27.289  0.1366 -0.0763  0.1054
33765W        W40365  12.962   2.486  14.709 -0.1679 -0.2137  0.0058
33766W        W40366  15.468   0.960   0.872  0.0624 -0.0871  0.0824
33767W        W40367  14.896   6.937  31.934 -0.2470 -0.0508 -0.2303
33768W        W40368   5.196   7.378   3.995 -0.0463  0.0094  0.1299
33769W        W40369  11.151   0.360  13.586 -0.0247 -0.1467 -0.0984
33770W        W40370  21.100   4.693   9.441 -0.2726  0.0717  0.2557
33771W        W40371  10.455   6.315   5.239  0.1725 -0.0699  0.0045
33772W        W40372  24.439   5.113  20.107  0.0043  0.0044  0.2660
33773W        W40373  11.609   7.274  30.264  0.0555  0.2357 -0.0516
33774W        W40374  20.591   3.967   9.649 -0.0942  0.1350  0.0103
33775W        W40375   1.511   5.974   8.570 -0.0593 -0.0217  0.3831
33776W        W40376   8.726   4.423  27.456  0.2689  0.0297 -0.1666
33777W        W40377  23.137   4.460   8.710 -0.0287  0.2344 -0.0505
33778W        W40378   6.607   3.896   5.848 -0.0007 -0.2632  0.0330
33779W        W40379   5.124   6.909   4.431 -0.2457 -0.0809 -0.2580
33780W        W40380  22.365   7.629  14.878  0.1169 -0.0026  0.0325
33781W        W40381   9.880   2.284   0.206 -0.0418  0.6236 -0.0297
33782W        W40382   1.446   7.551   7.950  0.2747 -0.1957  0.1595
33783W        W40383   7.246   6.615   2.662 -0.0281  0.0976  0.1728
33784W        W40384  15.110   3.808   9.126  0.2688 -0.0884  0.2351
33785W        W40385  17.306   3.852   7.964 -0.1687 -0.0388  0.0541
33786W        W40386  12.401   3.999   2.956 -0.2837  0.4644 -0.1940
33787W        W40387  17.023   4.487   0.672 -0.1446  0.0408  0.0581
33788W        W40388  23.077   6.713  25.600  0.0868 -0.0530 -0.0625
33789W        W40389  15.242   3.804  30.713 -0.0509  0.1657  0.0516
33790W        W40390   6.783   3.918  17.265 -0.1697  0.3505  0.1441
33791W        W40391  19.668   6.078   7.022  0.0752  0.2174  0.1395
33792W        W40392  11.680   2.568  13.376  0.0436 -0.0822  0.3435
33793W        W40393  23.818   6.281  10.536 -0.2037  0.3517  0.1160
33794W        W40394  24.741   2.625   0.101 -0.1171  0.1035  0.1649
33795W        W40395  17.566   5.474   2.897  0.1335 -0.0680 -0.0598
33796W        W40396   5.225   1.740  11.022  0.1661  0.1413 -0.1075
33797W        W40397   0.423   6.928   6.070 -0.0948 -0.1016 -0.2284
33798W        W40398   0.919   6.076  10.675 -0.3619 -0.2138  0.1149
33799W        W40399   8.559   3.558   5.955  0.1801  0.1602  0.1628
33800W        W40400   1.522   0.803   1.172  0.2173 -0.1053  0.0127
33801W        W40401  18.413   3.043  10.301 -0.1709 -0.3149  0.1502
33802W        W40402   7.458   2.960  31.310 -0.0493  0.1847  0.5323
33803W        W40403  13.150   4.940  12.479 -0.2553 -0.4257  0.2985
33804W        W40404   8.227   4.445   4.833  0.0456  0.1138  0.0623
33805W        W40405  15.436   1.931   5.093  0.0091  0.0584  0.1580
33806W        W40406   0.707   5.727  28.376  0.0538  0.1154  0.0238
33807W        W40407   8.144   2.930  11.614 -0.1570 -0.1981  0.1101
33808W        W40408  14.379   2.438  11.259  0.0290 -0.2275 -0.2313
33809W        W40409  12.521   4.715  14.555 -0.0163  0.0076  0.1766
33810W        W40410   3.201   1.564  27.786 -0.0665 -0.2271  0.0521
33811W        W40411  22.547   2.297  28.289 -0.0623 -0.2118  0.0060
33812W        W40412  13.246   7.089   5.218 -0.1024 -0.1341  0.2973
33813W        W40413  24.247   6.608   8.559 -0.0881  0.0993 -0.1544
33814W        W40414   2.243   4.951   0.580  0.1257  0.0149  0.1032
33815W        W40415  10.733   2.276  30.132  0.0891 -0.1620 -0.0342
33816W        W40416  12.830   3.715  28.058 -0.0788  0.1242 -0.0217
33817W        W40417  15.722   0.333  25.160 -0.1238 -0.0846  0.1174
33818W        W40418   9.668   7.346  24.881  0.0747  0.1787 -0.0042
33819W        W40419  10.020   6.503  13.990 -0.3168 -0.1646  0.0170
33820W        W40420   9.567   6.009   8.425 -0.3613  0.0215 -0.2113
33821W        W40421  16.339   4.489  32.080 -0.1137 -0.2439 -0.0682
33822W        W40422  22.289   2.829  30.843 -0.1529  0.0914 -0.0199
33823W        W40423   5.553   2.692  22.227  0.2690  0.1122  0.1979
33824W        W40424  22.414   3.794  27.346  0.3142  0.1205  0.1269
33825W        W40425  13.444   1.990  28.389 -0.3057  0.0991 -0.1652
33826W        W40426  19.742   2.304   9.284  0.0249 -0.1385  0.0050
33827W        W40427  16.896   1.008  10.713  0.2546  0.2877 -0.1236
33828W        W40428  22.979   1.805   1.896  0.0867 -0.1241 -0.0867
33829W        W40429   0.071   5.113  18.897  0.0686 -0.0979 -0.1897
33830W        W40430   3.138   0.085  30.355  0.2678 -0.2895 -0.0179
33831W        W40431   7.879   3.676  12.024  0.1163 -0.0169 -0.0303
33832W        W40432  13.046   3.248  31.852 -0.0420  0.0353  0.1586
33833W        W40433   2.848   2.764  27.016 -0.0265  0.2406  0.2445
33834W        W40434  18.113   0.403  18.388 -0.2471 -0.0372  0.1464
33835W        W40435  10.836   5.475   5.559 -0.1631 -0.2355  0.2368
33836W        W40436   9.256   4.240   9.710  0.0188 -0.1266  0.0412
33837W        W40437   5.128   0.436  25.648 -0.1981  0.0281  0.0937
33838W        W40438   4.340   3.331  26.166 -0.2428  0.0107  0.2818
33839W        W40439  24.339   5.919  19.247  0.0548 -0.3249 -0.1344
33840W        W40440  15.899   0.999  30.190 -0.0105  0.0842  0.0163
33841W        W40441  14.011   0.455  28.754 -0.1318 -0.0181 -0.1414
33842W        W40442   6.475   6.898  27.980  0.0857 -0.4375  0.1822
33843W        W40443  11.739   6.050  21.768 -0.2332 -0.1349 -0.2527
33844W        W40444  21.442   7.136   9.848  0.0403 -0.3655  0.1802
33845W        W40445  14.701   7.744  12.839  0.2465  0.0616  0.0733
33846W        W40446   5.185   3.113  24.404 -0.0963  0.1972  0.1798
33847W        W40447  11.959   4.724  12.341  0.1396 -0.0500 -0.0860
33848W        W40448  23.355   4.192  24.088  0.0957 -0.1372  0.0388
33849W        W40449  11.180   3.889   4.512  0.2894  0.2960  0.2230
33850W        W40450  16.810   1.695  29.718 -0.0676  0.0191  0.0278
33851W        W40451  13.031   1.810  28.166  0.1521  0.0406  0.0154
33852W        W40452  19.639   3.142  30.766  0.0244  0.0785 -0.1992
33853W        W40453   5.117   0.149  14.602  0.2996 -0.2623 -0.0613
33854W        W40454   7.451   3.968  15.700  0.0046 -0.3062 -0.3764
33855W        W40455  18.393   4.837  15.346  0.0819  0.0711 -0.0136
33856W        W40456  13.472   0.831   3.485 -0.1122  0.0141 -0.3427
33857W        W40457  10.564   3.263  11.092  0.1715  0.0422 -0.0940
33858W        W40458   2.888   3.658   6.384  0.1810 -0.2789  0.2208
33859W        W40459   4.458   4.474  28.884  0.0563 -0.0512 -0.3324
33860W        W40460  13.341   0.555  13.921  0.1060 -0.1298 -0.0745
33861W        W40461  10.522   2.799  11.382 -0.1602 -0.0814 -0.0850
33862W        W40462   6.150   5.659  14.662  0.1680 -0.0174  0.3215
33863W        W40463  10.431   6.055   9.481  0.2635 -0.2023 -0.0553
33864W        W40464   6.108   0.745   3.976  0.1025  0.1678  0.1558
33865W        W40465  12.429   0.877  23.235 -0.1414  0.0427 -0.3328
33866W        W40466  23.625   6.153  29.962  0.1912 -0.0545 -0.1013
33867W        W40467   4.706   4.569  16.394  0.3482 -0.1404 -0.1858
33868W        W40468   9.549   6.461  14.051  0.1205 -0.0316  0.1625
33869W        W40469  24.059   6.739  10.361  0.0284 -0.2049 -0.2652
33870W        W40470  22.036   3.512  15.583 -0.1905  0.0371 -0.0791
33871W        W40471  24.351   6.457   9.784  0.1489 -0.0313  0.0342
33872W        W40472  16.084   5.072  28.698  0.1990 -0.0802 -0.0666
33873W        W40473  16.290   7.335  27.377  0.1075  0.0123  0.0836
33874W        W40474  16.174   1.391  22.800  0.1393 -0.2713 -0.1401
33875W        W40475  19.197   2.147  17.081 -0.0814 -0.4080  0.0400
33876W        W40476   1.773   0.072  26.855 -0.0048  0.1809 -0.2378
33877W        W40477  19.415   4.561  31.441  0.0608 -0.0257 -0.0046
33878W        W40478   3.753   4.474  29.491  0.1050  0.2313  0.0993
33879W        W40479   6.087   3.404  31.356  0.0135  0.0728  0.0966
33880W        W40480  14.265   4.998  13.315 -0.3489  0.3084 -0.0383
33881W        W40481   8.435   1.532   6.139 -0.1220 -0.0143 -0.0021
33882W        W40482  15.656   3.360  10.739  0.1089 -0.0954  0.1338
33883W        W40483  14.790   6.798  25.964 -0.0736 -0.2439 -0.2574
33884W        W40484   4.946   4.946  12.271  0.0465  0.1059  0.2703
33885W        W40485   9.521   5.053  26.731  0.0347 -0.1507 -0.0590
33886W        W40486  21.609   5.327  31.158 -0.1576 -0.1229 -0.1433
33887W        W40487  11.846   6.458   9.900 -0.3117  0.0260 -0.0381
33888W        W40488  19.943   6.175   5.623 -0.3189  0.1377 -0.0357
33889W        W40489   6.824   0.286  26.942 -0.2309  0.0172  0.1114
33890W        W40490  24.484   4.252  23.996 -0.0834  0.1068 -0.1632
33891W        W40491   2.660   2.727  25.333 -0.1830 -0.1570 -0.2426
33892W        W40492   5.778   5.295   0.937  0.1387 -0.0406  0.0184
33893W        W40493   5.477   1.529   0.021 -0.0370  0.1134  0.5454
33894W        W40494  11.041   1.161  12.348  0.0808  0.4061  0.2532
33895W        W40495   1.013   5.214  27.739  0.3702  0.1599 -0.0778
33896W        W40496  16.597   1.094   4.978  0.0038  0.2206 -0.1198
33897W        W40497  21.002   4.844   8.980 -0.0051 -0.2508 -0.2628
33898W        W40498  16.960   7.550  18.576 -0.0247  0.0622 -0.1310
33899W        W40499  11.062   1.303  27.348 -0.2860 -0.2178 -0.0185
33900W        W40500  15.009   7.767   8.725  0.0470 -0.0564  0.3367
33901W        W40501   3.526   7.537  25.638  0.1524 -0.0694 -0.1277
33902W        W40502  12.239   1.097  11.297  0.0620 -0.0873 -0.1979
33903W        W40503   3.882   2.487  27.787  0.0226 -0.0414 -0.0368
33904W        W40504  22.593   2.075  25.949  0.0864 -0.1738 -0.1938
33905W        W40505   3.015   1.651  20.230 -0.0719  0.2828  0.1352
33906W        W40506  15.954   0.903  18.481 -0.2115  0.0052 -0.0047
33907W        W40507  24.705   1.068  28.870  0.2449  0.2068  0.0044
33908W        W40508  11.177   4.156   8.123  0.1073  0.0145 -0.3234
33909W        W40509   2.159   6.554  12.600  0.0868 -0.0299  0.2989
33910W        W40510   0.423   4.232  25.099 -0.1672  0.0280  0.2059
33911W        W40511  13.383   1.135  13.258 -0.0395 -0.0199  0.2454
33912W        W40512  12.367   0.975  12.239 -0.1714 -0.2103  0.0420
33913W        W40513   7.130   3.580  13.035 -0.1945  0.2307  0.1155
33914W        W40514   3.638   2.655  28.187 -0.1149 -0.3244  0.0213
33915W        W40515  10.842   3.589   2.690  0.3546  0.0973  0.0593
33916W        W40516  21.284   5.168   1.951  0.1398 -0.0413 -0.0776
33917W        W40517  11.066   7.012  11.933 -0.0588  0.0435  0.1651
33918W        W40518  18.787   5.336   8.457  0.2217  0.3251  0.1125
33919W        W40519  19.078   7.210  23.204 -0.1854 -0.2326  0.0276
33920W        W40520  10.155   3.140  31.860 -0.0328  0.0180 -0.0896
33921W        W40521  18.703   1.159  23.934 -0.2004  0.2507 -0.0319
33922W        W40522  17.032   0.765  27.809 -0.0972  0.0677  0.2650
33923W        W40523  16.776   2.992  31.351  0.2963  0.0380  0.1211
33924W        W40524  22.339   0.310  31.558 -0.1295 -0.0580  0.0833
33925W        W40525   0.355   3.434   7.295  0.1698  0.0424  0.1255
33926W        W40526   7.748   2.899  32.685  0.0878  0.0526  0.3077
33927W        W40527   0.346   2.775  30.700  0.4370  0.0723 -0.2402
33928W        W40528  10.364   6.295   1.712 -0.0235  0.1847  0.2578
33929W        W40529  10.905   0.401   9.329 -0.0271  0.0822 -0.1072
33930W        W40530   0.488   4.260   6.224  0.0692 -0.4859 -0.3765
33931W        W40531  19.186   0.558   5.643 -0.0082 -0.1766 -0.0336
33932W        W40532  17.058   6.890  30.437  0.2800  0.1136  0.0488
33933W        W40533  15.254   7.717  26.990  0.1277 -0.0103 -0.0589
33934W        W40534  16.963   2.131  30.095  0.1299 -0.2226  0.1437
33935W        W40535   6.984   6.524  29.128  0.0218 -0.1555  0.1364
33936W        W40536  19.242   2.603  31.565 -0.1295 -0.0745 -0.3890
33937W        W40537  13.339   6.601  30.135  0.0776  0.0334  0.0950
33938W        W40538   8.983   4.475  14.950  0.0569  0.0085 -0.1189
33939W        W40539  12.159   5.057  30.944  0.1324 -0.1984  0.2037
33940W        W40540  21.946   6.963  30.062  0.0219 -0.1167  0.1052
33941W        W40541  24.176   4.606  24.671  0.2757  0.1179 -0.0730
33942W        W40542   5.708   7.128  28.904  0.1346  0.2311  0.3627
33943W        W40543  13.583   7.718  11.313 -0.0673 -0.2529  0.1284
33944W        W40544  22.762   3.617  16.001  0.0673  0.2051  0.0309
33945W        W40545  23.752   3.210  23.651  0.1735  0.3117 -0.2272
33946W        W40546   4.085   0.010  27.553 -0.1131 -0.0505 -0.0293
33947W        W40547   7.404   7.177  18.011  0.1050 -0.0164  0.0521
33948W        W40548  17.911   2.170  19.992  0.3401 -0.1875  0.2331
33949W        W40549   3.535   1.396   2.345  0.0322  0.2103  0.1210
33950W        W40550  11.462   2.121  11.461  0.0786 -0.1567 -0.0732
33951W        W40551   1.950   1.490  22.212  0.3531 -0.2725 -0.2876
33952W        W40552  13.822   0.031  12.282 -0.0474 -0.0310 -0.0025
33953W        W40553  18.983   6.434   8.585  0.1418  0.1228  0.1921
33954W        W40554  22.186   2.870   6.871  0.1783 -0.2202 -0.2486
33955W        W40555  12.410   4.053  14.029  0.1367 -0.3613  0.0705
33956W        W40556   2.344   7.103   4.093 -0.0510 -0.1135  0.0145
33957W        W40557  11.144   3.996  31.306  0.3993 -0.0522 -0.0011
33958W        W40558  19.891   0.075   1.412 -0.0040 -0.2860  0.0427
33959W        W40559  14.423   1.928  24.340  0.0758  0.1045 -0.2507
33960W        W40560  17.106   6.169  12.178 -0.2090  0.2926  0.1848
33961W        W40561  11.197   0.283  10.080  0.1678 -0.2650 -0.1566
33962W        W40562   0.422   5.320  32.517 -0.0082 -0.3518  0.0813
33963W        W40563  24.533   2.074  23.878 -0.0844  0.2883 -0.1452
33964W        W40564  12.997   5.724  11.035  0.0442  0.2801  0.0332
33965W        W40565  19.239   4.923  16.513 -0.0001  0.0942  0.1329
33966W        W40566   7.080   1.610  29.265 -0.0644 -0.0825  0.2132
33967W        W40567  21.809   7.130  16.583  0.1058 -0.3202 -0.2247
33968W        W40568  18.187   3.550  24.102  0.0481  0.1076 -0.0650
33969W        W40569  23.368   0.127   0.223 -0.2646 -0.0895  0.0320
33970W        W40570   7.849   5.940   6.784  0.0315 -0.0736  0.0547
33971W        W40571   9.084   3.534   8.387 -0.1954  0.0461 -0.0572
33972W        W40572  12.626   4.161   9.129 -0.1154 -0.0043  0.0253
33973W        W40573  17.701   4.756  28.899 -0.0558 -0.3697 -0.1941
33974W        W40574  21.961   6.022  18.003 -0.1882  0.2712  0.0562
33975W        W40575  22.461   1.586  21.018  0.0620 -0.0500  0.1856
33976W        W40576  11.503   6.727  25.073 -0.1453  0.0807 -0.0035
33977W        W40577   9.032   2.089  31.560  0.0467 -0.3575 -0.1297
33978W        W40578   5.505   6.351  32.430  0.4820  0.0409 -0.1260
33979W        W40579  22.369   4.112  26.971  0.2075 -0.0697  0.4107
33980W        W40580  19.769   3.723  15.374 -0.0469  0.0168 -0.0684
33981W        W40581   4.869   7.257   2.296  0.3043  0.1222 -0.2651
33982W        W40582  23.127   6.994  20.034  0.3711  0.2042  0.0075
33983W        W40583   8.243   4.084   8.026  0.0314 -0.0166 -0.0349
33984W        W40584  18.905   4.532  16.648  0.1836 -0.1010 -0.1192
33985W        W40585   6.175   5.197  10.996 -0.1203  0.5568 -0.3548
33986W        W40586   5.924   4.863   3.460 -0.2292  0.1912  0.0734
33987W        W40587   4.808   4.788  24.212 -0.5092  0.2082  0.0205
33988W        W40588  16.062   5.915  23.916  0.0333 -0.1651 -0.4129
33989W        W40589  20.825   3.850  25.690 -0.0203  0.1015 -0.0190
33990W        W40590   0.090   6.083  24.146 -0.0559 -0.3912  0.2256
33991W        W40591  10.265   1.230  31.454  0.0416  0.2065  0.0944
33992W        W40592   3.915   0.925  13.508 -0.0123  0.1940  0.0269
33993W        W40593   2.264   7.333  30.277 -0.2635 -0.2959  0.1529
33994W        W40594   9.790   6.766   3.998 -0.0713  0.0546 -0.3268
33995W        W40595   3.748   1.446  24.319 -0.1185  0.2371 -0.0900
33996W        W40596   8.763   5.370  26.696  0.0615 -0.0900  0.1084
33997W        W40597  19.707   5.891  23.615  0.1237 -0.0273  0.4401
33998W        W40598   0.481   3.936  30.226 -0.2221  0.0192  0.3001
33999W        W40599   9.764   3.738   5.125 -0.1638  0.1434 -0.1796
34000W        W40600   9.001   3.202  32.326  0.0469 -0.1142  0.0691
34001W        W40601   0.447   4.458  32.339  0.3561 -0.0425 -0.3728
34002W        W40602  22.233   6.982  29.196  0.1362  0.2232  0.2536
34003W        W40603  10.106   6.960   1.434 -0.1719  0.1313  0.4104
34004W        W40604  11.807   6.932  13.669 -0.1130  0.0063 -0.0048
34005W        W40605   2.389   2.230  28.522 -0.1730 -0.0541  0.0649
34006W        W40606  12.389   3.470  22.477  0.1490  0.0512  0.1395
34007W        W40607   8.561   0.638  14.398 -0.0464 -0.4369  0.0611
34008W        W40608   1.705   6.731   4.269  0.0419 -0.1066 -0.0442
34009W        W40609  10.558   7.148   4.166  0.1003  0.0948 -0.1904
34010W        W40610  17.495   2.070  17.404  0.0603  0.1333 -0.2083
34011W        W40611  14.714   7.653   2.123  0.0579 -0.0914 -0.0126
34012W        W40612  20.241   6.874   2.744 -0.0920 -0.0307 -0.0561
34013W        W40613  13.489   1.464  26.326  0.1829 -0.0033  0.2483
34014W        W40614   6.940   3.422  29.985 -0.2454  0.1342 -0.0792
34015W        W40615  21.791   5.706  26.441 -0.0731 -0.0571  0.1183
34016W        W40616   9.510   2.787  16.182 -0.0985  0.1505 -0.2153
34017W        W40617   4.389   5.157  10.804  0.0587  0.2263 -0.1835
34018W        W40618  16.521   7.244  31.529  0.0395  0.1293  0.2084
34019W        W40619  19.070   5.646   6.974 -0.1643 -0.1683 -0.1139
34020W        W40620   6.099   3.240   2.946  0.1102 -0.2864 -0.0612
34021W        W40621   2.777   2.024  32.236 -0.1594 -0.0432 -0.1838
34022W        W40622  20.267   4.088  28.888  0.0465  0.0968  0.2443
34023W        W40623   6.097   4.159  11.662  0.0326  0.0750 -0.1737
34024W        W40624   7.248   3.001  26.920  0.3177  0.0695 -0.0105
34025W        W40625   9.015   4.454   0.838  0.1270 -0.2774 -0.1169
34026W        W40626  17.784   3.331  16.735  0.0835 -0.2124  0.1837
34027W        W40627  23.868   1.173   6.695 -0.0489  0.0305  0.1361
34028W        W40628  23.821   1.131  18.987 -0.0402 -0.2187  0.1233
34029W        W40629  24.264   3.899  29.274 -0.0812 -0.1152  0.2665
34030W        W40630   9.310   1.128   4.762  0.0749  0.0754  0.3575
34031W        W40631   4.950   1.100  30.978  0.0753  0.0703  0.0287
34032W        W40632   5.875   1.383   7.468 -0.0817 -0.0778  0.0521
34033W        W40633   0.694   5.609  23.430 -0.1713  0.2682  0.1469
34034W        W40634  18.342   3.017  23.161  0.1473  0.0238 -0.1797
34035W        W40635  14.449   5.681  10.417  0.0238  0.1803  0.1469
34036W        W40636   6.833   3.035  23.166 -0.0364 -0.1433  0.0871
34037W        W40637   6.542   1.626   2.934  0.1967 -0.2200  0.0083
34038W        W40638  21.884   2.361   3.320  0.1362  0.3010 -0.0688
34039W        W40639   7.761   2.898   5.086 -0.0502  0.1785  0.1873
34040W        W40640  24.205   7.053  20.718 -0.0382  0.2684 -0.1870
34041W        W40641   4.631   5.426  11.114  0.0106  0.3433 -0.0555
34042W        W40642   1.712   0.795   7.109  0.2065  0.1986 -0.3466
34043W        W40643  10.955   6.020   3.752 -0.2621 -0.0284 -0.0892
34044W        W40644   0.308   0.643   0.234 -0.1672 -0.0773  0.1745
34045W        W40645  10.792   5.378  27.513  0.2303  0.1987  0.3285
34046W        W40646  23.742   2.607  24.873  0.0519  0.0764  0.0635
34047W        W40647  10.002   6.513  10.320 -0.2409 -0.0281 -0.1064
34048W        W40648   8.409   0.218  14.141 -0.0069 -0.0619  0.1120
34049W        W40649   0.787   2.750  28.710 -0.0459 -0.2897  0.2105
34050W        W40650  10.568   6.967  29.854 -0.0835  0.1576  0.0195
34051W        W40651  10.479   5.321  32.583  0.1229 -0.0569 -0.3896
34052W        W40652  21.488   7.145  15.467  0.3406 -0.0875  0.0114
34053W        W40653  15.086   1.850  30.486 -0.0546  0.2869  0.1420
34054W        W40654   6.931   5.357  11.552 -0.0426 -0.0947  0.0623
34055W        W40655  22.530   7.585   7.080 -0.1089 -0.1880  0.0832
34056W        W40656   6.115   0.742   0.227 -0.0720 -0.1688 -0.0518
34057W        W40657  14.791   0.491  23.046 -0.1297  0.0893  0.1340
34058W        W40658  16.182   1.509   5.024  0.3020 -0.1316 -0.0003
34059W        W40659  20.531   4.015  16.448 -0.1427 -0.0177 -0.0097
34060W        W40660  20.037   2.747  17.703  0.0770 -0.0050 -0.1002
34061W        W40661  13.072   7.036   2.882 -0.2282 -0.0577  0.1867
34062W        W40662  13.095   0.997   5.749  0.2078 -0.1231 -0.1373
34063W        W40663   3.708   2.349  29.127 -0.1607 -0.2487  0.1724
34064W        W40664  18.894   6.779  28.598  0.1193 -0.0771  0.0801
34065W        W40665  18.730   7.362  31.630  0.0559  0.0161  0.0173
34066W        W40666  24.709   2.444   9.468  0.0050  0.1661  0.0313
34067W        W40667   9.200   6.591  18.690  0.2399  0.0871  0.0225
34068W        W40668  13.102   7.820  31.585  0.0836 -0.0196  0.0791
34069W        W40669   7.186   3.410  11.670 -0.1795  0.1605 -0.0542
34070W        W40670   7.454   3.639   5.372  0.1872  0.0621  0.4758
34071W        W40671  19.147   4.078  16.874  0.1388 -0.1646  0.2192
34072W        W40672  12.111   3.872   2.568  0.1418 -0.0380  0.4393
34073W        W40673   3.885   2.594  10.606 -0.0219 -0.0856  0.1103
34074W        W40674   5.587   3.505  22.579 -0.1335 -0.0423  0.1607
34075W        W40675  10.579   0.914  14.201  0.1245  0.0835  0.1462
34076W        W40676  18.628   5.931  23.580 -0.2633 -0.1931 -0.1887
34077W        W40677  23.480   1.704   2.089 -0.2266  0.1692  0.3193
34078W        W40678  10.826   7.128  26.993 -0.1557 -0.0561 -0.0180
34079W        W40679  20.671   3.093  28.264 -0.1388 -0.0324  0.0246
34080W        W40680  10.743   5.352  17.115  0.2483 -0.1072  0.2323
34081W        W40681  12.141   4.351  13.493 -0.0271 -0.0687  0.2472
34082W        W40682  21.663   6.001  28.387 -0.0221  0.1113 -0.0972
34083W        W40683  18.728   6.749   6.708 -0.1246 -0.0853  0.0272
34084W        W40684  20.339   3.488   9.791  0.2256  0.0692 -0.2002
34085W        W40685   1.936   1.194   9.982 -0.0139 -0.0937 -0.2029
34086W        W40686   1.781   6.052  21.942 -0.0289 -0.1689  0.3160
34087W        W40687   3.416   4.988  24.714 -0.0512 -0.3341 -0.2295
34088W        W40688   6.298   0.641  15.155  0.3629  0.0524 -0.0542
34089W        W40689  17.136   7.064   7.688 -0.3964 -0.1913 -0.1238
34090W        W40690  15.376   4.464   9.568 -0.4084  0.0222  0.2777
34091W        W40691  23.675   5.461   9.868  0.2956  0.1231  0.1034
34092W        W40692   5.440   3.401  26.327 -0.2091 -0.1688  0.2766
34093W        W40693   8.153   7.454   8.296  0.0356 -0.1807  0.0526
34094W        W40694  11.315   7.297   6.420  0.2137 -0.0794  0.0677
34095W        W40695  21.331   3.372   5.878 -0.0428  0.2031  0.3287
34096W        W40696  21.425   7.789  28.727 -0.1641  0.0345  0.1004
34097W        W40697   3.328   5.409  22.317  0.0297  0.0427 -0.2615
34098W        W40698   7.740   6.351   9.845  0.2284  0.0716  0.2768
34099W        W40699   8.146   4.984  28.119  0.1492 -0.1480  0.0675
34100W        W40700   2.399   5.766  23.052 -0.0384  0.1345 -0.1049
34101W        W40701  17.040   3.679  26.509  0.3829 -0.1694  0.1609
34102W        W40702  11.938   4.404  14.890 -0.1409 -0.2272 -0.1610
34103W        W40703  23.563   2.604  18.634 -0.0416  0.1177  0.0752
34104W        W40704   5.118   5.874   2.035 -0.1325  0.3364  0.1490
34105W        W40705  24.472   2.468   2.597 -0.2048 -0.0627  0.1105
34106W        W40706   8.797   4.017  23.579  0.1612 -0.1580 -0.0394
34107W        W40707   4.374   2.696  28.760  0.4192 -0.0970 -0.0732
34108W        W40708  21.130   3.087   8.389 -0.1417 -0.2316 -0.1017
34109W        W40709  24.713   2.858  24.329 -0.0315 -0.0337 -0.1360
34110W        W40710  22.708   6.691   3.657  0.1686 -0.2037  0.3188
34111W        W40711  20.574   3.357  22.579 -0.1114  0.1001 -0.1203
34112W        W40712   1.967   6.894  20.829 -0.0200  0.2168 -0.0522
34113W        W40713   5.653   3.077  14.907  0.2333 -0.1496  0.1272
34114W        W40714  15.456   7.682  11.315  0.0330 -0.1404 -0.0540
34115W        W40715  17.907   2.813  27.437 -0.0698  0.0964  0.2315
34116W        W40716   4.013   7.126  10.572 -0.3292 -0.2855  0.0050
34117W        W40717  10.191   5.513   7.736 -0.7868  0.1029  0.0546
34118W        W40718   4.185   0.898   8.063  0.4726  0.1547 -0.1145
34119W        W40719   6.250   2.990  23.216 -0.3310 -0.4015 -0.1019
34120W        W40720  14.112   0.258  31.088 -0.3684  0.1628 -0.0435
34121W        W40721   0.695   3.883  24.297  0.3846  0.1395  0.1278
34122W        W40722  13.072   2.601  31.867  0.1835 -0.0259 -0.3892
34123W        W40723  17.597   7.312   7.020 -0.1362 -0.1725 -0.3311
34124W        W40724   2.902   7.568   7.015  0.2212 -0.3852 -0.5513
34125W        W40725  10.224   3.999  27.947 -0.0047 -0.1164 -0.0686
34126W        W40726   1.592   5.093  11.796  0.5031 -0.1719  0.4154
34127W        W40727   0.128   1.657  26.287 -0.2115 -0.1490  0.1429
34128W        W40728   7.862   7.459  16.951 -0.0009  0.2184 -0.0445
34129W        W40729  11.906   1.823   7.078 -0.0516 -0.0569  0.1091
34130W        W40730  11.193   6.253   2.248  0.0600 -0.1584  0.1556
34131W        W40731  10.941   7.526  27.343  0.0164 -0.1534 -0.0799
34132W        W40732   6.788   6.391  31.888 -0.0335  0.2302 -0.1579
34133W        W40733   4.511   1.684  16.154 -0.3365  0.1272  0.2609
34134W        W40734   7.882   1.380  32.310 -0.1466 -0.1676 -0.3542
34135W        W40735  23.937   4.203  26.289 -0.0461 -0.3967  0.0222
34136W        W40736   6.147   2.141  22.001 -0.0805  0.0301 -0.0668
34137W        W40737   8.259   5.537  16.644 -0.0392 -0.1782  0.1851
34138W        W40738  21.908   5.008  24.555 -0.0729  0.3765  0.0055
34139W        W40739  21.134   5.354   4.198 -0.0665 -0.0869 -0.3833
34140W        W40740   5.706   6.806   6.072 -0.1538 -0.2221 -0.5587
34141W        W40741  14.145   4.629  20.622 -0.0888 -0.1115 -0.0863
34142W        W40742  18.605   4.724  21.674  0.0568  0.0388 -0.0722
34143W        W40743  15.829   7.662  31.265  0.1031 -0.2184 -0.0791
34144W        W40744  13.164   1.429  31.301  0.1072  0.1066 -0.0913
34145W        W40745  20.969   7.118  25.488  0.3665 -0.0145 -0.0373
34146W        W40746  22.559   1.335  30.934  0.0421  0.1730 -0.1250
34147W        W40747  17.474   3.419   0.655  0.0171  0.0625 -0.2327
34148W        W40748  21.477   0.795  23.302 -0.1537  0.0897 -0.3111
34149W        W40749  24.093   2.964  31.753 -0.1248 -0.1889  0.0607
34150W        W40750   1.329   5.394  22.650  0.1788 -0.1586  0.2717
34151W        W40751   6.289   6.372   0.129 -0.1510 -0.0386 -0.2942
34152W        W40752  14.379   5.301  11.732 -0.1063  0.0115 -0.1199
34153W        W40753  11.683   6.110  11.400  0.0553 -0.1243 -0.2668
34154W        W40754   6.477   6.177  23.719  0.0933  0.0223  0.1611
34155W        W40755  10.738   6.066   0.401  0.1245  0.1015  0.3067
34156W        W40756  17.814   2.181  30.542  0.2846  0.0365  0.0782
34157W        W40757  11.827   5.716  24.529 -0.1678  0.0552  0.1095
34158W        W40758   9.435   2.154  25.773  0.0462 -0.2168 -0.2562
34159W        W40759   7.440   1.503  10.660  0.0695  0.1151  0.1452
34160W        W40760  12.334   2.711   3.521 -0.2323  0.1547 -0.0632
34161W        W40761  20.720   0.590  15.473 -0.2456  0.1559  0.1362
34162W        W40762  11.928   7.613   2.369 -0.0855  0.0150  0.1971
34163W        W40763  17.831   6.448   6.011 -0.0219 -0.1318  0.0671
34164W        W40764  18.379   1.666  30.200 -0.1574  0.3402  0.0731
34165W        W40765  16.757   3.102  20.082  0.3359  0.4378  0.1152
34166W        W40766   6.226   5.217  14.411 -0.0163 -0.0701  0.0219
34167W        W40767  21.202   3.070  31.876 -0.1421 -0.1468  0.0685
34168W        W40768  16.723   5.599  29.512 -0.1063 -0.3889 -0.0857
34169W        W40769   6.314   7.583  12.087  0.0111 -0.1451 -0.1775
34170W        W40770   7.708   7.744  27.125 -0.2560 -0.0544  0.3530
34171W        W40771  16.488   1.550  18.955  0.0299 -0.1485 -0.1488
34172W        W40772  16.282   2.980   4.237  0.1147 -0.1772  0.0401
34173W        W40773   8.225   6.857   3.841 -0.0563  0.1043 -0.3960
34174W        W40774  20.436   2.927  13.567 -0.0400  0.1141 -0.0427
34175W        W40775   6.521   4.040   0.331  0.0840  0.2493 -0.2934
34176W        W40776  16.609   4.187   7.329  0.1137  0.0226 -0.2164
34177W        W40777   2.656   5.072  13.148 -0.0540  0.2033  0.3084
34178W        W40778  22.482   5.954   1.752 -0.1776  0.0319  0.2606
34179W        W40779   0.794   5.346   3.297  0.0337  0.0905  0.0982
34180W        W40780  20.986   6.980  29.691 -0.0013  0.0594  0.2225
34181W        W40781  17.579   1.240  32.419  0.2941 -0.0352 -0.1973
34182W        W40782  13.119   7.399   7.868  0.1779 -0.0836  0.0200
34183W        W40783   5.134   0.088  24.644  0.1800 -0.0553  0.1957
34184W        W40784   1.882   2.214  25.172  0.2253  0.0623  0.0817
34185W        W40785   1.025   2.816  11.316  0.2503 -0.0265  0.2062
34186W        W40786  14.096   2.912   7.598  0.2169 -0.1474 -0.2382
34187W        W40787  18.502   0.246   7.049  0.3495 -0.2571  0.0163
34188W        W40788   2.007   4.543  22.812 -0.1685  0.0813 -0.1471
34189W        W40789  18.175   5.810  20.281 -0.3622  0.2509  0.0042
34190W        W40790  17.208   4.238  21.861  0.1209  0.1080 -0.0835
34191W        W40791   9.852   6.833  25.918 -0.1832 -0.0407  0.1137
34192W        W40792   2.191   3.957  11.593  0.3122 -0.0574 -0.1105
34193W        W40793   8.883   7.746  31.265  0.2121 -0.2997  0.0312
34194W        W40794   3.329   6.512  25.938  0.0030 -0.1798  0.0746
34195W        W40795   6.843   5.776  29.472  0.1823 -0.1547  0.1046
34196W        W40796  16.123   4.006   5.380 -0.0393  0.0696  0.2715
34197W        W40797   3.357   5.203   3.812 -0.2264  0.0589  0.0339
34198W        W40798  11.161   4.311  28.532 -0.1535 -0.1834  0.2531
34199W        W40799  18.544   2.748   2.000 -0.4006 -0.0786 -0.0433
34200W        W40800  18.850   4.255  16.015 -0.1942  0.0752 -0.3350
34201W        W40801   2.362   7.785  24.144 -0.3906  0.0401  0.2124
34202W        W40802  23.283   3.831   3.244 -0.0063  0.0885 -0.2258
34203W        W40803  17.536   5.937  18.403 -0.1126 -0.0116 -0.1166
34204W        W40804  19.676   3.266  17.157 -0.5103  0.0713 -0.0592
34205W        W40805   1.470   5.072   7.583  0.4755 -0.0343 -0.0757
34206W        W40806   9.979   0.111   0.430  0.1013  0.2795  0.1557
34207W        W40807  20.189   1.968   7.056  0.0923  0.2460 -0.2040
34208W        W40808   9.607   2.510   4.256 -0.0925  0.0015 -0.0008
34209W        W40809   0.899   4.199  23.342 -0.3119  0.1340  0.0488
34210W        W40810   7.214   5.127  25.781  0.2623  0.0918  0.0654
34211W        W40811   1.894   2.308  31.931  0.0613 -0.1302 -0.2365
34212W        W40812  24.206   6.210  16.631 -0.0489  0.0555 -0.0573
34213W        W40813  17.456   5.271   2.484 -0.0427  0.2778 -0.2110
34214W        W40814   1.937   2.605  23.156  0.1607  0.0430  0.1234
34215W        W40815   0.229   1.693  22.612 -0.2400  0.0944 -0.1007
34216W        W40816  13.460   4.875   7.699 -0.2807  0.2289  0.0225
34217W        W40817  24.513   5.869  25.863  0.0353  0.2005 -0.1852
34218W        W40818   8.490   2.659  13.418 -0.1379  0.0706 -0.0623
34219W        W40819  12.878   2.175   8.894 -0.1630  0.0853 -0.2975
34220W        W40820  17.264   1.403   7.863  0.1249 -0.3776  0.3398
34221W        W40821  23.222   1.599  24.101 -0.2962 -0.1853  0.0303
34222W        W40822   7.118   3.388  15.038 -0.5409  0.1208 -0.0344
34223W        W40823  19.643   5.494  23.102 -0.0308  0.0669  0.2962
34224W        W40824   6.350   2.151   2.956  0.1138  0.0235 -0.0483
34225W        W40825  21.956   1.892  23.543 -0.1733 -0.1878 -0.1150
34226W        W40826  24.643   7.025   9.288  0.0359 -0.0335  0.2262
34227W        W40827  11.728   6.504   5.578  0.0489  0.1090  0.0464
34228W        W40828   1.290   1.464   4.032  0.0215 -0.0123 -0.2088
34229W        W40829  11.246   6.186  25.925 -0.1180 -0.2318 -0.1181
34230W        W40830  18.128   5.926  32.618 -0.2130 -0.0191 -0.2140
34231W        W40831  21.464   5.789  22.594  0.1417 -0.1714 -0.2148
34232W        W40832   9.951   6.104  15.766  0.0585 -0.2471  0.1710
34233W        W40833  11.296   3.544   0.899 -0.2886  0.1449  0.1534
34234W        W40834   1.060   2.837   3.658  0.2965  0.0359 -0.0734
34235W        W40835  20.801   2.500  28.992 -0.0228 -0.0662  0.1967
34236W        W40836   0.059   3.307   4.148  0.1126  0.2665 -0.2195
34237W        W40837   1.388   2.278  26.491 -0.2525 -0.1321 -0.3276
34238W        W40838   2.642   2.114  24.393  0.0699 -0.1073 -0.1028
34239W        W40839  19.655   5.788   3.181 -0.1082 -0.1274  0.0096
34240W        W40840  21.562   0.531   4.218 -0.0280 -0.1729  0.0952
34241W        W40841  17.097   5.994   5.402 -0.0179  0.3352 -0.0092
34242W        W40842   5.838   3.630  14.000  0.1840 -0.2901  0.0351
34243W        W40843  12.125   1.055   6.560 -0.1192 -0.0932 -0.2325
34244W        W40844  12.883   2.601   0.294  0.1650  0.0564 -0.1393
34245W        W40845  20.236   3.665  19.285  0.3667  0.0773 -0.3042
34246W        W40846  22.653   7.233   5.792  0.1534 -0.0059  0.2606
34247W        W40847   5.719   6.002  23.415  0.0586  0.0504 -0.1612
34248W        W40848  12.372   2.422  16.901 -0.2504  0.0169 -0.0028
34249W        W40849   5.450   3.553   2.830 -0.1123 -0.1222  0.1100
34250W        W40850  21.014   5.190  16.500 -0.0543  0.2665  0.1489
34251W        W40851   2.451   2.600   3.565  0.0233  0.0219  0.2178
34252W        W40852   8.378   0.514  31.269  0.0624  0.1196  0.0445
34253W        W40853   1.668   6.732   0.886 -0.0265  0.1821  0.1666
34254W        W40854  20.949   6.240  22.951  0.2045 -0.1111 -0.0011
34255W        W40855  18.054   6.426   9.718 -0.0642 -0.3864 -0.2622
34256W        W40856  12.717   5.522  14.687  0.3185  0.0768  0.0119
34257W        W40857  10.783   6.325   2.568  0.1389  0.1578 -0.3002
34258W        W40858  20.109   7.683  23.721  0.0325 -0.0841 -0.1266
34259W        W40859   0.813   7.330   8.910  0.2400  0.4280 -0.0213
34260W        W40860  24.433   7.521   5.763  0.2033  0.1146  0.1716
34261W        W40861  19.229   6.337   0.486 -0.1974 -0.1236  0.3676
34262W        W40862  14.886   3.528   5.176 -0.0648  0.0379 -0.2323
34263W        W40863  22.272   2.815   2.084  0.0541 -0.0652  0.1404
34264W        W40864   3.656   5.297   2.369  0.1924 -0.1354  0.1309
34265W        W40865   6.371   0.913  26.411 -0.1053 -0.0331 -0.0384
34266W        W40866  15.313   3.018   5.883  0.0180 -0.2820 -0.2813
34267W        W40867   2.019   2.375  19.561 -0.3172  0.0516  0.1969
34268W        W40868  19.673   0.069  32.577 -0.2369 -0.3232  0.1841
34269W        W40869   6.095   1.870   5.959 -0.3318  0.0740 -0.2934
34270W        W40870  19.939   7.479   7.235 -0.2096  0.0719  0.0604
34271W        W40871  13.460   7.316   6.727  0.1614  0.0309 -0.0108
34272W        W40872   0.750   6.558  25.570  0.0654 -0.0044 -0.2086
34273W        W40873   1.156   4.305   2.783  0.0288 -0.1377  0.0444
34274W        W40874   3.189   0.586  28.657  0.2075  0.1486  0.3094
34275W        W40875  20.205   6.192  30.005 -0.0874 -0.0418  0.2652
34276W        W40876  16.946   0.067  21.330 -0.2317  0.3169  0.1425
34277W        W40877   7.743   4.287  25.123  0.3123  0.1973 -0.1215
34278W        W40878  13.191   1.334   2.186 -0.1397  0.0089  0.0346
34279W        W40879  14.192   7.673  31.669  0.0155  0.1204 -0.2894
34280W        W40880  14.369   3.174   3.260  0.1503 -0.1205 -0.1613
34281W        W40881   9.107   6.349   7.568 -0.1476  0.0067 -0.1633
34282W        W40882  16.854   0.831  28.386 -0.3152  0.1398  0.2518
34283W        W40883  17.494   4.337  31.604 -0.1834 -0.0532  0.0161
34284W        W40884  15.912   6.043  12.313  0.0084 -0.1780 -0.2983
34285W        W40885   6.571   3.204   3.099 -0.1296  0.1186  0.0399
34286W        W40886   1.709   4.610   7.680 -0.6527  0.3302  0.0998
34287W        W40887   4.958   1.596   3.013  0.1283  0.0021 -0.0266
34288W        W40888  17.363   1.562  19.824  0.0594 -0.3007  0.1296
34289W        W40889  13.507   1.233   2.580  0.0722 -0.0098 -0.1242
34290W        W40890  24.576   3.066  22.018 -0.0184  0.0615 -0.0942
34291W        W40891  22.317   4.436   5.296 -0.0842 -0.1830  0.0272
34292W        W40892   4.878   2.374   3.244 -0.1027 -0.3063  0.0949
34293W        W40893   3.754   7.281  22.654 -0.0483  0.1220 -0.0482
34294W        W40894  22.948   1.664   9.480 -0.0756  0.0226  0.2086
34295W        W40895  18.676   0.455   4.909  0.3242 -0.1581  0.2060
34296W        W40896  12.725   5.743  13.438 -0.0688  0.1151  0.0736
34297W        W40897   6.599   0.961   3.291  0.2651  0.1477  0.1087
34298W        W40898  21.383   5.367  23.227 -0.1944 -0.0916 -0.1541
34299W        W40899   4.180   0.321  30.059  0.0598  0.2932  0.2151
34300W        W40900  15.248   1.635   9.170 -0.0385 -0.1186 -0.0860
34301W        W40901  13.218   1.629   9.751 -0.1913  0.0858 -0.1293
34302W        W40902  16.823   3.306  25.724  0.1815  0.0038  0.1022
34303W        W40903   8.783   4.470   5.968  0.0061 -0.0727  0.1208
34304W        W40904   0.153   3.403  19.393 -0.0662  0.0815  0.1449
34305W        W40905   8.840   3.121  30.258  0.5537 -0.0206 -0.3617
34306W        W40906  19.211   6.682  23.883 -0.0445 -0.0234 -0.1259
34307W        W40907   9.669   1.467  13.365  0.3752  0.2771 -0.3058
34308W        W40908  13.179   3.854  32.468  0.2246 -0.0053 -0.0805
34309W        W40909  13.926   0.302  24.877  0.0782 -0.0244 -0.0028
34310W        W40910   5.949   6.292  11.785  0.2258 -0.0290 -0.0048
34311W        W40911  12.884   0.368  21.804 -0.0486  0.0452  0.0956
34312W        W40912   9.271   2.980   1.202  0.2773  0.0617  0.1298
34313W        W40913   9.185   4.211   6.151  0.0651 -0.0613 -0.0685
34314W        W40914  15.250   3.297   0.656 -0.2619  0.0897  0.0114
34315W        W40915   6.882   5.275   5.743 -0.2139  0.0005 -0.1404
34316W        W40916   0.372   3.776   9.521 -0.2255 -0.1497 -0.2452
34317W        W40917  22.988   0.661  10.012 -0.0633 -0.0422 -0.0132
34318W        W40918   8.379   5.439   4.652 -0.2091  0.4775  0.1199
34319W        W40919  14.379   6.713  24.088 -0.1256 -0.3617  0.3078
34320W        W40920   4.013   4.671   1.789 -0.1193  0.2141  0.1052
34321W        W40921  10.960   3.470  26.916  0.0544  0.3047  0.0180
34322W        W40922  10.717   4.097  30.908  0.0057 -0.0167  0.2343
34323W        W40923  11.355   7.098  31.898  0.1413 -0.1553  0.0546
34324W        W40924  17.370   3.585   1.625 -0.0520 -0.2408 -0.1266
34325W        W40925   1.874   5.355   9.313 -0.0973  0.0503 -0.0133
34326W        W40926   6.274   3.830  31.534 -0.1139 -0.3056 -0.1743
34327W        W40927  14.606   4.344   4.219  0.0423 -0.1326 -0.2142
34328W        W40928   7.080   3.930  24.451  0.1596  0.0415  0.0407
34329W        W40929  10.353   6.295   6.738 -0.1783 -0.1450 -0.1426
34330W        W40930   6.957   6.195   7.103  0.0639 -0.0413 -0.4241
34331W        W40931  21.189   6.723  31.245  0.2773  0.2927 -0.0601
34332W        W40932   9.230   2.594  17.830 -0.1048  0.1800  0.0644
34333W        W40933   3.566   6.381   6.023  0.0661 -0.1761  0.1868
34334W        W40934  24.480   0.733  32.081 -0.1880 -0.0675 -0.2227
34335W        W40935   9.781   7.495  11.875 -0.1879  0.0092  0.0979
34336W        W40936   0.870   0.848   3.381  0.0009  0.0551  0.0712
34337W        W40937  11.905   2.775  22.596 -0.1302  0.1102  0.2048
34338W        W40938  10.506   6.550   1.301  0.0368  0.1013  0.1655
34339W        W40939  10.314   6.834  12.745  0.1948 -0.0664 -0.2647
34340W        W40940  14.251   1.540  10.550 -0.0029 -0.2254  0.0956
34341W        W40941  14.429   1.822  28.496  0.0453 -0.4679  0.1186
34342W        W40942  18.989   4.331   3.224 -0.1610 -0.2128  0.2548
34343W        W40943  19.039   5.279  29.235 -0.0322  0.0608 -0.0185
34344W        W40944  20.491   2.705  29.559  0.3061 -0.2027  0.1955
34345W        W40945   7.478   4.499  30.890 -0.2579 -0.0221  0.0734
34346W        W40946  13.064   5.878   4.281  0.0598  0.0077  0.0031
34347W        W40947  15.226   6.185  24.119 -0.1263  0.0323 -0.0029
34348W        W40948  20.322   2.126  32.669 -0.1359  0.0745 -0.2487
34349W        W40949  14.267   6.776  30.153 -0.2256  0.3313  0.4432
34350W        W40950   9.750   4.863   0.470 -0.0767  0.1753  0.1806
34351W        W40951   9.582   4.917  16.563  0.0016 -0.4097 -0.0473
34352W        W40952  21.645   1.271  25.927  0.1627 -0.0124 -0.0007
34353W        W40953  12.556   1.713  12.910  0.0579  0.2059  0.1503
34354W        W40954  15.229   0.208   6.544  0.0781 -0.0443 -0.0576
34355W        W40955   5.707   0.510   3.834  0.1415  0.1148  0.3242
34356W        W40956  13.627   0.348   4.032 -0.2474  0.1997  0.2625
34357W        W40957  15.966   1.584  30.970  0.0825 -0.2590  0.3080
34358W        W40958   5.124   5.583   7.409  0.1877 -0.0867 -0.1680
34359W        W40959  22.375   5.728  23.252  0.0059 -0.1802 -0.1107
34360W        W40960  22.855   3.351   2.078 -0.1075 -0.0164  0.3493
34361W        W40961  23.711   3.791  10.556 -0.1139 -0.1359 -0.2638
34362W        W40962  18.796   3.928  24.938  0.1619 -0.0280  0.0711
34363W        W40963  19.597   7.596  18.647  0.1473  0.1720 -0.1530
34364W        W40964   3.798   1.884  15.214 -0.0415 -0.0054  0.3269
34365W        W40965  25.021   1.889   3.208  0.0640 -0.0381 -0.0470
34366W        W40966  17.505   4.556   7.684 -0.3045 -0.4065  0.0895
34367W        W40967  22.177   4.979  20.340 -0.0888  0.0843  0.0739
34368W        W40968  19.507   2.028   0.054  0.1811 -0.1630  0.4810
34369W        W40969   1.729   5.908  21.495 -0.0066  0.2182  0.2879
34370W        W40970  23.237   6.828  28.219 -0.0530 -0.1044 -0.1448
34371W        W40971  23.004   7.025   2.828  0.0408 -0.0380  0.1685
34372W        W40972  21.777   7.036   4.118 -0.2579  0.0174  0.2731
34373W        W40973   2.233   3.213   7.273  0.1586 -0.1717  0.0066
34374W        W40974  20.134   2.999  21.778 -0.1971 -0.2089  0.2413
34375W        W40975  23.998   7.074   5.249  0.1515 -0.0001 -0.0619
34376W        W40976   4.731   4.280  13.172  0.0946 -0.0574 -0.2810
34377W        W40977   9.446   5.674  27.416  0.0304  0.0157 -0.3863
34378W        W40978  20.191   6.953  15.531  0.2021  0.3103  0.3401
34379W        W40979   6.360   6.208   2.765 -0.2384 -0.0975  0.0556
34380W        W40980  16.646   4.954  20.034  0.2699  0.2060  0.1813
34381W        W40981   9.065   4.791   9.804  0.1170 -0.0981 -0.3463
34382W        W40982   3.387   3.171  32.227 -0.0679 -0.2999 -0.0229
34383W        W40983   3.702   6.025  11.567  0.2635 -0.0892  0.0109
34384W        W40984  15.293   4.875  19.524  0.2068  0.0290 -0.1248
34385W        W40985   8.044   0.743  16.137  0.1911  0.1834 -0.0527
34386W        W40986  16.669   3.011  28.977 -0.0173 -0.2577  0.1403
34387W        W40987  10.720   5.458   5.033 -0.1808 -0.1454 -0.2058
34388W        W40988  17.883   2.750  10.848  0.1366  0.1907  0.2422
34389W        W40989  19.356   2.279  20.045  0.0404 -0.4386  0.0351
34390W        W40990  12.017   6.916   1.980 -0.0307  0.3460 -0.2337
34391W        W40991  12.323   4.921  10.589 -0.1348 -0.0815  0.0685
34392W        W40992  16.375   7.137  17.902  0.2192  0.1606  0.0929
34393W        W40993  12.240   2.982  14.620 -0.1811  0.0612 -0.0212
34394W        W40994  21.414   3.558   7.245 -0.1702 -0.0095  0.0256
34395W        W40995   8.448   0.535   0.629  0.3311 -0.1868 -0.0452
34396W        W40996   6.868   0.866  30.722  0.0322 -0.0119 -0.1311
34397W        W40997  17.249   1.455  27.121  0.2037  0.1584  0.1868
34398W        W40998   3.209   0.038  29.845 -0.0209  0.1242 -0.2073
34399W        W40999   7.113   5.523  27.044  0.2557  0.0511  0.0557
34400W        W41000  10.514   4.504  13.256  0.1230  0.1201  0.1646
34401W        W41001   5.124   0.120  31.958  0.3015 -0.0811  0.1077
34402W        W41002   7.515   0.363  26.327 -0.0686 -0.0869 -0.2375
34403W        W41003  23.029   1.076  31.121 -0.4030  0.1460 -0.0608
34404W        W41004  24.692   1.714   6.268  0.2785  0.1245 -0.0724
34405W        W41005  13.187   2.105  32.509 -0.0890 -0.0332 -0.3491
34406W        W41006  24.218   4.851  19.349 -0.0257  0.2630 -0.2578
34407W        W41007   6.045   3.888  22.813 -0.0113  0.2155 -0.3209
34408W        W41008   3.446   5.889   8.934  0.1619 -0.1173 -0.0972
34409W        W41009  20.832   2.074  24.597  0.1482  0.0713  0.0172
34410W        W41010  15.554   0.181  30.428  0.1973 -0.0467  0.0435
34411W        W41011  13.615   3.072  31.165 -0.0278 -0.0601 -0.2876
34412W        W41012   5.635   5.127  26.744  0.0962  0.0929  0.1964
34413W        W41013  15.441   0.424  31.736  0.2131  0.3754  0.0529
34414W        W41014  12.753   6.951   8.606  0.3654  0.0603 -0.3465
34415W        W41015  21.312   3.394  25.850 -0.1515  0.2762 -0.0245
34416W        W41016   9.427   3.285   2.536  0.2792 -0.0463  0.1267
34417W        W41017  15.957   4.933  29.751  0.2724  0.2028 -0.0323
34418W        W41018  20.991   2.678  19.788  0.1719 -0.3318 -0.2595
34419W        W41019  12.092   0.376  14.830 -0.1228 -0.0519 -0.1345
34420W        W41020   9.087   1.038  27.569  0.0667  0.0691 -0.1592
34421W        W41021   6.201   6.203  17.102  0.3232 -0.1571  0.1505
34422W        W41022   3.679   3.567  31.831  0.0488  0.0107 -0.3160
34423W        W41023  20.861   5.464  28.145 -0.1235 -0.1113 -0.1057
34424W        W41024  17.469   6.363  28.371  0.1062  0.3150  0.2346
34425W        W41025   2.452   2.990   5.888 -0.1329  0.2101  0.1776
34426W        W41026   7.899   1.345  12.885 -0.0993 -0.1789  0.1654
34427W        W41027  14.081   2.385   4.733  0.1621 -0.0134  0.2720
34428W        W41028   0.397   4.581  30.765  0.0882  0.0992  0.0904
34429W        W41029   5.703   1.985   3.499 -0.0552  0.1031 -0.0228
34430W        W41030  21.792   4.636   8.551 -0.0386 -0.0027 -0.0302
34431W        W41031  17.263   4.965  27.458  0.3303 -0.3395 -0.3374
34432W        W41032  19.204   3.804   3.977  0.2211  0.1181 -0.1734
34433W        W41033  20.306   4.442   3.896  0.0334  0.1527 -0.0452
34434W        W41034   4.119   7.563  10.288 -0.2554  0.0723  0.1889
34435W        W41035  21.345   3.782  29.512  0.1632 -0.1934 -0.2337
34436W        W41036   6.801   7.313   9.061  0.0648  0.0154  0.1009
34437W        W41037  24.041   4.448   1.454  0.2622 -0.0035 -0.4570
34438W        W41038  20.098   6.279   7.907 -0.0248  0.0263  0.2418
34439W        W41039   0.923   2.033   2.154 -0.3145  0.0644  0.2180
34440W        W41040  13.233   4.189  21.160  0.1082 -0.0761 -0.1048
34441W        W41041  12.038   7.259   4.628  0.0423 -0.0496 -0.2677
34442W        W41042   8.157   2.653  32.550  0.1126 -0.0659 -0.0098
34443W        W41043   8.399   6.385  28.823  0.0608  0.3710 -0.3751
34444W        W41044   8.853   6.326   5.010 -0.1683  0.0449  0.0200
34445W        W41045   7.636   1.476  24.568  0.3135  0.0868  0.1892
34446W        W41046  23.877   7.824   8.858 -0.1389 -0.1197 -0.2370
34447W        W41047  11.150   4.336   1.663 -0.0307  0.1486 -0.0540
34448W        W41048  22.209   1.575   4.228 -0.0445  0.3172 -0.3232
34449W        W41049  13.969   5.410   2.245  0.2132  0.1763  0.4018
34450W        W41050  24.259   0.229  25.598 -0.1228 -0.0517 -0.1890
34451W        W41051   7.592   5.239  31.155  0.1300 -0.1032 -0.2858
34452W        W41052   6.554   3.614   0.013  0.1213 -0.0749 -0.2306
34453W        W41053  12.748   1.798   4.937  0.1353 -0.0480  0.1929
34454W        W41054  17.879   3.386  22.121 -0.1392  0.0821 -0.0805
34455W        W41055  20.370   6.565   4.813  0.2007 -0.2146 -0.3446
34456W        W41056  17.806   6.183   8.349 -0.2760  0.0691  0.3479
34457W        W41057  12.667   0.143  31.323  0.1466 -0.1056  0.1468
34458W        W41058   1.642   6.335  26.380 -0.1055  0.1085 -0.1291
34459W        W41059  14.105   5.266  22.085 -0.2046 -0.1365 -0.2608
34460W        W41060   2.874   1.651  11.363  0.2935 -0.1059 -0.0460
34461W        W41061   0.269   3.222  25.967  0.1541  0.0556 -0.1792
34462W        W41062  18.528   0.245  11.400  0.0346 -0.1658 -0.1393
34463W        W41063   4.054   5.547  24.765 -0.3652 -0.2963  0.0253
34464W        W41064   9.283   1.426   6.829  0.0835  0.1953  0.0709
34465W        W41065   9.913   4.356  28.221 -0.0453  0.0126 -0.0858
34466W        W41066  14.859   0.315  32.230  0.0481 -0.1896  0.0763
34467W        W41067   4.963   0.538  10.797 -0.3102 -0.0404  0.0291
34468W        W41068  18.564   0.608   7.441 -0.2596  0.2836 -0.0414
34469W        W41069  16.665   4.555   8.093  0.3502 -0.0481  0.5525
34470W        W41070   6.519   0.241  28.548 -0.0185 -0.0046 -0.0505
34471W        W41071   9.598   4.669  25.776  0.1475 -0.1520 -0.0982
34472W        W41072  13.626   2.828   6.182 -0.2882  0.0565 -0.3983
34473W        W41073  16.969   3.448   8.129 -0.0743  0.0015  0.3699
34474W        W41074   8.079   7.659  14.656  0.2618 -0.1037  0.1752
34475W        W41075  11.288   4.404   6.020  0.0910  0.1067 -0.0026
34476W        W41076  12.807   2.978   5.630  0.2465 -0.2525 -0.5418
34477W        W41077  17.753   7.746  19.930  0.1784  0.0543  0.2292
34478W        W41078   1.035   4.317   1.463  0.1124  0.0417 -0.2448
34479W        W41079   2.120   3.332  21.377 -0.2122  0.1622 -0.1375
34480W        W41080   0.921   5.298   9.046  0.1351  0.0490  0.2261
34481W        W41081   7.646   4.139  10.900 -0.1868 -0.1375  0.0872
34482W        W41082   4.272   1.542  25.255  0.0446 -0.4516 -0.0435
34483W        W41083  10.793   2.545  25.458 -0.1126 -0.0813  0.3955
34484W        W41084  19.877   6.369  21.856  0.2477  0.2859  0.1039
34485W        W41085   5.849   1.102   2.244  0.0991  0.0164 -0.2649
34486W        W41086  23.289   3.853   9.431  0.1790  0.3027 -0.0194
34487W        W41087  20.656   7.815  17.898  0.1610  0.2220 -0.0167
34488W        W41088   0.520   7.027  20.130  0.2997  0.0605  0.1679
34489W        W41089  24.367   7.473  16.311 -0.0107 -0.1306  0.0721
34490W        W41090   6.941   1.879  27.845  0.1974 -0.0274  0.1318
34491W        W41091  22.216   2.132   9.310  0.1725  0.1822  0.2567
34492W        W41092  20.772   5.594  24.062 -0.0689  0.0535 -0.0046
34493W        W41093   6.305   0.162   3.575 -0.1827  0.1171 -0.0291
34494W        W41094   6.121   6.214  12.212 -0.1063  0.0685 -0.0564
34495W        W41095  21.013   7.542  25.822 -0.2296 -0.1266  0.2636
34496W        W41096   0.956   0.050  20.424 -0.1649  0.3510  0.1132
34497W        W41097  12.958   7.774  22.682  0.0391  0.0021 -0.2445
34498W        W41098   7.002   7.093  12.486  0.2770 -0.1121 -0.0600
34499W        W41099  23.556   5.019  20.578 -0.0619 -0.2359 -0.4094
34500W        W41100   6.643   1.146   6.367  0.2101 -0.0006  0.1829
34501W        W41101  20.593   2.539   0.681 -0.1769  0.0881  0.0536
34502W        W41102   7.383   3.748  22.589  0.1240  0.0454  0.1652
34503W        W41103  11.717   4.041  26.707  0.0242  0.0840  0.0558
34504W        W41104  15.801   1.302  26.475 -0.1960  0.1645  0.0759
34505W        W41105  11.878   4.432   2.709  0.3745 -0.0486 -0.3402
34506W        W41106   0.429   3.770   0.980  0.1189 -0.0110 -0.0439
34507W        W41107   5.642   1.582  11.356 -0.0450 -0.0194 -0.0796
34508W        W41108  18.764   4.368   5.312 -0.2088 -0.3065  0.1753
34509W        W41109  24.592   4.072  27.032 -0.0626  0.2270  0.1340
34510W        W41110   2.002   5.682  24.664 -0.0351 -0.2845  0.1151
34511W        W41111  17.490   2.010  31.031 -0.0809 -0.0304  0.2058
34512W        W41112  14.880   7.192   6.349  0.3127  0.3212 -0.1598
34513W        W41113   8.395   7.287  32.230  0.2299 -0.0819  0.4081
34514W        W41114  12.971   7.718   5.790 -0.0817  0.0930  0.0766
34515W        W41115   5.397   5.315  13.954  0.3616  0.3611 -0.4444
34516W        W41116   9.993   6.711   2.427 -0.0992 -0.1377 -0.1862
34517W        W41117  10.248   0.977  16.198 -0.1069  0.1808 -0.0891
34518W        W41118  22.867   4.893   8.603  0.2368 -0.2150  0.0650
34519W        W41119  20.946   7.538  18.888 -0.1937 -0.2784  0.0991
34520W        W41120  12.378   5.078   6.531  0.1554 -0.1051 -0.0999
34521W        W41121  12.641   7.397  27.132  0.2167  0.0268 -0.0900
34522W        W41122   8.856   3.132   3.263 -0.1618 -0.3257 -0.1379
34523W        W41123  20.070   7.449  19.319 -0.0320  0.0857 -0.0133
34524W        W41124   0.478   3.584  31.725 -0.2046 -0.1604 -0.0412
34525W        W41125   2.409   1.122   0.488  0.0022  0.0917 -0.2174
34526W        W41126   6.788   0.179  14.479 -0.2075 -0.1788 -0.0059
34527W        W41127  23.393   0.237  19.306 -0.0473  0.1202  0.0585
34528W        W41128  17.425   3.362   3.335  0.0414  0.5176 -0.1846
34529W        W41129   5.511   0.602  32.124 -0.0066  0.1828  0.1944
34530W        W41130  10.122   2.411   3.016  0.0889 -0.1319  0.0824
34531W        W41131  24.374   3.712   5.901 -0.1098  0.0729  0.1355
34532W        W41132  21.268   5.610  23.845 -0.2380 -0.3131 -0.1623
34533W        W41133  22.873   5.519   0.840 -0.1564  0.1459 -0.1279
34534W        W41134  16.644   5.962  20.644  0.1002  0.3759  0.1033
34535W        W41135  15.008   1.609   1.202 -0.1476 -0.0499 -0.2487
34536W        W41136  24.444   3.618  31.102  0.1952 -0.0104  0.0700
34537W        W41137   0.912   3.774  29.980  0.0161 -0.0206  0.0412
34538W        W41138  10.775   5.329  26.951  0.2671 -0.0544 -0.1392
34539W        W41139  18.599   2.665  23.445  0.0185 -0.0805 -0.1192
34540W        W41140  17.844   6.394  16.651  0.0109 -0.2381 -0.0179
34541W        W41141  16.543   4.256  31.008  0.0276  0.2186  0.0494
34542W        W41142   6.814   5.409   8.224  0.0729  0.1983 -0.1296
34543W        W41143   8.655   1.961  12.677 -0.0465  0.3350 -0.2742
34544W        W41144  17.995   4.519   3.569 -0.0525 -0.2968  0.2469
34545W        W41145  22.637   1.552  26.273  0.0233  0.2530  0.1799
34546W        W41146   9.874   1.266  22.317  0.1351  0.3504  0.2461
34547W        W41147   7.029   2.286   7.562 -0.1508  0.0134  0.2675
34548W        W41148  23.103   2.081  19.855 -0.0165 -0.2016  0.0079
34549W        W41149  12.343   5.509  11.741 -0.0867 -0.0015  0.1310
34550W        W41150  12.577   2.511  11.114 -0.0503 -0.1105 -0.0714
34551W        W41151   6.862   2.130  25.585  0.1759 -0.0794 -0.3835
34552W        W41152   8.601   0.565  12.673  0.2015 -0.0390  0.0123
34553W        W41153  17.218   0.049  31.702  0.3453  0.1024 -0.0004
34554W        W41154   9.885   3.025  28.865 -0.0387  0.2152  0.0970
34555W        W41155   3.708   2.009  23.930 -0.0267  0.1804  0.1316
34556W        W41156  21.164   6.307   5.422 -0.1384 -0.0474 -0.0420
34557W        W41157   0.375   4.365  18.776  0.0363 -0.1597  0.2044
34558W        W41158  15.669   5.987   3.084  0.0692  0.1852  0.2754
34559W        W41159  15.733   5.843  29.382 -0.1592 -0.1124  0.0946
34560W        W41160  18.573   3.863  32.021  0.3107  0.1572  0.2562
34561W        W41161   2.813   3.448  31.515 -0.1644 -0.0150  0.3624
34562W        W41162   0.956   7.603  22.695  0.2021 -0.1943 -0.0820
34563W        W41163  19.963   4.766  26.517  0.4928 -0.2215  0.2897
34564W        W41164  23.220   4.228   4.344 -0.1385 -0.1892 -0.0356
34565W        W41165   5.484   5.624   0.815 -0.0249  0.1639 -0.1467
34566W        W41166  14.275   3.948  28.607  0.1480 -0.1246 -0.2573
34567W        W41167  19.383   7.777  31.905 -0.0182  0.0602 -0.1617
34568W        W41168  21.501   3.766   4.341 -0.0303 -0.0680  0.0926
34569W        W41169  11.412   1.043  27.688  0.0180 -0.1616  0.1827
34570W        W41170  15.844   0.221  31.572 -0.0024 -0.4920 -0.3386
34571W        W41171  10.855   0.234   0.043 -0.2734  0.0980  0.1725
34572W        W41172  11.366   2.155  28.789  0.2474 -0.2514  0.0886
34573W        W41173  24.150   4.820  26.516  0.0485 -0.1156  0.0208
34574W        W41174   5.354   6.789  14.080  0.0553  0.1798 -0.0066
34575W        W41175   2.251   3.135  11.726  0.1671  0.1477  0.0325
34576W        W41176  24.388   3.993   1.375  0.2671 -0.0984  0.1548
34577W        W41177   0.484   5.687  29.614  0.1172 -0.0564  0.0849
34578W        W41178  13.868   7.571  24.037  0.0608 -0.1018 -0.2667
34579W        W41179  13.444   3.863  14.029  0.4334  0.1245  0.3900
34580W        W41180  22.137   2.142  29.131  0.0170  0.0480 -0.0383
34581W        W41181  19.343   6.287  25.043  0.1621 -0.0804 -0.0236
34582W        W41182  17.198   2.151   1.154 -0.3666 -0.1848 -0.1430
34583W        W41183  21.231   1.773   5.846 -0.4953 -0.0389 -0.1403
34584W        W41184  24.770   4.161  26.163 -0.1197 -0.4265 -0.3088
34585W        W41185  15.539   1.222  24.514  0.1938 -0.0412  0.1053
34586W        W41186   7.970   1.225  29.529 -0.1273 -0.1730 -0.1262
34587W        W41187  17.952   5.448   2.564 -0.2064  0.0442 -0.0737
34588W        W41188   2.000   7.194  31.159  0.0920 -0.1066  0.3219
34589W        W41189   4.784   1.908  11.318 -0.0727 -0.1256  0.0064
34590W        W41190  10.035   2.618   4.680  0.3485 -0.0111  0.0480
34591W        W41191  15.183   5.556  30.514 -0.0077 -0.0347  0.2244
34592W        W41192   0.450   1.980  24.935 -0.1316 -0.2554 -0.0461
34593W        W41193  22.010   0.513   1.390  0.2445  0.0012  0.3053
34594W        W41194   1.260   7.657   9.868  0.0852  0.4993 -0.0731
34595W        W41195  10.880   6.482   0.084 -0.1811  0.4298  0.0963
34596W        W41196  19.902   3.811  25.820 -0.1202 -0.1975  0.1559
34597W        W41197   3.962   5.955   6.509  0.0195  0.0155  0.2527
34598W        W41198  12.728   6.595   8.982  0.2374  0.4365  0.0737
34599W        W41199  18.155   0.482   3.484 -0.0133 -0.4317 -0.3391
34600W        W41200   7.594   1.188  14.970 -0.3951  0.0568 -0.0835
34601W        W41201  21.436   2.592   7.083  0.1365  0.2079  0.0601
34602W        W41202  19.675   5.852   2.116 -0.0877 -0.0458  0.0402
34603W        W41203  11.888   0.938  31.898 -0.0787 -0.0381 -0.1261
34604W        W41204  17.353   0.987  17.372 -0.2747  0.1476  0.1595
34605W        W41205  12.980   5.337  26.765 -0.2032 -0.0002  0.1492
34606W        W41206   2.883   3.028   1.461 -0.1423 -0.0547  0.2181
34607W        W41207   0.627   3.530   8.287  0.0421 -0.1564  0.0019
34608W        W41208  11.375   5.993   7.289 -0.0028 -0.1679 -0.3070
34609W        W41209   1.646   4.301   2.582  0.1435 -0.2370 -0.0436
34610W        W41210   2.113   5.353  23.294  0.1127 -0.5326 -0.3704
34611W        W41211   1.734   3.126  26.981  0.2702  0.1911 -0.3304
34612W        W41212   7.132   3.686   4.228  0.1448  0.2350  0.0979
34613W        W41213  15.605   0.863  21.406  0.1936 -0.3716 -0.0465
34614W        W41214   1.421   2.411   5.040 -0.0081  0.0761 -0.1536
34615W        W41215   6.740   7.666  16.209  0.2879 -0.2379  0.0727
34616W        W41216  11.778   4.913  26.052  0.2213 -0.1215 -0.3299
34617W        W41217   8.257   5.185  25.875 -0.3155  0.1816  0.3648
34618W        W41218  11.090   7.637  31.040 -0.0806  0.0777 -0.3030
34619W        W41219  12.685   4.818  13.402  0.1382 -0.0382 -0.1337
34620W        W41220   7.889   4.467  12.347 -0.0287 -0.0572 -0.0762
34621W        W41221  14.294   7.569  24.551  0.0710 -0.0475 -0.0252
34622W        W41222   3.684   7.729  21.747  0.0577  0.3019 -0.1128
34623W        W41223   5.497   1.460  24.722 -0.1660  0.1774  0.1219
34624W        W41224   6.750   6.619  15.338 -0.2509 -0.1062 -0.2042
34625W        W41225  22.981   5.462   5.104 -0.1418 -0.2584 -0.3291
34626W        W41226  19.953   0.607  21.906  0.0893  0.0897  0.3154
34627W        W41227  22.626   5.785  32.018  0.2497 -0.0187 -0.1237
34628W        W41228  16.930   3.446   5.646 -0.0108  0.1941  0.0291
34629W        W41229  18.652   5.044  23.071 -0.2850  0.1614  0.1635
34630W        W41230  21.967   2.903  27.266 -0.1782 -0.2586 -0.1055
34631W        W41231   2.488   6.829   0.649 -0.0979 -0.3529  0.0155
34632W        W41232   9.059   0.726  29.131 -0.1792  0.2430  0.2498
34633W        W41233   8.644   2.997  11.868 -0.1544 -0.1836  0.0475
34634W        W41234   6.788   1.124  13.483 -0.1974 -0.0976  0.0012
34635W        W41235  21.001   6.048  31.387  0.1298  0.0052  0.0330
34636W        W41236  12.339   6.038  26.332  0.0446 -0.0885 -0.1460
34637W        W41237   3.191   0.015   4.159  0.0627 -0.2045 -0.0179
34638W        W41238   1.471   2.196  19.326 -0.0076  0.2251 -0.1677
34639W        W41239  14.956   4.385   9.897  0.0370  0.1246 -0.1447
34640W        W41240   3.731   1.433  13.223 -0.2018  0.2115  0.2222
34641W        W41241  17.351   3.030   1.479  0.0540  0.0544 -0.0215
34642W        W41242   8.918   5.030  32.335 -0.2223  0.2035  0.0860
34643W        W41243   7.277   5.102  27.890  0.2502  0.0721  0.1249
34644W        W41244   2.097   4.581   5.010 -0.1703 -0.0879 -0.1206
34645W        W41245  19.999   2.013  23.369 -0.0962 -0.1244 -0.4243
34646W        W41246   1.978   6.111  29.150  0.1066  0.1467  0.0251
34647W        W41247   1.137   3.872  28.389 -0.1931  0.1888  0.2371
34648W        W41248  16.377   0.193   9.401  0.0573 -0.0080  0.0649
34649W        W41249  16.372   2.303   2.716 -0.0139  0.0793  0.0788
34650W        W41250  24.367   6.554  23.503  0.0889 -0.1849  0.1296
34651W        W41251  10.226   7.392  26.551  0.2092  0.1827  0.0539
34652W        W41252  14.591   1.252   1.073 -0.0860 -0.0756  0.0256
34653W        W41253  22.136   3.113   9.344  0.1693  0.1891  0.0790
34654W        W41254  24.290   5.579  22.324 -0.1436 -0.1630 -0.3121
34655W        W41255  10.458   7.802  32.351 -0.1868 -0.0339 -0.2670
34656W        W41256  21.848   1.677  20.313  0.0902 -0.0124 -0.1615
34657W        W41257  24.136   5.610  28.671  0.2147  0.0712 -0.3521
34658W        W41258  10.432   3.977  24.072 -0.0520 -0.4087 -0.1427
34659W        W41259   2.374   3.690  19.238  0.0734 -0.2115 -0.0591
34660W        W41260   3.063   5.836   3.384  0.0557  0.4120  0.0787
34661W        W41261  16.145   6.613  24.764 -0.0917 -0.3979  0.1620
34662W        W41262  10.316   2.687   1.813  0.3303  0.0916 -0.3298
34663W        W41263  16.520   0.342  26.142 -0.0458  0.3385 -0.0050
34664W        W41264   1.568   5.614  31.459 -0.0048  0.0129 -0.0126
34665W        W41265   5.085   2.277  32.109  0.2138 -0.0108  0.1736
34666W        W41266  22.211   3.063   8.427 -0.6631 -0.0052 -0.2214
34667W        W41267  23.082   6.734  18.435  0.1808 -0.2356 -0.0560
34668W        W41268   9.352   5.659  15.181  0.1460  0.1483  0.2341
34669W        W41269   8.142   3.386  31.890 -0.0079 -0.0404 -0.1712
34670W        W41270  23.906   2.483  20.401 -0.4453 -0.1109 -0.5417
34671W        W41271  12.659   2.230   5.326  0.0191 -0.1803 -0.0738
34672W        W41272  14.458   3.396  30.768 -0.0322 -0.0973 -0.1400
34673W        W41273  20.011   0.217   2.934 -0.0761 -0.0304 -0.1666
34674W        W41274  15.966   3.246  23.006  0.0010  0.2527  0.1191
34675W        W41275  11.105   4.674  10.212  0.1806  0.0386 -0.2764
34676W        W41276   1.155   1.416  20.720  0.4007 -0.2013 -0.1695
34677W        W41277   4.530   3.662  25.767  0.0203  0.1727  0.0049
34678W        W41278   8.196   6.761  17.886 -0.1117 -0.0800  0.1311
34679W        W41279  12.671   3.263  29.433 -0.1420  0.0850 -0.0138
34680W        W41280   6.491   7.504   9.793 -0.1287 -0.2235 -0.0099
34681W        W41281  20.801   6.995   2.542 -0.0706  0.0122 -0.2961
34682W        W41282   1.596   0.703  24.420 -0.2003  0.3577 -0.0730
34683W        W41283   8.087   7.802  18.389 -0.3010  0.0292  0.3088
34684W        W41284   1.118   3.944   3.317  0.0053 -0.2972  0.1751
34685W        W41285   1.509   4.327   9.584  0.0666 -0.2245  0.0517
34686W        W41286  12.330   4.057   3.875  0.0699 -0.0462 -0.0401
34687W        W41287  19.673   6.839  24.024  0.2605 -0.0788  0.0962
34688W        W41288   4.766   1.000   5.649  0.2174  0.1181  0.1428
34689W        W41289  22.449   3.203   8.036 -0.2384  0.0028  0.0381
34690W        W41290  17.102   1.299   1.913  0.1067  0.0971  0.4238
34691W        W41291   5.572   7.682  26.768 -0.0803  0.0201  0.0347
34692W        W41292   2.185   0.672  12.001 -0.2275  0.1488  0.0966
34693W        W41293  18.352   4.076  21.009  0.0262  0.0331  0.5032
34694W        W41294   9.293   1.243  31.422 -0.0871 -0.0264 -0.0456
34695W        W41295  15.644   0.090   1.951 -0.1776 -0.0581  0.0535
34696W        W41296  11.443   4.714   0.312  0.0764  0.0391  0.0178
34697W        W41297  21.644   6.442  29.860 -0.2362 -0.1345  0.1853
34698W        W41298   0.888   1.971  30.559  0.2511 -0.2663  0.0091
34699W        W41299  12.726   5.776  27.552 -0.0207  0.2687  0.2184
34700W        W41300  16.419   2.538  19.802  0.0444 -0.0211 -0.2410
34701W        W41301   3.399   5.203  30.469  0.0413 -0.1349 -0.1507
34702W        W41302  12.255   2.179   1.562  0.3006  0.2191  0.1053
34703W        W41303  18.146   5.544   0.297 -0.0462  0.2087  0.0174
34704W        W41304   0.883   4.539  32.619  0.2104 -0.0137  0.3023
34705W        W41305  24.267   0.508  24.150  0.1065 -0.0116  0.3051
34706W        W41306  16.968   6.039  22.633 -0.1377 -0.3754  0.0701
34707W        W41307   8.014   3.076  27.241  0.1052  0.1188 -0.1080
34708W        W41308  20.435   4.656  27.665  0.2887  0.1156  0.3011
34709W        W41309  22.284   2.248  17.564  0.0073  0.2384  0.1042
34710W        W41310   4.855   0.764   9.108 -0.2326  0.1928 -0.1105
34711W        W41311   1.387   1.740   1.042  0.1861  0.4066  0.1140
34712W        W41312   3.656   7.538  23.787 -0.0651 -0.2630  0.2682
34713W        W41313   3.259   2.941   3.158  0.1371  0.0867 -0.3789
34714W        W41314  21.023   1.113  28.492  0.1305  0.3448 -0.1430
34715W        W41315  13.540   4.457   6.923 -0.3023  0.1325  0.1591
34716W        W41316  20.564   0.567  28.655  0.0952  0.1430 -0.0755
34717W        W41317  13.888   2.558  32.091 -0.1339 -0.0099 -0.0165
34718W        W41318   9.872   4.854   3.715 -0.1355  0.2519 -0.0114
34719W        W41319  11.591   5.489   6.615  0.1350  0.1829  0.1790
34720W        W41320   4.694   5.742  13.814  0.0345 -0.2241 -0.0846
34721W        W41321  11.509   1.233  15.961 -0.0158  0.0159 -0.1934
34722W        W41322  22.988   7.726   6.450 -0.0186 -0.2847  0.0543
34723W        W41323   1.326   7.415   4.626 -0.3857 -0.2655  0.2844
34724W        W41324  16.844   4.356   6.928  0.1953  0.1310 -0.0787
34725W        W41325   3.081   7.339  29.579 -0.1478 -0.2678 -0.0941
34726W        W41326  16.145   1.941   4.820  0.2480 -0.0557  0.1819
34727W        W41327  15.419   1.035  29.926 -0.0798 -0.2000 -0.1683
34728W        W41328  24.977   3.405  22.963 -0.0782  0.0493 -0.1187
34729W        W41329  15.589   3.904   1.378 -0.2532  0.2695  0.1187
34730W        W41330   0.330   5.291  25.599 -0.0585  0.2638 -0.0420
34731W        W41331  11.096   3.029   7.071 -0.1651  0.0997  0.1335
34732W        W41332  18.399   4.692  18.356  0.1727 -0.0022  0.0912
34733W        W41333   7.195   6.674  12.674 -0.1319  0.3505 -0.0362
34734W        W41334   9.008   0.714  27.916 -0.0966 -0.1815  0.0676
34735W        W41335  17.951   7.663  10.207  0.2306  0.0916 -0.1389
34736W        W41336  16.187   4.123  24.346  0.1156 -0.1249 -0.1029
34737W        W41337   3.100   5.638  30.147 -0.0565 -0.0537  0.0374
34738W        W41338  14.137   5.545  10.752 -0.0942  0.0564 -0.0058
34739W        W41339   5.325   0.937   2.014  0.1441 -0.0233 -0.2163
34740W        W41340   1.547   3.889   5.056  0.0498 -0.0109 -0.2454
34741W        W41341   3.858   6.518  29.018 -0.0756 -0.0109  0.0226
34742W        W41342  18.456   5.318   8.114  0.2302 -0.2740 -0.4094
34743W        W41343  19.180   1.519   2.057  0.0701 -0.2671  0.3390
34744W        W41344  15.703   4.861   6.146  0.0578 -0.0248 -0.0022
34745W        W41345   8.729   3.732  26.907 -0.1494  0.0362 -0.0056
34746W        W41346   4.901   7.562  14.496 -0.0743  0.0756  0.0827
34747W        W41347  13.124   4.028   0.277  0.1421  0.3580 -0.2151
34748W        W41348   8.818   2.363  26.349  0.1732  0.0397  0.1975
34749W        W41349  18.240   4.934  25.267 -0.1232  0.0862  0.3628
34750W        W41350  14.812   3.451   2.609 -0.1376  0.1546  0.0516
34751W        W41351   1.285   4.461  28.919  0.0242  0.0297 -0.1829
34752W        W41352   0.653   4.595   7.488  0.2993 -0.1793 -0.3423
34753W        W41353  22.333   0.683  20.917  0.0923  0.0323  0.3945
34754W        W41354   2.146   0.205  21.501  0.1279 -0.0213  0.0634
34755W        W41355  10.199   1.385   4.235 -0.1032  0.1543 -0.1555
34756W        W41356  12.774   1.375   9.871  0.1501  0.0212  0.2160
34757W        W41357   0.992   2.400  16.995  0.0186  0.1497 -0.3245
34758W        W41358  13.531   3.701   6.417  0.0273  0.1178 -0.1429
34759W        W41359   0.662   6.601  27.050 -0.0284  0.3223 -0.0049
34760W        W41360   0.746   6.287  21.315 -0.1471 -0.1254 -0.2115
34761W        W41361   6.622   5.589  28.420  0.0122 -0.1975 -0.0666
34762W        W41362   7.171   7.612  31.241 -0.4121 -0.2398  0.0519
34763W        W41363  18.314   5.917  15.703  0.2815  0.2628  0.1125
34764W        W41364   9.854   1.720   4.075 -0.3046  0.3942  0.0781
34765W        W41365   1.209   3.770   7.457 -0.1170 -0.1029 -0.0643
34766W        W41366   0.724   4.788  27.939 -0.0134  0.0865  0.0076
34767W        W41367  12.506   6.708  32.597 -0.2059  0.1748 -0.2116
34768W        W41368   2.288   4.920  30.260  0.1474  0.3405 -0.0144
34769W        W41369  15.112   3.761  26.990  0.3200  0.1414  0.1188
34770W        W41370  12.372   2.489   7.624 -0.0652  0.0313  0.0873
34771W        W41371  18.688   1.601   2.873 -0.2277  0.0553 -0.1472
34772W        W41372  17.081   0.682  19.766  0.1912  0.1171 -0.2327
34773W        W41373  12.178   4.449   8.936  0.2101 -0.1343 -0.1625
34774W        W41374   2.265   1.843  10.588 -0.1861 -0.2766 -0.1345
34775W        W41375  24.697   1.706  26.018 -0.1604 -0.3408  0.1496
34776W        W41376  22.718   5.736  16.618  0.1911 -0.0465 -0.0474
34777W        W41377  22.270   5.099   4.574  0.1738  0.0209  0.1387
34778W        W41378  21.593   5.213  32.221  0.1009  0.2106  0.3287
34779W        W41379   2.506   2.156  30.687  0.2092 -0.1622  0.0751
34780W        W41380  23.744   3.990   7.222 -0.0729 -0.2379 -0.0023
34781W        W41381   7.680   6.345  26.877  0.1786 -0.1420  0.2078
34782W        W41382   8.703   6.311  17.101 -0.0511 -0.0586 -0.1017
34783W        W41383   2.419   3.305   5.104 -0.2442 -0.4519 -0.1147
34784W        W41384  15.767   7.298  23.139  0.0754 -0.1882  0.1304
34785W        W41385  24.460   3.053  17.391  0.2127 -0.0957  0.2318
34786W        W41386  16.368   5.574   5.935 -0.2271  0.1206  0.2958
34787W        W41387   8.821   5.525  32.274 -0.2838  0.0349 -0.2095
34788W        W41388  11.423   6.875  25.996  0.0661 -0.0084 -0.0161
34789W        W41389  17.606   5.736   1.754  0.1601 -0.1102  0.0484
34790W        W41390   2.400   3.778   3.462  0.2109 -0.3491 -0.3321
34791W        W41391  23.841   3.903  16.977  0.1786 -0.2460  0.3054
34792W        W41392  10.555   3.700  28.922 -0.0710  0.0162  0.1439
34793W        W41393   6.733   7.037  31.150  0.0786 -0.1298  0.1717
34794W        W41394   9.365   1.695  14.379 -0.0510 -0.0539 -0.0401
34795W        W41395  23.883   7.235  24.262  0.0849 -0.0801  0.0767
34796W        W41396   7.422   5.679  18.245  0.3329 -0.1383  0.0089
34797W        W41397  12.579   0.392  29.196 -0.1936 -0.0586 -0.1295
34798W        W41398   5.779   2.368   3.898 -0.0800 -0.2239  0.1525
34799W        W41399  21.662   6.110   0.260  0.2492 -0.2508  0.2071
34800W        W41400  16.741   4.560  21.964  0.0203 -0.0387 -0.3004
34801W        W41401   1.924   2.665   8.515  0.2511  0.2930 -0.0673
34802W        W41402  11.308   0.840   3.071  0.3031  0.1009 -0.3308
34803W        W41403  23.119   0.970  27.997 -0.1771 -0.0778  0.3202
34804W        W41404   8.351   7.513   2.659  0.3980 -0.0968  0.0070
34805W        W41405   2.916   2.647  12.264  0.0482 -0.0530 -0.0428
34806W        W41406  14.723   4.069   2.861 -0.2230 -0.4276  0.1445
34807W        W41407   2.412   2.916  28.632  0.0601  0.3703 -0.2838
34808W        W41408  23.355   6.172  25.711 -0.0106  0.2144  0.2429
34809W        W41409  18.614   6.686   2.271  0.0761 -0.2683 -0.0486
34810W        W41410   2.561   5.629   1.892 -0.2357 -0.0767  0.1981
34811W        W41411  20.449   3.683  15.975  0.0626 -0.1410  0.2921
34812W        W41412  19.944   0.804   4.826 -0.0455  0.0202  0.0208
34813W        W41413  23.052   3.237   4.386 -0.0404  0.0053 -0.4886
34814W        W41414  13.445   4.271  29.998 -0.2008 -0.3025  0.0790
34815W        W41415   5.990   4.455  13.953 -0.3826 -0.0927  0.1691
34816W        W41416   5.919   4.187   2.456 -0.0623 -0.2462  0.1106
34817W        W41417   9.596   5.374  16.304  0.0476  0.2876 -0.2671
34818W        W41418   9.234   5.533  17.118 -0.2989  0.2926 -0.4256
34819W        W41419  17.780   5.967   7.891  0.1491  0.1220 -0.1344
34820W        W41420   3.396   4.980  10.869  0.0367  0.1488 -0.1098
34821W        W41421  14.353   0.597  22.744  0.2961 -0.0977  0.0622
34822W        W41422  20.422   2.722  24.076 -0.0098 -0.1147 -0.3634
34823W        W41423  17.392   1.610  16.645 -0.1740 -0.0441 -0.0998
34824W        W41424  15.783   5.761   5.461  0.1729  0.1768 -0.1824
34825W        W41425   2.903   2.969  25.700 -0.0194  0.2276  0.1825
34826W        W41426  16.473   5.833  25.584 -0.0177  0.2929 -0.0585
34827W        W41427  17.397   2.337  21.336  0.1277 -0.0969 -0.1415
34828W        W41428   9.494   3.481  12.437  0.0799 -0.0722  0.1040
34829W        W41429  15.907   3.380   4.017  0.2624 -0.2375  0.1415
34830W        W41430   1.042   1.895  10.272  0.1134 -0.2657 -0.1875
34831W        W41431  14.676   2.672  27.093  0.1041 -0.2009 -0.0562
34832W        W41432  12.846   1.900  31.360  0.2227 -0.4053 -0.0261
34833W        W41433  23.990   7.793  16.253  0.0398 -0.1052 -0.1985
34834W        W41434  20.548   2.398  26.678  0.1812 -0.0231  0.2591
34835W        W41435  21.182   4.764   6.809 -0.0983  0.3060  0.1843
34836W        W41436   7.471   3.487  23.631  0.1877  0.0283  0.2033
34837W        W41437   9.655   2.480   0.592  0.2395 -0.3081 -0.2067
34838W        W41438   1.141   1.003   3.829  0.0501  0.1424  0.0773
34839W        W41439  18.144   2.043  32.244 -0.2523 -0.0326 -0.1040
34840W        W41440  18.272   1.252  25.880  0.1385 -0.0904 -0.2749
34841W        W41441   3.990   3.779  30.887  0.1240 -0.0763  0.2448
34842W        W41442   7.146   6.652   4.513 -0.0146 -0.0615  0.2818
34843W        W41443  10.568   5.038  24.916 -0.0456 -0.0155 -0.2414
34844W        W41444   6.306   0.892  23.292 -0.0019  0.0400  0.1679
34845W        W41445  21.081   2.036   3.529 -0.0979  0.1228  0.2171
34846W        W41446  21.963   5.854   4.091  0.1409  0.3356 -0.0247
34847W        W41447  16.482   2.864  26.561 -0.0447  0.1174  0.1201
34848W        W41448  21.672   5.673   8.759 -0.0205  0.1149 -0.0265
34849W        W41449   7.189   7.364   5.975  0.1690 -0.1185  0.0638
34850W        W41450  16.195   2.269  20.561 -0.1080 -0.3745  0.0279
34851W        W41451   2.307   2.559   4.473  0.2996  0.1114 -0.2235
34852W        W41452  21.223   2.278  20.678  0.0317 -0.2167 -0.0344
34853W        W41453  15.535   0.196  19.580 -0.0025  0.2409  0.2065
34854W        W41454  22.512   6.241  25.121  0.0182 -0.1873 -0.3809
34855W        W41455  19.873   1.895   8.105 -0.2101  0.0079  0.2063
34856W        W41456   5.656   4.594   5.227 -0.4685 -0.2011  0.2810
34857W        W41457  22.355   5.093  17.706  0.1282 -0.2320  0.1576
34858W        W41458  20.749   5.443   3.492 -0.2409  0.3409  0.0615
34859W        W41459  23.119   5.033  28.726  0.1125  0.1758  0.1510
34860W        W41460  16.024   1.045   0.969  0.1000  0.1184 -0.0405
34861W        W41461   5.417   1.412  25.761 -0.2081  0.1269  0.1775
34862W        W41462  16.365   2.233  32.401 -0.0795  0.0068 -0.0513
34863W        W41463   0.886   0.422   5.359 -0.0684 -0.2859 -0.1181
34864W        W41464  14.241   4.189   5.502 -0.0968  0.1189  0.2087
34865W        W41465  17.099   2.938   5.711 -0.0851  0.0513 -0.1442
34866W        W41466   8.071   2.329  22.500 -0.2222  0.1392  0.1232
34867W        W41467  15.677   1.583  11.708  0.1358  0.0313 -0.2959
34868W        W41468  22.169   3.729  23.119 -0.3736  0.1662 -0.0484
34869W        W41469  19.055   6.801  27.071  0.0077  0.0335 -0.0246
34870W        W41470  10.842   6.313  24.995 -0.0890  0.0182 -0.3845
34871W        W41471   3.246   6.731  22.328 -0.2296 -0.0435 -0.0920
34872W        W41472  11.473   1.708  23.534 -0.0860 -0.1108  0.0768
34873W        W41473  17.314   4.149   9.403 -0.3429 -0.1823  0.3998
34874W        W41474   9.833   1.192  14.675 -0.0936  0.0232 -0.1748
34875W        W41475   0.492   1.179  10.717 -0.0549  0.1534  0.1117
34876W        W41476   5.231   6.545  31.377  0.1539  0.0688  0.2968
34877W        W41477   1.836   7.184  10.514  0.1720  0.1919 -0.0675
34878W        W41478   7.624   4.846   7.873 -0.0277 -0.1142  0.0846
34879W        W41479  12.204   1.539   9.011  0.2069  0.0600 -0.0626
34880W        W41480  12.386   4.989  11.802  0.3230  0.0343 -0.1578
34881W        W41481  24.906   7.221   4.597 -0.3524  0.0620 -0.1091
34882W        W41482  23.381   5.856  17.696  0.1417 -0.1715  0.0910
34883W        W41483  20.044   7.182  15.942 -0.1525  0.0750 -0.1232
34884W        W41484  14.112   4.501   4.473 -0.1986  0.0818 -0.3087
34885W        W41485  15.613   0.677  19.810  0.1167  0.1598  0.1559
34886W        W41486  23.845   5.544  26.011 -0.0666 -0.0952  0.1812
34887W        W41487   0.293   3.180  22.688  0.0779  0.0890  0.2490
34888W        W41488   0.528   3.106   0.708 -0.2059  0.1385 -0.1490
34889W        W41489  13.003   1.857   6.104 -0.1300  0.2887  0.1600
34890W        W41490  23.299   1.574   3.745  0.1150  0.2484 -0.3297
34891W        W41491   1.732   7.375  24.610 -0.1538 -0.2168 -0.0886
34892W        W41492   9.735   3.883  22.717 -0.0099 -0.3146  0.0675
34893W        W41493  16.325   3.511   8.836  0.1892  0.1084  0.3758
34894W        W41494  19.271   2.793   4.460 -0.2490  0.1675  0.1574
34895W        W41495   5.381   4.387   8.180 -0.1885 -0.0871  0.0874
34896W        W41496  21.767   7.135   1.212  0.0815  0.1318 -0.0947
34897W        W41497   9.723   7.734  30.105 -0.0424 -0.1096 -0.1219
34898W        W41498   1.657   2.209   3.819  0.2640  0.2803  0.2518
34899W        W41499  11.499   7.454   0.409  0.2872  0.0964  0.1020
34900W        W41500   8.212   3.897   3.143 -0.0538 -0.1866 -0.0404
34901W        W41501  11.281   6.446   1.247 -0.2906  0.0599 -0.3508
34902W        W41502  17.721   0.411  30.732  0.3195  0.0164  0.1640
34903W        W41503  17.563   6.891  30.755  0.0175  0.1529  0.0622
34904W        W41504  17.460   3.019   5.227  0.0172 -0.1668  0.3861
34905W        W41505  16.125   1.198  28.221  0.1190 -0.0301  0.1977
34906W        W41506  15.702   1.673   2.333  0.0471 -0.1400 -0.1573
34907W        W41507   5.854   2.921   0.232 -0.1105 -0.1551 -0.2138
34908W        W41508   9.956   1.605  21.940 -0.0023 -0.0825 -0.2073
34909W        W41509  16.912   5.046   7.406 -0.0943 -0.0655  0.1573
34910W        W41510  13.900   0.463   7.798  0.1412 -0.1250  0.0415
34911W        W41511  20.378   2.761  29.055 -0.0723  0.2910  0.1665
34912W        W41512   6.903   3.400  22.793 -0.0180 -0.2439  0.1640
34913W        W41513  21.683   3.410  28.416  0.1390 -0.0363 -0.0171
34914W        W41514  15.616   7.108  20.632  0.2174  0.0090 -0.0320
34915W        W41515   0.550   7.288   6.657  0.1497  0.0071 -0.0721
34916W        W41516  20.095   3.757   4.791 -0.2016  0.0688 -0.1929
34917W        W41517  20.556   6.268  23.307  0.0114 -0.3374  0.1706
34918W        W41518   4.975   2.647  15.507 -0.0056  0.0288  0.1515
34919W        W41519  15.693   6.770  23.132  0.2286  0.2568 -0.2456
34920W        W41520  19.430   0.846  10.668  0.0463 -0.1212  0.1652
34921W        W41521   8.539   7.635  22.593  0.3292 -0.2151 -0.2159
34922W        W41522   7.579   7.728  24.839 -0.1317 -0.1314 -0.0308
34923W        W41523  11.454   3.429  24.154  0.2456 -0.1506 -0.0634
34924W        W41524   5.426   0.336  26.833  0.0524 -0.1594  0.0167
34925W        W41525  17.479   5.174   9.792 -0.2213 -0.0891 -0.0268
34926W        W41526  19.663   7.776  23.568 -0.1431 -0.1806  0.2209
34927W        W41527   6.252   3.017   4.786  0.0094 -0.0961 -0.2062
34928W        W41528  19.563   1.158  18.745  0.1255 -0.0480 -0.1220
34929W        W41529  20.738   5.001  16.071  0.2330 -0.1981  0.0318
34930W        W41530  21.853   5.591  18.316  0.2032 -0.1453  0.0816
34931W        W41531  11.163   1.053   2.382  0.2587 -0.1620  0.0484
34932W        W41532   3.567   6.552  32.571  0.0317  0.0407  0.0250
34933W        W41533  16.838   4.432  23.447  0.4072 -0.0726 -0.1670
34934W        W41534  21.467   3.499  19.113 -0.2987 -0.0045  0.2289
34935W        W41535  13.045   0.708   1.839  0.1007 -0.2505 -0.2174
34936W        W41536  19.369   7.311  29.998  0.1292  0.0027  0.0970
34937W        W41537  18.309   6.762   0.266  0.2734  0.2270 -0.2406
34938W        W41538   4.665   7.132  22.483  0.1797  0.1924  0.1944
34939W        W41539   9.891   4.108   2.517  0.1902  0.2695 -0.1955
34940W        W41540   5.573   1.437   6.560  0.0570 -0.1089 -0.0601
34941W        W41541   0.203   6.895  23.468 -0.0435 -0.2037  0.1994
34942W        W41542  24.343   0.520  29.598  0.3967 -0.3568  0.3564
34943W        W41543  11.025   0.926  24.116  0.0661  0.1080  0.0373
34944W        W41544   9.020   4.125  13.334 -0.0634  0.2358 -0.1894
34945W        W41545   2.072   5.016  24.462 -0.0275  0.1400 -0.1616
34946W        W41546  15.359   4.309  32.401  0.2943 -0.1883 -0.0090
34947W        W41547   3.849   4.622   6.534  0.2372 -0.1029 -0.1909
34948W        W41548  16.336   7.374   9.046 -0.1483 -0.1920 -0.0064
34949W        W41549  18.017   1.062  32.248 -0.1464  0.2727 -0.3139
34950W        W41550   0.177   7.664  22.076 -0.2746  0.1640 -0.0425
34951W        W41551  22.844   5.020  30.500  0.0977 -0.1219  0.0104
34952W        W41552  16.830   1.526  26.662  0.1594 -0.0925  0.0880
34953W        W41553  16.922   1.605  32.375  0.1844 -0.1185  0.2867
34954W        W41554   4.980   5.386   4.928 -0.1755  0.0387 -0.0441
34955W        W41555   2.404   1.385   0.031  0.3759 -0.0624 -0.1338
34956W        W41556  12.139   7.334  12.009 -0.1595  0.1489 -0.4878
34957W        W41557  17.372   7.288   9.569 -0.0994  0.0670 -0.2086
34958W        W41558   4.734   1.181  27.545 -0.0630 -0.0984 -0.0274
34959W        W41559  13.920   1.902  23.399  0.1445  0.0850 -0.0169
34960W        W41560   5.793   7.527   9.509  0.1926 -0.0267  0.0881
34961W        W41561   1.696   6.235   7.167  0.1546  0.1908  0.3308
34962W        W41562   2.228   7.160  20.488 -0.0034  0.0861 -0.2478
34963W        W41563  16.295   7.143   4.220  0.1363  0.0830 -0.0481
34964W        W41564  16.172   1.381   6.161 -0.2707  0.1957  0.0013
34965W        W41565   9.178   5.481   7.547  0.2725  0.2259 -0.1436
34966W        W41566  17.406   0.204  16.930 -0.1124 -0.1325 -0.1288
34967W        W41567  17.747   6.254   5.196 -0.0176  0.1456  0.2146
34968W        W41568   1.986   5.685   9.763  0.1225  0.1200  0.0587
34969W        W41569  15.259   5.660  28.732 -0.1236 -0.0352  0.1988
34970W        W41570  12.133   6.803   0.190 -0.0650  0.0823  0.4570
34971W        W41571   5.833   1.443   5.979  0.1589  0.0000 -0.2078
34972W        W41572  19.977   2.691  30.433 -0.3817 -0.0383  0.0267
34973W        W41573  14.847   2.423  28.568  0.4464 -0.1908 -0.0316
34974W        W41574   1.205   0.334  30.599  0.2599 -0.0208 -0.2684
34975W        W41575  19.397   2.633  17.946 -0.0573  0.0966 -0.2823
34976W        W41576  14.036   0.928  32.020  0.0379 -0.0658  0.2315
34977W        W41577   8.990   2.189   4.340  0.1805  0.0254  0.1528
34978W        W41578   0.143   7.185  30.747  0.0982 -0.0188 -0.2831
34979W        W41579  17.610   4.495   2.075  0.4424  0.3423 -0.1979
34980W        W41580  20.508   3.225  31.790 -0.0086  0.1439  0.2324
34981W        W41581  23.986   2.273   7.881 -0.0243  0.0755 -0.1424
34982W        W41582  24.729   4.014  29.424 -0.3312 -0.0088  0.0348
34983W        W41583   7.002   2.448   2.520 -0.1661 -0.2021  0.0842
34984W        W41584  24.666   3.735   0.505 -0.1354 -0.1693  0.1651
34985W        W41585  10.118   5.602   2.056  0.0309 -0.1047  0.0692
34986W        W41586   9.634   2.259  16.190  0.0679  0.1234 -0.1079
34987W        W41587  12.043   2.433  30.291 -0.0820  0.0408 -0.1132
34988W        W41588   2.326   5.129   1.863  0.1748 -0.1472  0.1248
34989W        W41589  24.780   1.687  16.159 -0.2807  0.1742  0.0608
34990W        W41590   8.178   0.627  24.978 -0.2222  0.1805  0.0773
34991W        W41591  17.055   7.757   3.332  0.0795  0.0814  0.0722
34992W        W41592  19.383   5.138  32.267  0.1058 -0.0007 -0.2398
34993W        W41593   3.273   4.185  26.813 -0.1244 -0.3454 -0.3749
34994W        W41594   1.798   7.307   4.820 -0.1890 -0.2493 -0.2615
34995W        W41595   1.068   5.806   6.344  0.1326 -0.0450  0.0907
34996W        W41596  21.469   6.065  23.001 -0.0796 -0.2319  0.2831
34997W        W41597  10.033   2.199   3.914  0.1758  0.3275  0.0867
34998W        W41598  18.328   4.005  22.513 -0.1282 -0.0865  0.3232
34999W        W41599  15.924   1.441   3.949  0.3314  0.1033  0.0935
35000W        W41600  13.070   2.856  21.510  0.0525 -0.0829  0.0000
35001W        W41601   7.092   5.469  28.240  0.1049 -0.0035  0.2455
35002W        W41602  12.072   5.406   1.763  0.0903  0.1157 -0.1754
35003W        W41603  15.645   6.496   0.517 -0.0777 -0.0051  0.1098
35004W        W41604  23.791   2.289  24.502  0.0920 -0.1227 -0.3162
35005W        W41605  23.497   5.727  16.804  0.1946  0.2040 -0.3625
35006W        W41606   7.138   4.483  17.964  0.2676  0.2046 -0.0516
35007W        W41607   4.991   2.093   8.817  0.1048  0.3027  0.3891
35008W        W41608  16.913   2.728  18.468 -0.1017  0.0931 -0.1260
35009W        W41609   7.204   2.416   0.239  0.1270  0.1557  0.2268
35010W        W41610  15.260   3.175   4.259 -0.1936 -0.0279 -0.3148
35011W        W41611  13.062   0.561  10.084 -0.0116 -0.0412  0.1234
35012W        W41612  10.386   4.875  23.095 -0.3549 -0.0821  0.1539
35013W        W41613   5.729   1.847  32.355 -0.1602  0.0865  0.0323
35014W        W41614  10.789   1.218  22.242  0.0757  0.2153 -0.0054
35015W        W41615   1.605   5.958  25.622  0.1623 -0.0296 -0.0754
35016W        W41616  21.049   7.492  30.154 -0.0800 -0.1708  0.2888
35017W        W41617  17.504   2.417   3.209 -0.0517  0.1632 -0.1112
35018W        W41618  19.188   5.386   5.771  0.0790 -0.1261 -0.1173
35019W        W41619  11.328   0.662  28.380 -0.1026 -0.1162  0.1070
35020W        W41620  19.096   4.810  15.920 -0.1065 -0.0049 -0.1028
35021W        W41621  17.085   2.787   3.602  0.0633 -0.0833  0.1814
35022W        W41622   0.732   1.352  20.371  0.3038  0.3234 -0.1906
35023W        W41623   6.036   7.668  15.148 -0.4287  0.0590  0.0501
35024W        W41624   0.014   1.202   3.805 -0.1286 -0.1873 -0.0078
35025W        W41625  20.079   6.514  31.668 -0.1755  0.1669  0.1890
35026W        W41626  24.127   4.619  21.645 -0.1122  0.1428  0.3197
35027W        W41627  19.351   3.164  16.639  0.0918  0.0752 -0.2879
35028W        W41628  16.202   5.620  21.535  0.1158 -0.0825 -0.1315
35029W        W41629   1.271   6.895   6.684 -0.3257 -0.1211 -0.0288
35030W        W41630  18.465   7.112  31.979  0.0397 -0.0446 -0.2023
35031W        W41631   2.495   0.745   2.032 -0.0617  0.0924 -0.0596
35032W        W41632   7.811   1.936   2.282  0.1622  0.1449  0.0867
35033W        W41633  23.414   0.784   5.487  0.0085  0.0227  0.0416
35034W        W41634  21.277   2.245   2.756 -0.0899  0.0326 -0.1703
35035W        W41635  10.112   3.418   1.957  0.1583 -0.1390 -0.0137
35036W        W41636  20.932   0.059  10.060 -0.2481  0.2853 -0.1371
35037W        W41637  24.464   0.928   6.684 -0.1725 -0.1400  0.1113
35038W        W41638  16.415   6.724   5.457 -0.0430  0.2641  0.2697
35039W        W41639  22.530   2.753  16.896 -0.1328  0.0293 -0.0908
35040W        W41640   4.378   6.543   4.867 -0.1990  0.2042  0.1114
35041W        W41641   0.001   0.779  31.245  0.2656  0.0264  0.1159
35042W        W41642   2.162   5.889   2.196 -0.2230  0.4369  0.0304
35043W        W41643  13.539   6.315  30.631 -0.4202 -0.1112 -0.0183
35044W        W41644  20.653   2.672  27.877  0.1442  0.1634  0.0298
35045W        W41645  14.400   4.547   1.113  0.1341  0.1347  0.0345
35046W        W41646   9.143   3.767  29.225 -0.0478  0.0512  0.1835
35047W        W41647   5.246   6.365  12.450 -0.0385 -0.2359  0.1154
35048W        W41648  24.724   4.330  16.847 -0.0820 -0.0765  0.0982
35049W        W41649   0.069   1.965   6.309 -0.0604 -0.0292  0.1945
35050W        W41650  14.795   7.336  27.435 -0.0465  0.4731 -0.0780
35051W        W41651   2.588   0.793  30.353  0.2371 -0.3081 -0.0690
35052W        W41652  10.355   3.731  30.023 -0.1638 -0.0713 -0.1016
35053W        W41653   2.168   4.166  31.036  0.0163 -0.1256  0.1611
35054W        W41654  18.406   3.365   7.762 -0.1257 -0.2808 -0.3141
35055W        W41655  18.351   6.607   7.504 -0.1338  0.0962  0.0956
35056W        W41656   2.483   6.145   2.781  0.2180  0.1916 -0.0420
35057W        W41657   1.024   2.162  27.689 -0.1487 -0.2382 -0.1523
35058W        W41658  16.673   7.061  28.178  0.0477  0.2120  0.1524
35059W        W41659  16.108   6.504   8.550  0.1078  0.1143 -0.0890
35060W        W41660  17.593   0.214   5.414  0.0632 -0.1108  0.1233
35061W        W41661  19.780   7.147  17.842  0.1629  0.1467 -0.1588
35062W        W41662   3.793   6.439  29.943 -0.0398  0.4103 -0.2331
35063W        W41663   7.379   5.274   1.872 -0.0700  0.0712  0.0112
35064W        W41664   3.594   3.212  24.508 -0.0772  0.2036  0.1371
35065W        W41665  14.650   3.836  27.365 -0.5041  0.1353  0.0664
35066W        W41666  20.901   3.006   5.143  0.0802  0.1348  0.0161
35067W        W41667   3.900   2.245  31.341 -0.0000  0.3361  0.1439
35068W        W41668   5.665   6.504   4.134  0.1372  0.2225 -0.0631
35069W        W41669  10.987   2.161  16.933  0.3376 -0.1644  0.3195
35070W        W41670  16.266   5.654  10.413 -0.2514  0.0547  0.1237
35071W        W41671  16.352   0.344   2.017 -0.2749 -0.3973  0.1280
35072W        W41672   1.930   5.096  25.933  0.0803  0.0488  0.1696
35073W        W41673  16.608   1.591  19.534  0.2545 -0.0593 -0.2049
35074W        W41674   8.821   5.653  27.983 -0.1354  0.5560  0.0102
35075W        W41675   6.091   2.755   7.571  0.3966  0.1215 -0.1201
35076W        W41676  20.806   0.415  26.929  0.1599  0.0616  0.2644
35077W        W41677   0.496   6.488   8.978 -0.0805  0.0191 -0.1642
35078W        W41678  24.853   7.658  16.437  0.1426 -0.0451 -0.0380
35079W        W41679  19.733   7.262  31.306 -0.0698  0.1717 -0.0075
35080W        W41680  16.632   5.359   8.047 -0.0486  0.0174 -0.0004
35081W        W41681   0.453   4.982   5.418 -0.2316  0.0109  0.0451
35082W        W41682   8.367   1.269  25.130 -0.0340 -0.1473  0.0435
35083W        W41683   5.648   1.198  10.347 -0.0843  0.1643  0.0000
35084W        W41684  23.354   0.706  23.547  0.0707  0.0255 -0.1844
35085W        W41685   3.108   1.512  23.164 -0.2742 -0.0971  0.3364
35086W        W41686  17.245   6.448  22.717 -0.2821  0.0863  0.1222
35087W        W41687  15.382   4.746  31.069 -0.0472 -0.1348  0.3230
35088W        W41688   9.260   4.144   8.872 -0.1134  0.1033  0.0876
35089W        W41689  17.006   1.638  18.968 -0.2972 -0.0572 -0.1077
35090W        W41690  17.602   0.196  28.095 -0.1708  0.1736 -0.0615
35091W        W41691   7.571   5.124  11.584  0.0152  0.0445  0.1560
35092W        W41692   5.231   0.555   0.272 -0.0855  0.0721  0.2136
35093W        W41693  21.975   3.974   0.306 -0.2552 -0.1012  0.1365
35094W        W41694  24.858   3.189  30.161  0.1235  0.2275  0.1702
35095W        W41695  17.301   4.334  11.308 -0.0027  0.0307  0.0658
35096W        W41696  17.883   0.584   0.372 -0.0629 -0.0045  0.1669
35097W        W41697  24.982   4.096  21.588 -0.5345 -0.1861  0.1157
35098W        W41698   7.659   0.939  32.652 -0.0187  0.1291 -0.1470
35099W        W41699  11.058   4.082  14.504  0.2460 -0.0639 -0.3162
35100W        W41700   1.611   1.488  24.305  0.2021  0.0742  0.1991
35101W        W41701   2.385   5.885   5.720  0.0311 -0.2426  0.2701
35102W        W41702  12.161   3.454   2.328 -0.0284 -0.1809  0.1378
35103W        W41703   1.782   6.658  10.177  0.2167  0.0151  0.0633
35104W        W41704  18.026   2.920  32.078 -0.0733 -0.0224 -0.1173
35105W        W41705  13.248   7.645  30.776 -0.2056  0.4152 -0.1121
35106W        W41706  13.742   3.402  30.326 -0.1884 -0.1654 -0.1248
35107W        W41707  22.909   0.948  24.547 -0.2940 -0.1582 -0.0644
35108W        W41708  18.281   6.883  19.162 -0.1307  0.0464  0.0662
35109W        W41709  21.134   6.226  29.969 -0.1730 -0.0292 -0.0351
35110W        W41710   6.913   0.897  24.833  0.0629  0.2034 -0.0626
35111W        W41711  24.195   2.607  24.643 -0.0738  0.0364  0.0181
35112W        W41712   5.873   3.350  11.034 -0.2111 -0.0514 -0.1209
35113W        W41713   4.119   0.313  29.553 -0.1722 -0.2292  0.3160
35114W        W41714  24.823   4.824  17.767  0.1735  0.0729 -0.0560
35115W        W41715  16.792   7.285  30.479 -0.1269  0.0173 -0.0330
35116W        W41716  23.002   6.857  17.433  0.0465 -0.0650  0.0761
35117W        W41717  10.323   7.483  14.582 -0.0986  0.2653 -0.0663
35118W        W41718  14.663   2.663  25.269  0.2514  0.0601 -0.4542
35119W        W41719   1.844   1.374  28.159  0.2587  0.0912 -0.1935
35120W        W41720  14.157   1.512  23.126 -0.0990  0.3458  0.0929
35121W        W41721  11.507   5.672   3.342  0.1065  0.2691  0.0984
35122W        W41722   2.716   5.462  26.083 -0.1790  0.1606 -0.0981
35123W        W41723   2.401   1.447   6.723 -0.2352  0.2688  0.0180
35124W        W41724   3.779   4.288   3.361 -0.0313 -0.3384 -0.0114
35125W        W41725   1.657   2.094   1.759 -0.2123 -0.1548 -0.1360
35126W        W41726  17.727   1.008   1.243  0.0102  0.1491  0.3544
35127W        W41727   3.275   1.431  13.782 -0.2246 -0.1641  0.0540
35128W        W41728  18.320   3.188  32.602  0.3711 -0.1757 -0.1512
35129W        W41729  12.801   7.372  23.637 -0.0880  0.0178  0.1107
35130W        W41730  11.316   5.050  10.460 -0.0227  0.0541  0.0763
35131W        W41731   0.602   1.748  10.085  0.0709 -0.3528  0.2546
35132W        W41732   2.207   2.618  27.715  0.0687 -0.2518 -0.1981
35133W        W41733  12.968   0.902   5.242 -0.0200 -0.2295 -0.4579
35134W        W41734   1.545   2.665   3.547  0.4046 -0.0695 -0.0078
35135W        W41735   0.939   0.491  28.706  0.0078 -0.1559 -0.2215
35136W        W41736   9.248   7.662  16.292 -0.0473 -0.2095 -0.0677
35137W        W41737  12.826   3.834   2.640  0.0299 -0.1226 -0.0009
35138W        W41738  10.241   6.861  14.574  0.0133  0.2637 -0.0267
35139W        W41739  24.184   5.857  25.251  0.1188 -0.3888 -0.2844
35140W        W41740  21.695   6.581  16.617 -0.0342  0.0598 -0.1163
35141W        W41741  20.585   3.713  25.281  0.3638 -0.0374 -0.0952
35142W        W41742  12.676   3.476  21.982 -0.2894  0.0680 -0.0203
35143W        W41743  23.825   2.600  20.872 -0.0894  0.0219  0.1244
35144W        W41744  10.039   5.363   4.167  0.4563  0.2101  0.0625
35145W        W41745  13.975   0.486   0.868 -0.0566  0.0563 -0.2951
35146W        W41746  15.699   0.541   8.261 -0.0150 -0.1162 -0.0558
35147W        W41747  21.020   0.266   9.604  0.2797  0.1332  0.0540
35148W        W41748  14.121   6.756   9.926 -0.0014 -0.1341  0.0300
35149W        W41749  12.163   5.328  13.803 -0.1238 -0.1562 -0.0544
35150W        W41750   5.945   4.296  11.180 -0.0848 -0.1042  0.0540
35151W        W41751  12.419   7.002  28.235 -0.0524 -0.1793  0.0853
35152W        W41752  18.635   4.168   1.705  0.0684 -0.0066 -0.0183
35153W        W41753   9.453   5.405  24.134 -0.0910  0.0835  0.1801
35154W        W41754  10.319   3.726   9.739  0.1769 -0.1260  0.2124
35155W        W41755  23.589   4.899  29.551 -0.1046 -0.3340 -0.0791
35156W        W41756  16.878   0.755   1.485 -0.1753 -0.0224 -0.0210
35157W        W41757  11.950   0.486   0.159  0.1785 -0.0681  0.2962
35158W        W41758  10.477   5.735  13.692  0.0745  0.1281  0.0089
35159W        W41759   1.611   4.719  20.361 -0.1325  0.1867 -0.3919
35160W        W41760  15.304   6.960  19.741  0.0511 -0.1639 -0.0149
35161W        W41761  10.697   2.031  15.538  0.0448  0.0720  0.0865
35162W        W41762   6.196   4.714  30.018  0.1674  0.0218  0.0525
35163W        W41763  22.727   5.099  30.038  0.1823 -0.1435  0.2059
35164W        W41764   0.289   0.813   6.810 -0.5188 -0.0855 -0.1491
35165W        W41765   4.780   2.873   0.595 -0.2121 -0.0029  0.1023
35166W        W41766   7.357   5.388   7.437 -0.3087  0.0943 -0.0152
35167W        W41767   6.483   5.802   4.053 -0.0554 -0.2512 -0.1557
35168W        W41768  23.855   2.167  31.321  0.0115 -0.0033  0.1929
35169W        W41769  23.635   4.181  30.549 -0.2489 -0.0461 -0.0449
35170W        W41770   8.472   4.758  10.780  0.1758  0.2635  0.1107
35171W        W41771   7.398   3.139   5.281  0.0592  0.1392 -0.0004
35172W        W41772  14.138   5.628  21.734 -0.1015  0.0996  0.3241
35173W        W41773  13.036   6.163   0.587 -0.1274 -0.1665  0.0855
35174W        W41774  15.293   3.718   3.450 -0.1469  0.0986  0.0409
35175W        W41775   5.681   6.058   3.562 -0.0481 -0.0400 -0.4155
35176W        W41776  20.636   2.518  18.676 -0.2117 -0.0307 -0.2731
35177W        W41777   5.865   0.234  26.476  0.0868 -0.1140  0.1514
35178W        W41778  20.939   7.443  16.592  0.0136  0.1750 -0.1344
35179W        W41779  23.502   6.947  30.894 -0.1397 -0.1251  0.0391
35180W        W41780  23.361   5.244  24.481 -0.1179  0.0454 -0.1261
35181W        W41781  18.499   0.708  10.581  0.3028 -0.0681 -0.2461
35182W        W41782  22.813   5.234   2.568 -0.2849  0.3089  0.1018
35183W        W41783  12.561   1.329  24.069 -0.0067  0.0065  0.0142
35184W        W41784  19.050   0.738  25.460 -0.1468  0.2061  0.0647
35185W        W41785  18.157   2.971   6.925  0.1644 -0.1143 -0.1005
35186W        W41786  14.632   4.879  11.960  0.0152  0.1410  0.4922
35187W        W41787  10.981   6.091  11.973 -0.0022  0.0828 -0.2035
35188W        W41788  12.466   4.310  22.468 -0.2696 -0.0748  0.0299
35189W        W41789  16.680   6.778  23.125 -0.2608 -0.1618 -0.3642
35190W        W41790  24.561   5.774   3.633  0.0590 -0.0688 -0.1310
35191W        W41791   0.488   1.002  29.163  0.2977  0.0475 -0.0411
35192W        W41792  11.663   1.110   2.785  0.1808 -0.1360  0.2549
35193W        W41793  21.735   1.300  27.523 -0.2461 -0.0925 -0.0637
35194W        W41794   9.928   2.321  22.054 -0.1357 -0.1204 -0.2397
35195W        W41795  17.721   6.241  18.892  0.0495 -0.0444 -0.0347
35196W        W41796   5.706   5.433  11.203 -0.0657 -0.2753 -0.0961
35197W        W41797   7.108   3.684  18.165 -0.1778  0.1044  0.0200
35198W        W41798  17.059   0.211  23.039  0.0398  0.1043  0.0434
35199W        W41799   3.362   3.290  22.846  0.3476  0.2112  0.3544
35200W        W41800  15.549   3.392   3.141 -0.2111 -0.1646 -0.1469
35201W        W41801  24.681   3.594  20.303 -0.1738 -0.0883  0.1099
35202W        W41802   1.071   6.454   1.922 -0.1638 -0.2024  0.0998
35203W        W41803  15.646   3.471   9.437 -0.0235  0.0105  0.0909
35204W        W41804  20.301   4.894  25.180 -0.3170 -0.2019 -0.2064
35205W        W41805  19.980   7.507  16.322 -0.1376 -0.1122  0.2612
35206W        W41806  24.754   3.970  32.327 -0.0270  0.2828  0.2687
35207W        W41807   7.956   7.273  27.005  0.1497  0.0109  0.1663
35208W        W41808   5.650   4.056  30.126  0.0302 -0.2064  0.1533
35209W        W41809   3.093   7.365   7.484  0.0109 -0.2343  0.1253
35210W        W41810   7.196   7.700   7.165  0.1859 -0.0139  0.1002
35211W        W41811   3.229   6.421  29.847  0.0834  0.3412 -0.1473
35212W        W41812  17.854   2.792   3.326  0.0898 -0.2581 -0.1230
35213W        W41813   0.817   1.763   1.199  0.0087  0.1596  0.2467
35214W        W41814  12.918   7.353   2.457  0.1856  0.1293  0.2355
35215W        W41815  13.700   5.185  31.617  0.0705  0.2582 -0.1999
35216W        W41816  22.526   1.429   6.756 -0.1131  0.1435  0.2302
35217W        W41817   3.436   1.693  12.882 -0.0268  0.1337  0.1186
35218W        W41818   4.645   7.145   7.549  0.2579  0.1176 -0.5133
35219W        W41819  17.066   3.262   7.235  0.1613  0.1794 -0.0650
35220W        W41820  20.419   3.479   7.259  0.3516 -0.2058  0.0671
35221W        W41821   2.568   7.533  20.674  0.3825 -0.0978 -0.0070
35222W        W41822  11.710   1.771  29.291  0.2217  0.0908 -0.0401
35223W        W41823  22.544   3.481  25.217  0.0268  0.1778 -0.2196
35224W        W41824  13.606   4.376  31.200  0.0411 -0.0360 -0.2556
35225W        W41825   5.865   5.638  32.182  0.1989  0.0372 -0.0269
35226W        W41826   2.493   6.330   0.623 -0.2470 -0.0135 -0.0109
35227W        W41827   7.994   2.498   3.387  0.2256  0.0751  0.0691
35228W        W41828  24.396   7.233  24.458 -0.0386 -0.2357 -0.1797
35229W        W41829  10.701   0.429  32.253  0.1179  0.2322 -0.0804
35230W        W41830  23.091   3.942  25.870 -0.0770  0.1395  0.2464
35231W        W41831  12.594   3.134  28.925  0.0919  0.0654 -0.0852
35232W        W41832  19.866   6.745  16.019 -0.0527  0.1537  0.0269
35233W        W41833  19.446   2.958   1.734  0.0219  0.2921 -0.0120
35234W        W41834   1.057   3.416  29.323  0.2636  0.2594  0.0070
35235W        W41835  17.944   5.747   3.009 -0.1285 -0.1061 -0.0105
35236W        W41836   5.350   6.074   0.987 -0.0544  0.0350  0.2964
35237W        W41837  21.199   3.995  27.267 -0.1770 -0.1096  0.3258
35238W        W41838   7.201   4.631   8.842 -0.1063 -0.0772  0.3156
35239W        W41839   7.046   3.214  17.412  0.2789  0.1999 -0.1694
35240W        W41840   8.646   1.154  28.587 -0.1563  0.0631 -0.2100
35241W        W41841  13.616   4.568  32.226 -0.1019  0.1230  0.0413
35242W        W41842  21.507   2.726   8.469  0.1023 -0.1333  0.1430
35243W        W41843  19.641   4.591  22.280 -0.1072  0.1090  0.1128
35244W        W41844  10.925   5.426   8.384  0.1638  0.0680  0.2440
35245W        W41845  16.793   2.014  28.689 -0.0022  0.0434 -0.1723
35246W        W41846  16.478   6.329   2.758  0.0773 -0.1812  0.0322
35247W        W41847  19.619   1.277  28.866 -0.0577 -0.1041 -0.2665
35248W        W41848  11.845   7.770   0.286  0.0495  0.4397 -0.0829
35249W        W41849  21.400   5.336   8.158 -0.1032  0.0793 -0.0458
35250W        W41850   0.294   2.076  31.896  0.0075 -0.0393  0.3229
35251W        W41851   9.112   0.610   9.720  0.0558 -0.1820  0.0332
35252W        W41852   7.454   0.400   1.880  0.1401 -0.1989  0.1065
35253W        W41853   0.133   0.605   8.993 -0.2495 -0.0335 -0.0848
35254W        W41854  16.249   1.650  27.368  0.2148 -0.1338  0.1823
35255W        W41855  19.449   6.914   9.129  0.0856 -0.4269  0.0379
35256W        W41856   8.491   0.863  23.544  0.1388  0.1031 -0.3259
35257W        W41857   7.586   2.145  29.510  0.0791  0.3255  0.1479
35258W        W41858  16.343   7.603  26.834 -0.1441  0.2123 -0.0417
35259W        W41859  21.781   7.764   1.988  0.2082 -0.3309 -0.0569
35260W        W41860   0.191   2.822  10.270  0.2001  0.2067 -0.0344
35261W        W41861   0.331   1.698  22.001 -0.0677  0.2879  0.0879
35262W        W41862   6.804   7.378  31.560 -0.2819  0.0552 -0.0910
35263W        W41863   8.183   3.588  16.691 -0.0658  0.1313  0.1588
35264W        W41864  24.679   1.855  32.391 -0.1963  0.1625 -0.1523
35265W        W41865   8.469   7.818   6.137 -0.1530 -0.0011  0.0814
35266W        W41866  10.363   0.744   7.206  0.0336 -0.1552  0.2591
35267W        W41867   1.967   5.944   5.329  0.0926  0.0365 -0.1634
35268W        W41868  22.406   3.021  27.072 -0.1855  0.1345  0.3894
35269W        W41869  17.384   3.057   8.901  0.3305 -0.1044  0.0156
35270W        W41870  13.909   0.929   3.762  0.0671 -0.1152 -0.1543
35271W        W41871   1.388   0.529  27.858  0.0376 -0.0218 -0.0499
35272W        W41872  17.525   6.603  10.940 -0.0498  0.1982  0.1937
35273W        W41873  15.823   0.772  29.684  0.1962 -0.1774 -0.1539
35274W        W41874   6.884   3.049   7.770 -0.0602 -0.0858  0.0092
35275W        W41875   3.427   7.112   9.131  0.1655 -0.0934  0.0201
35276W        W41876   1.708   0.305  25.699 -0.1328 -0.1777 -0.2573
35277W        W41877   9.327   1.735  29.472  0.3269  0.1309  0.2008
35278W        W41878   8.499   4.952  23.271  0.2652 -0.1769  0.4912
35279W        W41879   7.737   3.401   5.011 -0.2631 -0.0304  0.3260
35280W        W41880  10.383   0.657  15.865 -0.3314  0.2073 -0.0873
35281W        W41881   4.573   5.129   2.857  0.1035 -0.1240 -0.3323
35282W        W41882   9.292   1.468  32.331  0.0432 -0.0603 -0.0656
35283W        W41883  22.784   3.491  24.455  0.2569 -0.0479 -0.1179
35284W        W41884  14.063   1.372  22.626 -0.0140  0.0003  0.0299
35285W        W41885  20.339   1.808  30.671 -0.1206  0.3439 -0.1818
35286W        W41886   6.685   7.702   2.671 -0.1650  0.3216  0.0965
35287W        W41887  18.575   7.269   9.512 -0.2325 -0.0716 -0.1337
35288W        W41888  18.772   4.001  20.346  0.1764 -0.0287 -0.1248
35289W        W41889  24.106   7.554   3.236  0.1355 -0.0828  0.0024
35290W        W41890   3.807   0.851  25.952 -0.0770  0.0409 -0.2360
35291W        W41891  20.216   4.987  24.635 -0.3366 -0.0681 -0.0486
35292W        W41892   3.603   6.004  14.593  0.0386 -0.3195  0.2694
35293W        W41893   0.829   6.566   9.370 -0.0855  0.0551  0.4059
35294W        W41894  19.677   6.295   3.254  0.0897 -0.1289 -0.2467
35295W        W41895  21.159   5.755  16.480  0.1083  0.0694  0.1366
35296W        W41896  24.786   0.469  20.583 -0.2379 -0.0225 -0.0758
35297W        W41897   7.789   3.810  17.027  0.1592 -0.2668  0.2768
35298W        W41898   8.992   4.725  10.942  0.0227  0.1077 -0.2223
35299W        W41899  12.070   2.841  11.361 -0.1271  0.1100  0.0458
35300W        W41900  10.894   5.310  17.662  0.0046 -0.0052 -0.2275
35301W        W41901  11.696   5.553  30.229 -0.0475  0.2501 -0.2219
35302W        W41902  17.853   3.765  19.394 -0.0169 -0.2028  0.0026
35303W        W41903  24.324   4.381  26.020 -0.1011 -0.1078 -0.1960
35304W        W41904  13.210   3.493  26.285  0.0300  0.0388 -0.0258
35305W        W41905   2.585   5.109  12.650  0.2705  0.3165 -0.0246
35306W        W41906   5.822   0.524   6.085  0.0806  0.0042 -0.1326
35307W        W41907   6.882   5.871  11.723 -0.2268  0.1432  0.1045
35308W        W41908   7.133   1.837  17.529  0.1318  0.1813 -0.0902
35309W        W41909   4.509   1.482  26.848  0.0369  0.0709 -0.0833
35310W        W41910  14.308   6.992   5.351 -0.1222 -0.0335  0.0848
35311W        W41911  20.668   0.413  17.042 -0.2763  0.2925 -0.5312
35312W        W41912  14.764   0.074  22.166 -0.0105  0.0874 -0.0226
35313W        W41913   3.745   0.689  29.793 -0.3307  0.0235  0.2967
35314W        W41914   6.445   2.431   8.753  0.0015 -0.1359 -0.2284
35315W        W41915   7.509   3.495  31.277 -0.1911 -0.1301 -0.1514
35316W        W41916  13.501   1.968   2.953  0.0162 -0.2499 -0.3481
35317W        W41917  12.062   5.056   3.908 -0.0680 -0.0420 -0.3807
35318W        W41918  11.630   5.143   8.966  0.1393  0.0196 -0.1205
35319W        W41919  23.573   2.483  16.151 -0.1527 -0.0103  0.0535
35320W        W41920   7.104   4.509   6.358  0.0028  0.0963 -0.1290
35321W        W41921  18.071   5.647   5.530 -0.2050  0.2251  0.2273
35322W        W41922  12.157   5.137  26.246 -0.1959 -0.2245  0.1328
35323W        W41923  15.374   1.901   2.075 -0.1438 -0.0786 -0.1452
35324W        W41924   7.559   1.502   2.557 -0.0119 -0.0987 -0.0750
35325W        W41925  17.881   6.158  24.708 -0.1947  0.1106 -0.3091
35326W        W41926  13.456   3.172   6.535 -0.0848 -0.1011  0.1207
35327W        W41927  15.081   0.826  29.100  0.0613  0.0056 -0.0207
35328W        W41928  19.818   0.360  31.163 -0.3030  0.0526 -0.5218
35329W        W41929   5.267   1.242   2.922  0.2182 -0.1822  0.1132
35330W        W41930  18.784   3.438  31.802  0.2469 -0.3549 -0.0944
35331W        W41931   2.476   2.043   0.665  0.0442  0.3886 -0.0503
35332W        W41932  21.131   5.543  30.750 -0.0690  0.1232  0.0351
35333W        W41933  21.576   5.040  29.298 -0.0540  0.0937 -0.1576
35334W        W41934  22.526   2.474  18.320 -0.1270 -0.3619 -0.1213
35335W        W41935  14.711   1.192  19.752 -0.0028  0.1090  0.0909
35336W        W41936  18.481   5.957   6.190 -0.0244  0.0074 -0.0240
35337W        W41937  21.494   1.744  28.317  0.2385 -0.1409 -0.1989
35338W        W41938  14.516   7.771  11.089  0.5173  0.1317 -0.0529
35339W        W41939  22.695   1.688  31.882 -0.0017 -0.0214  0.2234
35340W        W41940  20.554   4.874  31.803  0.0399 -0.1851  0.0271
35341W        W41941  21.020   0.439   3.119  0.2599  0.1787 -0.0135
35342W        W41942   6.638   0.800   7.242  0.3814 -0.0373 -0.0924
35343W        W41943   6.031   6.010   6.094 -0.2834  0.0483 -0.1757
35344W        W41944   0.370   7.367  31.593 -0.2545 -0.2123  0.1645
35345W        W41945  21.589   3.639  18.276 -0.1890  0.2180  0.1763
35346W        W41946   1.161   7.548  18.042 -0.2040 -0.3244  0.0986
35347W        W41947  19.588   6.641  16.463  0.0830 -0.1905  0.0363
35348W        W41948   3.208   6.596  27.935 -0.1044  0.0230  0.2829
35349W        W41949  14.221   3.657   1.789 -0.1822  0.1383  0.2103
35350W        W41950  16.506   1.991  27.748 -0.2892  0.0967 -0.0988
35351W        W41951  15.695   1.742  26.725  0.0431 -0.0202 -0.2695
35352W        W41952  22.144   5.893   0.588 -0.4069 -0.0995 -0.0928
35353W        W41953  24.198   1.256   2.854 -0.1276 -0.1289  0.1797
35354W        W41954  21.766   3.239  21.642  0.0568 -0.2040 -0.0909
35355W        W41955   3.397   4.670   8.331  0.1841  0.0875 -0.2508
35356W        W41956  19.328   4.345  32.411 -0.3509 -0.1535 -0.1583
35357W        W41957  18.521   6.190  29.721 -0.2396  0.0316  0.3803
35358W        W41958  18.829   3.010   7.696  0.0187  0.0557 -0.0121
35359W        W41959  17.707   0.916   7.081  0.2915 -0.3784  0.0820
35360W        W41960  14.759   2.294  24.057  0.0384 -0.2111  0.2914
35361W        W41961  14.722   0.849  25.783  0.0570 -0.0877 -0.0665
35362W        W41962   5.174   5.854  29.989 -0.4386  0.1669 -0.1991
35363W        W41963   1.050   2.539  28.351  0.0947 -0.2420  0.2289
35364W        W41964  16.068   3.978   2.454  0.2032 -0.1492 -0.1517
35365W        W41965  17.808   7.208  18.692  0.1788 -0.0668 -0.1375
35366W        W41966  17.993   0.005  28.395  0.0147 -0.1028  0.1574
35367W        W41967  13.010   6.825   7.579  0.2167 -0.2796  0.1884
35368W        W41968  19.993   0.460  20.376  0.1801 -0.0236  0.1346
35369W        W41969  16.740   0.744   7.234 -0.0479  0.1658 -0.0806
35370W        W41970  20.401   2.561  30.075  0.2206  0.2161 -0.3077
35371W        W41971  21.107   1.448  25.972  0.1079 -0.0930 -0.2166
35372W        W41972   4.799   3.662  12.466  0.1342  0.2070  0.1242
35373W        W41973  10.091   0.992  17.719  0.0773  0.0356  0.0617
35374W        W41974  19.508   6.951  18.287 -0.3154 -0.1156  0.0725
35375W        W41975   0.344   5.092  25.075 -0.1342 -0.0027 -0.1773
35376W        W41976  17.957   2.149   6.238  0.0757  0.2072 -0.3135
35377W        W41977  24.520   3.903  27.499  0.1005 -0.1239 -0.1869
35378W        W41978  17.141   7.285  21.010  0.1158 -0.0086 -0.0495
35379W        W41979  11.625   4.242  31.933  0.4681 -0.3424  0.0133
35380W        W41980   9.942   1.261  25.912 -0.0568  0.1793  0.0209
35381W        W41981   3.360   4.684   4.494  0.3291 -0.2161 -0.1006
35382W        W41982  17.010   3.641   3.262  0.1623 -0.2848 -0.1242
35383W        W41983  23.110   1.622   2.415  0.2358 -0.0550  0.0281
35384W        W41984   3.682   2.653  21.629 -0.3471  0.1283  0.0481
35385W        W41985  18.401   6.312  20.239  0.0021  0.1157  0.1977
35386W        W41986   3.302   1.881  25.542  0.0785 -0.0914 -0.0562
35387W        W41987  19.277   6.736   0.946 -0.0975  0.0784 -0.0483
35388W        W41988   5.847   5.018   4.921  0.1100  0.1163 -0.2035
35389W        W41989  19.479   0.784  30.165  0.1225 -0.0204  0.1203
35390W        W41990  21.384   0.063  15.847  0.0259 -0.1779 -0.2053
35391W        W41991   8.202   0.747  18.078 -0.1658 -0.0612  0.0708
35392W        W41992  11.010   1.554  12.021 -0.0732  0.1996 -0.2014
35393W        W41993  19.048   5.055   4.117  0.1210  0.1536 -0.1106
35394W        W41994  18.437   3.647  29.480  0.0576  0.2971 -0.0789
35395W        W41995   2.951   2.518   7.023 -0.0546  0.1744  0.0863
35396W        W41996  17.053   5.685  10.852 -0.1275 -0.0329 -0.0310
35397W        W41997   3.434   6.149  24.378  0.0197 -0.0850  0.1222
35398W        W41998  15.739   7.827  28.275  0.1903 -0.0814 -0.0696
35399W        W41999   2.664   0.667   0.456 -0.0810  0.1568  0.0159
35400W        W42000   6.818   6.608  27.205 -0.1437 -0.1509 -0.0627
35401W        W42001   2.262   1.408  27.175 -0.0993  0.0551 -0.0355
35402W        W42002   6.196   7.352  13.971  0.1700  0.2691  0.1967
35403W        W42003   7.446   3.400   7.908  0.3243 -0.2681  0.0822
35404W        W42004  17.060   0.269   5.242 -0.5068  0.1331  0.0503
35405W        W42005  12.192   1.791  15.528 -0.0304 -0.3116  0.0930
35406W        W42006  17.602   5.969   5.569 -0.2449  0.2201  0.1799
35407W        W42007  11.509   0.389   8.108 -0.2491 -0.0305 -0.0944
35408W        W42008  17.119   1.956  22.992 -0.1550  0.1660 -0.3432
35409W        W42009   0.707   1.665  22.432 -0.0986 -0.0729 -0.2025
35410W        W42010   7.669   0.570   9.967 -0.1438  0.0680 -0.0414
35411W        W42011  23.333   5.402  27.429  0.0230  0.2532 -0.1007
35412W        W42012  18.930   0.942   7.466  0.2566  0.1676  0.1231
35413W        W42013   0.970   5.072   5.296 -0.1666  0.0307 -0.0761
35414W        W42014  18.284   0.315  20.226  0.3210 -0.2830  0.0406
35415W        W42015  21.507   4.471   7.316 -0.1033  0.1616  0.1776
35416W        W42016  17.417   3.326  25.628  0.0045 -0.0220  0.0862
35417W        W42017  15.600   1.821   5.667  0.3371  0.0241  0.0586
35418W        W42018   1.952   6.797   0.497 -0.0181  0.3066 -0.1852
35419W        W42019   9.491   7.630  27.798 -0.1009  0.0881  0.0602
35420W        W42020   2.970   3.074   6.999  0.0507  0.2341 -0.1932
35421W        W42021  19.055   4.266   6.878 -0.0567  0.0715 -0.3322
35422W        W42022   4.869   2.205  31.168  0.3778  0.0885  0.1149
35423W        W42023   5.886   0.308   7.229  0.1535  0.0438 -0.0512
35424W        W42024  14.045   3.060   6.185 -0.0942 -0.0175 -0.2526
35425W        W42025  20.827   7.767   1.254 -0.0974 -0.0105 -0.0203
35426W        W42026  22.074   5.777  25.448 -0.3126  0.0867 -0.1763
35427W        W42027  24.811   2.210  29.843 -0.2799 -0.1510  0.3012
35428W        W42028  15.889   6.123   7.110  0.2016 -0.2931 -0.3973
35429W        W42029  19.196   4.405  25.454  0.1326  0.0853  0.1756
35430W        W42030  20.120   1.281  15.431 -0.0440  0.0877 -0.0479
35431W        W42031  10.814   6.371   8.155  0.1959 -0.0439 -0.0363
35432W        W42032   9.357   5.383   0.666 -0.0647 -0.2045 -0.0275
35433W        W42033  12.722   0.672   4.835 -0.2183  0.0958  0.1223
35434W        W42034  22.434   4.561  18.809  0.0019  0.1933 -0.2226
35435W        W42035  14.400   5.238  21.702 -0.0857  0.1975 -0.2736
35436W        W42036   1.874   1.252  30.149  0.1972  0.1896 -0.1707
35437W        W42037  13.730   3.656   6.897 -0.1878  0.0517  0.1019
35438W        W42038   6.665   4.870  30.812  0.2484 -0.1876 -0.2408
35439W        W42039  14.667   4.671   9.007  0.1406  0.1285  0.1329
35440W        W42040  21.044   3.985  26.453  0.1147 -0.2321  0.0658
35441W        W42041  11.834   3.937   3.912  0.0186  0.1718 -0.0629
35442W        W42042   8.505   7.405   2.110  0.0406 -0.0122  0.0690
35443W        W42043   9.452   3.144  15.580 -0.2117  0.0196 -0.0304
35444W        W42044   7.884   3.705   0.898  0.1125  0.2765 -0.2905
35445W        W42045   6.717   7.627   7.254  0.0377  0.0474 -0.0897
35446W        W42046  16.629   4.565  24.196 -0.0715  0.2601 -0.0035
35447W        W42047   5.535   7.696   4.228 -0.1309  0.0515 -0.3017
35448W        W42048   0.068   3.190   2.148 -0.0846 -0.0760 -0.0828
35449W        W42049   9.229   6.928  11.118  0.0014 -0.1051  0.1745
35450W        W42050  22.072   5.688   9.629 -0.0295  0.0176 -0.2937
35451W        W42051  18.336   3.625  28.024  0.2508 -0.3793  0.4168
35452W        W42052   8.703   5.530  25.088 -0.3100 -0.1974 -0.0939
35453W        W42053   3.836   3.271  32.382 -0.2711 -0.2148 -0.2969
35454W        W42054  19.562   0.279  27.185 -0.2311  0.0919 -0.2069
35455W        W42055   0.080   7.360  29.488  0.3894  0.3416  0.4534
35456W        W42056  21.650   1.366  14.055  0.2202 -0.1660  0.0104
35457W        W42057  13.624   7.275  11.073  0.1585 -0.1441  0.1191
35458W        W42058  10.117   3.300  17.436  0.0710 -0.2330 -0.2943
35459W        W42059  12.375   4.564  30.812 -0.3782  0.3880  0.0209
35460W        W42060  22.581   3.034   9.611  0.1996  0.1454  0.0234
35461W        W42061   8.289   5.438  16.088  0.1753  0.2563 -0.1152
35462W        W42062  20.323   5.689  28.875  0.1563  0.2832  0.3213
35463W        W42063  24.878   7.469  25.275  0.0718 -0.0132  0.1180
35464W        W42064   8.127   0.057  17.041 -0.1244  0.1880  0.0458
35465W        W42065  21.512   6.848   0.888 -0.1758 -0.2600  0.1502
35466W        W42066   5.978   6.882  17.228  0.2549  0.0808 -0.0788
35467W        W42067   1.851   1.187  22.690 -0.1293  0.1432  0.2115
35468W        W42068  10.553   7.219  28.555 -0.1643 -0.1074  0.1806
35469W        W42069  14.277   2.497  10.643 -0.4258 -0.4191 -0.4773
35470W        W42070  10.625   2.801  13.048 -0.2071 -0.0376 -0.0482
35471W        W42071  10.523   2.053  27.202  0.0785 -0.0598  0.1179
35472W        W42072  11.227   2.055  25.649 -0.0014  0.2411  0.0433
35473W        W42073   9.711   4.526   2.783  0.0657  0.0755  0.2744
35474W        W42074   8.200   7.735  32.409  0.0503  0.0064 -0.1623
35475W        W42075   5.788   2.245  28.188  0.0523  0.0684 -0.0583
35476W        W42076  18.951   5.061  23.484  0.2721  0.2271  0.2364
35477W        W42077  18.897   0.482  19.421 -0.2135 -0.2804 -0.0438
35478W        W42078   7.721   2.532   7.172 -0.3028  0.0936 -0.1672
35479W        W42079  19.685   7.780  28.621 -0.0188  0.0020  0.2204
35480W        W42080   6.472   6.866  29.179 -0.0052 -0.3640 -0.0709
35481W        W42081   1.751   1.828   8.030  0.1928  0.1732 -0.0847
35482W        W42082   2.406   6.642  19.780 -0.0301 -0.4812 -0.0546
35483W        W42083   2.669   7.440  19.522 -0.0591  0.1206 -0.0870
35484W        W42084   1.843   2.639  22.595  0.1675  0.1975 -0.2723
35485W        W42085  20.852   7.440  31.569  0.1434  0.1107 -0.0276
35486W        W42086  16.218   7.190  25.896 -0.0153 -0.3739  0.2039
35487W        W42087  17.736   2.556  18.919  0.0388 -0.0324 -0.3169
35488W        W42088  22.303   4.412  16.109 -0.2045  0.2342  0.1833
35489W        W42089  22.202   7.605  27.354 -0.1137  0.1465  0.0602
35490W        W42090  11.178   2.604  12.365 -0.1337 -0.1711 -0.0513
35491W        W42091   1.487   0.979  29.270  0.0093  0.1819 -0.1024
35492W        W42092  18.628   0.671  17.699  0.2137  0.0160  0.2200
35493W        W42093  22.677   3.255  15.700 -0.1368 -0.2056  0.0740
35494W        W42094  23.628   6.806  21.341 -0.0197  0.0069  0.0164
35495W        W42095  20.739   4.956   7.103  0.1836  0.1899  0.2116
35496W        W42096  24.863   6.072   9.636 -0.0423 -0.1212 -0.2806
35497W        W42097   1.687   0.867  32.433 -0.2005 -0.1718 -0.0790
35498W        W42098   9.210   5.400  24.544 -0.2743  0.3433 -0.0386
35499W        W42099  10.287   7.713   1.863 -0.1439 -0.1077 -0.1633
35500W        W42100   1.984   3.833   7.392  0.4721 -0.0780 -0.5157
35501W        W42101  21.276   7.161  25.088  0.0099  0.1059  0.0075
35502W        W42102  24.562   0.092   1.111  0.0031 -0.1367  0.1154
35503W        W42103  15.513   3.639  18.867 -0.1630 -0.2693  0.1224
35504W        W42104  21.738   1.280  19.204  0.0610  0.2726  0.1701
35505W        W42105  20.018   0.957  17.153  0.0340  0.0826  0.1908
35506W        W42106   3.448   6.356   0.687 -0.1810 -0.0857 -0.0461
35507W        W42107   2.718   0.278  27.768 -0.2768  0.0360 -0.0285
35508W        W42108  24.208   4.975   6.149 -0.1792 -0.2381  0.0217
35509W        W42109  10.373   2.021  31.048 -0.2372 -0.0351 -0.1646
35510W        W42110  12.451   5.279  22.665  0.0712  0.1027  0.0421
35511W        W42111  13.964   0.509   9.164  0.4581 -0.0767  0.0267
35512W        W42112  20.276   2.473   1.132  0.0430 -0.0370 -0.1610
35513W        W42113   4.018   0.516  32.557  0.0393 -0.2292 -0.1049
35514W        W42114   9.638   3.326  13.670 -0.1622 -0.2249 -0.1197
35515W        W42115  16.022   6.960  21.617  0.1796 -0.0379 -0.1435
35516W        W42116   6.554   4.440   0.009 -0.1859  0.2710 -0.1384
35517W        W42117   8.580   0.346  22.439 -0.2216 -0.3509  0.3087
35518W        W42118   9.413   3.845  13.553 -0.0155  0.0735  0.0780
35519W        W42119   6.352   4.051  23.743 -0.0965  0.0017  0.1438
35520W        W42120  23.882   7.712  26.186  0.1823  0.3714  0.0040
35521W        W42121   5.384   5.673  25.037  0.2069 -0.0758  0.1376
35522W        W42122   9.104   4.630   6.855 -0.4872  0.0681  0.1020
35523W        W42123  21.212   2.514  25.386 -0.3281  0.0279 -0.3412
35524W        W42124  20.865   3.070  22.317 -0.1340 -0.1450  0.1377
35525W        W42125  12.743   0.262   4.478  0.0742  0.2985  0.1103
35526W        W42126   4.590   1.938   3.143  0.1843 -0.0029  0.1763
35527W        W42127   4.800   6.021   6.663  0.1871  0.0261 -0.1271
35528W        W42128   4.927   3.397   7.736  0.2317  0.1993  0.0808
35529W        W42129  18.450   0.957  10.076  0.0914  0.0895  0.1243
35530W        W42130  20.748   2.108  32.433 -0.0612  0.2251  0.1404
35531W        W42131  15.077   3.411  26.601  0.1685  0.2355  0.1439
35532W        W42132  18.557   6.089  25.552 -0.0818  0.2845 -0.0251
35533W        W42133   2.418   0.922   8.889  0.1163  0.1682  0.1653
35534W        W42134  14.373   5.979  27.442  0.0518  0.0122 -0.2527
35535W        W42135  19.356   5.918  19.846  0.0055  0.2336 -0.0249
35536W        W42136   9.130   0.379  15.502 -0.0922  0.2481 -0.0496
35537W        W42137  23.707   0.311  18.449  0.1421  0.3111  0.1742
35538W        W42138   0.570   5.898   5.069  0.1007 -0.0660  0.0540
35539W        W42139  22.301   5.707  19.042 -0.0464  0.1061 -0.0684
35540W        W42140  16.361   1.198   3.945 -0.0522 -0.1382 -0.0284
35541W        W42141  20.953   0.896   7.102  0.0908 -0.0520  0.1880
35542W        W42142  14.828   1.913  23.271  0.0154  0.2535  0.1763
35543W        W42143   3.437   2.292   2.205  0.0520  0.4094  0.1201
35544W        W42144   1.915   6.979   3.916 -0.3192 -0.1402  0.0431
35545W        W42145   5.574   1.705  11.911 -0.1056 -0.0475  0.0571
35546W        W42146  20.045   2.398   4.602 -0.0204  0.2178  0.0162
35547W        W42147   0.600   2.055   5.230  0.1821  0.1622  0.1156
35548W        W42148  21.094   1.670  24.662 -0.1210 -0.1794 -0.3436
35549W        W42149   1.459   7.726  28.285  0.0103 -0.1529  0.0285
35550W        W42150  17.294   5.378   0.935 -0.0985 -0.3359 -0.1936
35551W        W42151  18.011   7.317   4.481 -0.3364  0.2254  0.1536
35552W        W42152  19.926   7.467   2.949  0.0390 -0.0207 -0.0685
35553W        W42153   5.370   4.749   9.379 -0.0543 -0.2777 -0.1918
35554W        W42154   2.480   4.750  31.739 -0.0275 -0.0533  0.3479
35555W        W42155   6.563   3.117   3.826 -0.1665  0.3088 -0.1239
35556W        W42156  24.550   5.921  28.661  0.2157 -0.3982 -0.0239
35557W        W42157   9.254   0.280  25.704 -0.1557  0.2405  0.0711
35558W        W42158   9.215   7.627  10.530 -0.0144 -0.2563  0.0164
35559W        W42159  15.261   5.929   4.737  0.0978 -0.1185 -0.1786
35560W        W42160  22.856   2.278  10.825  0.1848  0.1719 -0.1826
35561W        W42161  18.593   2.226   7.278 -0.2363  0.1065 -0.0046
35562W        W42162  14.836   2.852   0.894  0.0634  0.0298 -0.0235
35563W        W42163  21.245   7.672   4.587  0.2574  0.1075 -0.1930
35564W        W42164   9.257   0.977   2.675 -0.1160 -0.1374  0.2992
35565W        W42165  22.117   6.680  16.814  0.0137  0.2248 -0.2339
35566W        W42166   6.822   6.207  10.893  0.0539 -0.4529 -0.1194
35567W        W42167  11.463   6.252   5.941  0.1935 -0.0383 -0.0134
35568W        W42168   1.507   6.967  29.942  0.0821  0.2613  0.0446
35569W        W42169  12.441   4.546  24.551  0.3795 -0.0213  0.1165
35570W        W42170  10.323   1.077  26.154  0.0509  0.1080 -0.1010
35571W        W42171   5.989   0.143  14.726 -0.0258 -0.2119 -0.2947
35572W        W42172  10.291   2.254   8.377 -0.2079 -0.0769 -0.0261
35573W        W42173   9.146   5.890  24.368 -0.3742  0.0288  0.2586
35574W        W42174   7.526   5.744  23.352 -0.0946  0.0661 -0.0582
35575W        W42175  10.245   7.041  31.669  0.1233 -0.1416 -0.2520
35576W        W42176   6.981   5.893   2.470  0.1295  0.1711 -0.2068
35577W        W42177  19.050   3.560   0.441  0.1285  0.0667  0.2637
35578W        W42178  10.732   6.171  23.910 -0.1155  0.0392  0.0529
35579W        W42179   7.324   4.315   8.453 -0.0952  0.2569 -0.0044
35580W        W42180   1.710   3.075  10.904  0.1519 -0.0940 -0.1416
35581W        W42181  23.665   3.131  28.309  0.0702 -0.0932  0.1540
35582W        W42182   8.447   7.325   6.034  0.2000  0.0108 -0.0370
35583W        W42183  21.416   1.752  24.268  0.0894  0.0308  0.2012
35584W        W42184   2.063   6.997   4.489  0.5661 -0.2455  0.2630
35585W        W42185  11.787   0.981  29.621 -0.1936 -0.0495 -0.1767
35586W        W42186  22.423   3.752  16.889  0.2632 -0.0580  0.1565
35587W        W42187  16.202   5.070  21.551 -0.0616  0.0826 -0.2551
35588W        W42188  17.317   7.323  11.417 -0.0050  0.1243  0.2478
35589W        W42189   7.852   4.230  14.472 -0.0602 -0.1497 -0.4728
35590W        W42190  12.633   4.525  28.930 -0.2066 -0.0432  0.3739
35591W        W42191   9.201   6.326  29.820 -0.1947 -0.0513  0.3047
35592W        W42192  10.437   5.975  24.772 -0.1279  0.0538  0.1037
35593W        W42193  14.747   6.910  30.397  0.0504  0.1126 -0.1089
35594W        W42194  22.620   0.278  25.312 -0.0571 -0.2409 -0.2245
35595W        W42195  12.461   4.817   1.150 -0.4154 -0.2232 -0.0033
35596W        W42196  15.528   5.285  26.069 -0.0680 -0.0378  0.1088
35597W        W42197  21.539   6.979   7.058  0.2379  0.0361 -0.3213
35598W        W42198  11.840   2.286   6.304  0.3440  0.0655 -0.0823
35599W        W42199   0.634   2.333   6.562 -0.1735  0.1298 -0.1622
35600W        W42200   1.884   5.305   6.236  0.2107  0.0604 -0.2201
35601W        W42201   9.200   7.347  24.720  0.5374  0.1945  0.0708
35602W        W42202  17.829   7.610  22.864  0.0046 -0.1125 -0.1561
35603W        W42203   1.294   3.287  10.827  0.0905 -0.0867  0.3162
35604W        W42204   9.071   0.298  17.176  0.0351 -0.2523  0.0952
35605W        W42205   1.381   3.971  10.460 -0.0110 -0.2640 -0.1584
35606W        W42206   0.173   5.515  16.323 -0.0226  0.1563  0.0127
35607W        W42207   3.527   0.894  12.524  0.0917  0.0996  0.1353
35608W        W42208  24.680   5.870  19.818 -0.2510  0.0491  0.0138
35609W        W42209   3.312   4.116   1.354  0.0827  0.1060 -0.3791
35610W        W42210  20.423   2.411  28.629 -0.2174  0.0412  0.1765
35611W        W42211   6.156   7.336  12.589  0.4224 -0.1977  0.1159
35612W        W42212  13.812   6.583  30.302 -0.1553  0.3377 -0.2030
35613W        W42213   3.657   7.055   1.831  0.0439  0.2999 -0.0774
35614W        W42214  21.009   2.421   9.086  0.0041  0.0500 -0.5670
35615W        W42215  24.380   3.860  26.012  0.1958 -0.4307  0.0003
35616W        W42216  17.758   6.025   7.390 -0.1751  0.1477  0.0722
35617W        W42217  24.122   2.352  28.662  0.2642 -0.0016 -0.4677
35618W        W42218   0.381   0.195  18.423  0.3427 -0.0895  0.1060
35619W        W42219  10.701   3.868  11.263  0.0217  0.2198  0.0614
35620W        W42220   0.138   2.668  18.430 -0.0803 -0.1825 -0.0169
35621W        W42221  16.314   7.399  19.496  0.0570 -0.0031 -0.1793
35622ION     NA42222   1.409   1.730  26.207 -0.0031 -0.1142  0.2579
35623ION     NA42223   3.556   4.001  21.151  0.4234 -0.0598 -0.4578
35624ION     NA42224   2.682   2.678   1.403  0.2892 -0.0780 -0.0949
35625ION     NA42225   0.444   5.781  30.591 -0.2099 -0.1436 -0.2848
35626ION     NA42226   8.267   2.491   4.036 -0.2509  0.1320  0.1121
35627ION     NA42227  22.954   4.687  27.962 -0.2578  0.1059 -0.0258
35628ION     NA42228  24.233   2.658  20.727 -0.0889 -0.1961  0.0579
35629ION     NA42229  22.289   2.846  25.918 -0.1614  0.4135  0.0413
35630ION     NA42230   1.524   5.292   0.166  0.2403 -0.0845  0.0873
35631ION     NA42231  11.193   7.789  16.109 -0.2356  0.0840 -0.2490
35632ION     NA42232  20.597   5.699  28.426  0.1062 -0.2317 -0.2494
35633ION     NA42233   3.006   3.890  30.841 -0.0829 -0.1429  0.0972
35634ION     NA42234  22.830   5.807  23.831  0.1258 -0.1215  0.0885
35635ION     NA42235   3.496   2.098  11.306  0.2556 -0.1565 -0.0901
35636ION     NA42236  14.926   0.378   8.420  0.1690 -0.0776  0.0332
35637ION     NA42237  18.930   6.713   0.645  0.0100  0.4460 -0.0386
35638ION     NA42238  11.649   5.228   4.537 -0.2699 -0.1314 -0.0585
35639ION     NA42239   6.839   6.414   4.599  0.0377 -0.3207 -0.0998
35640ION     NA42240  12.790   5.869   7.413  0.0790  0.4490 -0.2691
35641ION     NA42241  21.069   6.963  16.341 -0.0209 -0.1231  0.1314
35642ION     NA42242   4.151   5.167  24.602  0.2826 -0.0319 -0.1445
35643ION     NA42243  15.605   5.869   9.587  0.1744 -0.0543  0.3072
35644ION     NA42244  11.045   6.737  31.794 -0.2265  0.4459  0.2929
35645ION     NA42245   2.486   1.926  11.894  0.1530  0.0609  0.1287
35646ION     NA42246  12.967   6.906  10.574 -0.0297 -0.1638 -0.2842
35647ION     NA42247   9.547   6.578   3.089 -0.0345  0.0462 -0.1159
35648ION     NA42248  22.046   0.896  19.810  0.0163 -0.0917  0.6880
35649ION     NA42249  12.180   1.281  23.660 -0.5685 -0.3127 -0.2077
35650ION     NA42250  16.869   5.304  19.118 -0.2336  0.0111  0.4070
35651ION     NA42251   7.620   3.660   6.661  0.1192 -0.1739  0.1729
35652ION     NA42252  18.712   6.673  10.652 -0.0337 -0.0857 -0.0539
35653ION     NA42253   5.799   2.177  31.803 -0.1956 -0.1963 -0.2829
35654ION     NA42254   2.915   4.513  32.407 -0.1688 -0.4562 -0.1394
35655ION     NA42255  16.929   5.963  31.556 -0.0889 -0.2966  0.0706
35656ION     NA42256   1.024   4.990  28.145  0.3596 -0.0406 -0.5397
35657ION     NA42257  14.498   3.697  22.091 -0.0758 -0.3553 -0.6037
35658ION     NA42258   3.790   0.593   4.031  0.2035  0.3237  0.1543
35659ION     NA42259   1.435   3.384   9.272  0.1218  0.1238 -0.1865
35660ION     NA42260  19.864   3.544   3.315  0.1218 -0.3431  0.1496
35661ION     NA42261  17.918   3.148   2.353  0.4140 -0.0366 -0.2668
35662ION     NA42262   6.037   4.680  16.125 -0.0953  0.0945  0.3045
35663ION     NA42263  14.781   1.578   5.931 -0.5175 -0.0150 -0.0925
35664ION     NA42264   7.876   4.842  28.927 -0.1489  0.4442 -0.1028
35665ION     NA42265   1.505   4.512  20.767 -0.1789 -0.3368  0.3503
35666ION     NA42266   3.288   6.030   2.699 -0.2231 -0.0347 -0.0354
35667ION     NA42267   9.817   3.304  13.209 -0.3293  0.1708  0.1388
35668ION     NA42268   0.802   3.509  30.971 -0.0181 -0.0916 -0.0452
35669ION     NA42269  18.257   7.816  17.102  0.2478 -0.0742  0.0912
35670ION     NA42270  16.880   1.701  24.112  0.1266  0.3301  0.4799
35671ION     NA42271  18.797   2.402  26.929 -0.1677 -0.2137 -0.0972
35672ION     NA42272  12.908   3.968  14.699  0.0618 -0.4089 -0.4700
35673ION     NA42273   9.202   1.500  13.109  0.1214 -0.0391  0.0427
35674ION     NA42274  24.824   2.818  17.512  0.0570  0.0931  0.5973
35675ION     NA42275   8.841   2.271  18.625  0.0655  0.2165  0.0631
35676ION     NA42276   1.991   1.535   2.364 -0.0379  0.2022  0.5786
35677ION     NA42277  24.439   4.008  30.098 -0.0056  0.2926 -0.1618
35678ION     NA42278   2.013   4.709   1.133 -0.0511  0.1905 -0.1243
35679ION     NA42279   6.004   1.971   7.084 -0.3120  0.0770 -0.1516
35680ION     NA42280   5.155   2.356   1.519  0.0003 -0.0647 -0.2913
35681ION     NA42281   6.414   7.318   6.130  0.3737  0.0919 -0.0747
35682ION     NA42282  19.499   3.353  19.168 -0.2425  0.0809 -0.0700
35683ION     NA42283  22.293   6.678  30.437  0.0908  0.1374  0.0587
35684ION     NA42284  18.739   3.490  24.837  0.3542 -0.2024  0.0770
35685ION     NA42285  18.567   6.348  29.281 -0.1090 -0.1497 -0.2019
35686ION     NA42286   8.843   1.681  10.600 -0.2870  0.3996 -0.0658
35687ION     NA42287  22.526   6.221  32.485  0.3873 -0.0510  0.0979
35688ION     NA42288   7.378   1.804  28.560 -0.3167  0.0157  0.0490
35689ION     NA42289   9.919   1.427  23.430  0.1745 -0.1450 -0.1656
35690ION     NA42290   8.266   1.659  11.411  0.1548 -0.1897  0.1349
35691ION     NA42291   3.120   3.398   7.214 -0.5320 -0.1732 -0.0778
35692ION     NA42292   2.381   5.554  32.052  0.0572 -0.1598 -0.1452
35693ION     NA42293  22.549   1.188  17.356  0.0231  0.1716  0.4100
35694ION     NA42294   8.411   5.151  17.470  0.0329 -0.4148 -0.0339
35695ION     NA42295  20.944   6.348  15.140  0.2302  0.0640 -0.4911
35696ION     NA42296   7.741   7.580  14.357 -0.1628 -0.2218 -0.2679
35697ION     NA42297   5.327   4.760   5.380  0.2611 -0.5811 -0.3451
35698ION     NA42298  11.824   4.034  10.887  0.0322  0.0315 -0.1450
35699ION     NA42299  18.582   2.728  19.514  0.5032 -0.0503 -0.1792
35700ION     NA42300  20.149   0.639  28.594  0.3466  0.0463 -0.2473
35701ION     NA42301   5.362   7.249  24.795 -0.1814  0.1048  0.0668
35702ION     NA42302  10.863   3.368  12.589 -0.4041  0.5320  0.3187
35703ION     NA42303  22.583   7.630  25.963 -0.0943 -0.3485  0.0706
35704ION     NA42304  19.459   0.653  23.863  0.1647 -0.1011  0.4189
35705ION     NA42305  20.517   5.660   6.092 -0.0881  0.5233 -0.0944
35706ION     NA42306   3.423   0.289  26.747  0.0210  0.0530  0.0286
35707ION     NA42307   3.913   6.771  14.349  0.1469  0.1960 -0.0602
35708ION     NA42308   3.435   4.998   1.011 -0.2229 -0.2690 -0.0484
35709ION     NA42309  17.634   1.556   0.657  0.1167 -0.3744  0.2561
35710ION     NA42310  18.998   2.078  26.430 -0.1082  0.3051 -0.3260
35711ION     NA42311  14.630   5.123  31.966  0.1711 -0.0115 -0.0337
35712ION     NA42312   5.981   2.578   4.321 -0.3295 -0.0780 -0.2633
35713ION     NA42313  15.360   2.175   6.888  0.4553  0.2430 -0.2062
35714ION     NA42314  11.535   4.766  12.359 -0.1386 -0.0430  0.1322
35715ION     NA42315  19.080   5.977  21.896 -0.0626 -0.0645 -0.0593
35716ION     NA42316  13.389   3.619   2.325  0.5545  0.0261 -0.3061
35717ION     NA42317   7.241   7.307  25.393 -0.0340 -0.0960  0.0692
35718ION     NA42318  14.194   2.198  11.867 -0.0215 -0.1435  0.4660
35719ION     NA42319  23.586   3.447  19.652  0.1223 -0.0342  0.2168
35720ION     NA42320  20.906   4.427  20.690  0.0628 -0.0146 -0.4021
35721ION     NA42321  15.292   4.040   2.105 -0.1093 -0.0531  0.2709
35722ION     NA42322   0.639   1.489   1.429  0.0356  0.4255  0.0315
35723ION     NA42323  20.413   2.404  20.818  0.0484  0.0542 -0.3291
35724ION     NA42324  13.908   6.751  29.417 -0.0478  0.1839 -0.0700
35725ION     NA42325  24.387   2.940   2.213  0.0456 -0.0385 -0.0178
35726ION     NA42326  15.272   7.132   5.066 -0.0528  0.3376 -0.0791
35727ION     NA42327  14.628   0.046   3.453  0.1338 -0.1805 -0.2039
35728ION     NA42328   8.401   1.880  14.288 -0.1452  0.1884  0.3792
35729ION     NA42329   6.015   7.217  10.256  0.3221  0.1141  0.0311
35730ION     NA42330  23.679   5.811  29.399  0.1368 -0.3809 -0.0781
35731ION     NA42331  17.136   2.476  27.891 -0.1230 -0.0807  0.0136
35732ION     NA42332  12.613   2.931   4.261 -0.2489  0.5924 -0.1277
35733ION     NA42333   7.035   3.739  14.162 -0.0804 -0.0998 -0.0813
35734ION     NA42334  13.494   7.614  10.846 -0.2883  0.1405 -0.3502
35735ION     NA42335   2.744   7.246   4.846 -0.1341 -0.4294  0.0443
35736ION     NA42336  16.635   4.650   0.014 -0.2592  0.0179 -0.1856
35737ION     NA42337  14.939   7.544  10.220  0.3793  0.1370  0.3752
35738ION     NA42338   8.347   6.915  31.082  0.5357 -0.0192 -0.4204
35739ION     NA42339  23.626   5.923   8.675 -0.1184 -0.0372 -0.3758
35740ION     NA42340   2.557   0.736   8.116 -0.1844 -0.3019 -0.1785
35741ION     NA42341   8.389   7.024   4.629 -0.0409  0.0487 -0.0573
35742ION     NA42342   3.924   2.250  12.323  0.1003  0.1726  0.3284
35743ION     NA42343  13.757   6.419   2.165  0.1346  0.4051 -0.1988
35744ION     NA42344  15.355   2.895   9.764  0.2231  0.2389  0.1809
35745ION     NA42345   2.053   6.127   8.391 -0.3107 -0.4033  0.5470
35746ION     NA42346   6.014   0.459  22.640 -0.2379  0.0305  0.1326
35747ION     NA42347  14.795   5.804  13.501 -0.0720  0.3115  0.1751
35748ION     NA42348  21.454   2.135   1.407  0.3088  0.3038  0.3962
35749ION     NA42349   5.991   4.199   2.913  0.2064 -0.1706  0.1446
35750ION     NA42350  24.901   1.333  20.668 -0.0999  0.3027  0.2620
35751ION     NA42351  12.486   2.055   2.401  0.1791  0.1309 -0.3526
35752ION     NA42352   7.863   1.991  17.768  0.0698  0.1372  0.0919
35753ION     NA42353   4.332   7.524  25.661  0.2845  0.4727  0.0109
35754ION     NA42354  22.591   4.878   9.634 -0.0269 -0.2017  0.2393
35755ION     NA42355   5.027   0.257   2.879  0.3596  0.1380 -0.0464
35756ION     NA42356   5.519   1.370   8.539  0.1330  0.0799 -0.4854
35757ION     NA42357  21.008   3.692   2.832 -0.1038  0.0547 -0.3589
35758ION     NA42358   3.106   0.642   6.087 -0.5315 -0.0893  0.0965
35759ION     NA42359  19.023   5.536  16.795  0.0202 -0.3416  0.2673
35760ION     NA42360   0.492   6.874  17.964 -0.0594 -0.0781  0.0118
35761ION     NA42361   7.628   5.891  27.606 -0.2751  0.6159  0.2125
35762ION     NA42362  23.209   1.013   0.531 -0.3642  0.4907 -0.0708
35763ION     NA42363  16.614   5.585  18.415 -0.0045  0.1599  0.2541
35764ION     NA42364  12.620   0.415  25.643  0.4182 -0.1503  0.0019
35765ION     NA42365  23.194   3.215   7.711  0.1706 -0.3447  0.0688
35766ION     NA42366   0.419   2.662   1.546 -0.7942 -0.1516 -0.1357
35767ION     NA42367   8.079   6.800   7.033  0.4489 -0.3404  0.0402
35768ION     NA42368   5.061   5.285  10.480 -0.7508 -0.0094  0.2041
35769ION     NA42369  15.313   3.975   3.813  0.1356 -0.0044  0.2151
35770ION     NA42370   4.471   4.811   1.453 -0.2593  0.0457  0.0393
35771ION     NA42371  11.576   1.071  26.142  0.4671 -0.0354  0.3973
35772ION     NA42372  24.659   3.751  21.722  0.1441 -0.4584  0.1004
35773ION     NA42373  11.658   5.093  14.832 -0.2009 -0.1196  0.2688
35774ION     NA42374   3.925   0.898   5.379  0.1482 -0.0605 -0.1527
35775ION     NA42375  19.286   6.490  31.084 -0.0988 -0.1871  0.0294
35776ION     NA42376   4.888   5.290  30.605 -0.5997 -0.3495 -0.3335
35777ION     NA42377  13.997   6.433  10.198  0.2307 -0.0267 -0.3153
35778ION     NA42378  24.302   6.728  25.887  0.2223  0.1945 -0.2549
35779ION     NA42379  24.375   3.843  16.370 -0.0835  0.2295 -0.0874
35780ION     NA42380   0.345   3.203   6.864 -0.4036 -0.1627 -0.1056
35781ION     NA42381   9.072   3.370  16.539  0.2148  0.1757 -0.2251
35782ION     NA42382  17.045   6.423  28.419 -0.2455 -0.0604  0.2337
35783ION     NA42383  21.100   3.594  31.621 -0.5218 -0.3516 -0.4442
35784ION     NA42384  21.200   1.478  21.988  0.1632  0.2746 -0.4248
35785ION     NA42385  10.542   0.823  27.386  0.2497 -0.0575  0.1493
35786ION     NA42386   8.845   5.052  27.034 -0.0701  0.4391 -0.3746
35787ION     NA42387  12.233   2.300  25.937  0.1051 -0.1665 -0.1104
35788ION     NA42388   7.394   5.161  31.948  0.0774 -0.2000  0.1674
35789ION     NA42389  20.396   5.715   4.665 -0.2323 -0.7888  0.3293
35790ION     NA42390   7.559   2.292   3.571  0.1320 -0.3468 -0.3879
35791ION     NA42391  19.266   0.241  17.189  0.2433  0.2576  0.0910
35792ION     NA42392  15.387   6.164  11.263 -0.1888  0.1187  0.6868
35793ION     NA42393  24.052   0.349  27.443  0.0955 -0.2357  0.1847
35794ION     NA42394  22.858   1.640   3.753 -0.1668 -0.0206  0.2326
35795ION     NA42395  16.777   0.974   8.540 -0.1256 -0.4103  0.5205
35796ION     NA42396   3.373   4.986  27.713  0.7491 -0.0966  0.4429
35797ION     NA42397  16.048   4.234  25.792  0.2250  0.6301 -0.1347
35798ION     NA42398   2.347   1.424   5.798  0.7348  0.0239 -0.3698
35799ION     NA42399   9.147   7.008  26.938 -0.1608 -0.2482 -0.0862
35800ION     NA42400  12.100   6.381  10.308  0.1959 -0.0689 -0.1382
35801ION     NA42401  16.328   3.136   5.036  1.0899  0.0142 -0.3054
35802ION     NA42402  12.556   2.854   2.000 -0.3311 -0.2037 -0.1314
35803ION     NA42403  12.358   3.993  27.334  0.1906  0.3116 -0.0574
35804ION     NA42404   9.425   4.515  16.482  0.1468  0.1476 -0.0356
35805ION     NA42405   1.981   1.838  29.236 -0.0308 -0.4347 -0.0262
35806ION     NA42406  10.071   0.447  31.213 -0.0474 -0.1217  0.4007
35807ION     NA42407  12.864   6.779   4.567 -0.2252 -0.0808  0.1044
35808ION     NA42408   8.595   7.759  27.876  0.0639  0.0894 -0.3615
35809ION     NA42409  16.557   1.021  28.126 -0.2003 -0.2878  0.5394
35810ION     NA42410  22.843   2.305   5.529  0.0699 -0.0404  0.8033
35811ION     NA42411  11.299   7.073  26.360 -0.1585 -0.1751 -0.2239
35812ION     NA42412   4.517   1.195   9.658  0.1163  0.1732  0.1355
35813ION     NA42413  12.813   6.201  27.425 -0.1011  0.0840  0.4956
35814ION     NA42414  22.341   0.671  26.368 -0.2932 -0.3605  0.0676
35815ION     NA42415   6.790   2.707   6.953 -0.2802 -0.1481 -0.3392
35816ION     NA42416  23.929   3.787  20.774 -0.0752  0.2094 -0.0870
35817ION     CL42417   3.015   4.528   3.318  0.1726  0.3678 -0.2089
35818ION     CL42418   0.662   3.297  18.688 -0.2749 -0.0566 -0.0731
35819ION     CL42419  16.092   4.553  21.625  0.0292  0.2255  0.1133
35820ION     CL42420   6.911   4.385   7.232  0.0646  0.1893  0.0481
35821ION     CL42421   7.045   0.076   1.356 -0.2372  0.3599  0.4342
35822ION     CL42422  22.961   2.219  22.513 -0.0832  0.1004  0.5007
35823ION     CL42423  17.646   1.839   0.337  0.0960 -0.1351 -0.0608
35824ION     CL42424  23.105   5.794  24.041  0.1838  0.1026 -0.1217
35825ION     CL42425  17.794   4.277   0.845 -0.3500  0.1515  0.3150
35826ION     CL42426  15.057   6.313  11.229 -0.1874  0.0249  0.2431
35827ION     CL42427   8.984   3.019  29.726 -0.0646  0.5515  0.1188
35828ION     CL42428  18.901   2.402  26.592 -0.0968  0.1189  0.0580
35829ION     CL42429  10.253   0.387  29.683  0.3565 -0.2362  0.0035
35830ION     CL42430   6.437   3.158  15.351 -0.0467  0.6917  0.1026
35831ION     CL42431  18.116   2.826  30.902 -0.2835  0.1925 -0.2960
35832ION     CL42432  16.829   0.143   5.651 -0.1692  0.0012  0.2142
35833ION     CL42433  16.334   0.955  28.499  0.0812  0.5182  0.1702
35834ION     CL42434   1.017   6.348  25.940  0.1619 -0.2616  0.5245
35835ION     CL42435   8.943   4.606  27.838 -0.1832  0.1409 -0.3354
35836ION     CL42436  11.193   7.757  24.044  0.1755 -0.1463 -0.5256
35837ION     CL42437  18.469   3.201  31.805  0.2491  0.0301 -0.1258
35838ION     CL42438  11.108   6.265   6.510 -0.2604  0.3548 -0.0242
35839ION     CL42439  11.782   0.894   4.160  0.0867  0.2935  0.0339
35840ION     CL42440   7.995   7.609  24.657 -0.0466 -0.1712  0.3142
35841ION     CL42441  19.151   1.243   1.266  0.3087  0.4438  0.0667
35842ION     CL42442  20.864   5.772   1.957  0.1169 -0.1907  0.0925
35843ION     CL42443  23.365   4.917  30.812  0.1292 -0.0817 -0.2247
35844ION     CL42444  17.784   1.485   6.573  0.3662  0.4765  0.0865
35845ION     CL42445  23.424   7.675   3.304  0.1041  0.3902 -0.1168
35846ION     CL42446  16.053   3.436   9.175  0.3441 -0.5013 -0.2495
35847ION     CL42447  22.796   0.596   1.483  0.7243  0.6066  0.0143
35848ION     CL42448  17.291   7.435   4.078 -0.2420 -0.5110 -0.1750
35849ION     CL42449  18.542   4.920   8.486 -0.1597  0.3123 -0.1403
35850ION     CL42450  21.658   1.177   2.041 -0.1569  0.0561 -0.3915
35851ION     CL42451   1.493   2.876   3.184  0.1650 -0.4678 -0.1168
35852ION     CL42452   5.642   7.271  10.565  0.4512  0.3424  0.1241
35853ION     CL42453  18.245   4.597  20.269 -0.0271  0.2033  0.2729
35854ION     CL42454   9.912   2.145   5.908  0.0277 -0.4094  0.2494
35855ION     CL42455   6.985   5.190  32.403  0.0123 -0.3320  0.0552
35856ION     CL42456  21.617   3.074  31.767  0.2343  0.2575  0.3313
35857ION     CL42457   7.153   6.405  11.343 -0.1255  0.0797 -0.2097
35858ION     CL42458  13.680   4.165  29.008 -0.0602  0.2840  0.1195
35859ION     CL42459  23.144   1.708  20.115 -0.0296 -0.0514 -0.0974
35860ION     CL42460  22.717   2.258   5.903 -0.3755 -0.0259 -0.5523
35861ION     CL42461  22.159   4.093  24.736  0.0040  0.5921 -0.3515
35862ION     CL42462  19.091   0.594  17.824  0.2631 -0.0486  0.1070
35863ION     CL42463  24.832   2.413  17.525  0.1179 -0.3445 -0.0008
35864ION     CL42464   7.769   6.045  23.565 -0.1496 -0.2970  0.1184
35865ION     CL42465  22.509   0.644   4.974 -0.1448 -0.3411 -0.1328
35866ION     CL42466   1.458   4.829   8.792  0.4194  0.3091  0.5147
35867ION     CL42467  10.944   6.241   4.147 -0.0255 -0.0176 -0.0851
35868ION     CL42468   0.108   5.963   2.653 -0.0243 -0.2811 -0.2022
35869ION     CL42469   0.462   5.981   2.047  0.2455  0.1651 -0.1476
35870ION     CL42470   7.160   4.523   3.887 -0.2007 -0.1269 -0.2001
35871ION     CL42471   8.982   0.167   2.324 -0.0397 -0.4201  0.0651
35872ION     CL42472   1.632   7.154  21.518 -0.0996  0.0936  0.3778
35873ION     CL42473   7.566   3.844   4.282 -0.1097 -0.0977  0.5645
35874ION     CL42474   4.441   0.857  10.571  0.4990  0.0051 -0.4404
35875ION     CL42475   7.347   4.061  32.428 -0.0340  0.1877 -0.5057
35876ION     CL42476  23.916   2.284   2.556 -0.0657  0.2491  0.0515
35877ION     CL42477  12.523   2.800  11.687 -0.5055 -0.1497  0.0227
35878ION     CL42478  24.550   4.515  17.610  0.1180 -0.4666 -0.1417
35879ION     CL42479   3.516   1.638  28.177  0.4438 -0.1190  0.4061
35880ION     CL42480  19.438   4.060  19.160  0.2048 -0.0380 -0.0520
35881ION     CL42481  19.522   1.780  27.606 -0.1050 -0.0075 -0.4253
35882ION     CL42482   5.861   2.397   5.482  0.2532  0.3040 -0.1143
35883ION     CL42483  14.648   4.994  31.582 -0.0021 -0.0043 -0.1728
35884ION     CL42484   9.106   6.966   5.748 -0.0708  0.2893 -0.1120
35885ION     CL42485  24.500   1.755  20.736 -0.0941  0.1090  0.0221
35886ION     CL42486  20.374   5.054  32.218 -0.3102  0.2390  0.4132
35887ION     CL42487   2.153   0.020   5.142  0.0716 -0.1173 -0.3396
35888ION     CL42488  19.885   1.015  17.631  0.1815 -0.0039  0.2169
35889ION     CL42489   7.247   7.048   2.654  0.2758  0.2450  0.1801
35890ION     CL42490  21.312   1.062   1.373 -0.1751  0.2644 -0.3974
35891ION     CL42491   8.374   1.767  11.105 -0.0574 -0.2793  0.2771
35892ION     CL42492  19.455   2.661  19.315  0.0179  0.0793 -0.2932
35893ION     CL42493   7.175   6.943   9.747  0.0259  0.0676 -0.0470
35894ION     CL42494  15.162   1.787   2.952  0.0671 -0.0343  0.4062
35895ION     CL42495   5.678   6.493  30.130  0.2344  0.2171  0.3328
35896ION     CL42496   2.675   0.570   8.936 -0.2649  0.0241 -0.1565
35897ION     CL42497  10.205   1.024  32.626 -0.0870 -0.1912  0.1403
35898ION     CL42498   0.826   2.758   2.578 -0.3256 -0.4204  0.1650
35899ION     CL42499   9.854   0.916   9.847 -0.2248  0.2938 -0.1348
35900ION     CL42500  15.258   2.426  10.765 -0.1861  0.0472 -0.2820
35901ION     CL42501  20.874   4.939  18.987 -0.0438 -0.5621  0.4745
35902ION     CL42502  12.368   3.781  27.103 -0.3370  0.0639  0.3183
35903ION     CL42503   0.786   0.239  32.226 -0.0636 -0.2991 -0.2194
35904ION     CL42504  12.700   5.047   3.438  0.1270 -0.2653 -0.2811
35905ION     CL42505  16.714   5.377   2.488 -0.1130  0.0411 -0.0588
35906ION     CL42506  20.633   2.860  18.209 -0.2907  0.0001  0.1455
35907ION     CL42507  22.174   7.001   8.764 -0.1877  0.1007 -0.1964
35908ION     CL42508   4.084   0.471  26.445  0.1352  0.2728 -0.0011
35909ION     CL42509   5.360   5.359   5.236 -0.0461 -0.0860 -0.1407
35910ION     CL42510  19.887   4.010  24.264 -0.2368 -0.3608  0.1532
35911ION     CL42511   0.248   6.591  23.746 -0.0511  0.4732  0.2600
35912ION     CL42512  21.372   7.446   9.518  0.0839 -0.2449 -0.0104
35913ION     CL42513  15.311   3.917   4.140 -0.0623 -0.0919 -0.2371
35914ION     CL42514   1.142   4.073  22.553 -0.0631 -0.1181  0.1034
35915ION     CL42515  19.119   1.272  30.749  0.1071 -0.3253 -0.0506
35916ION     CL42516   0.155   6.675  29.097 -0.1226 -0.1960  0.1704
35917ION     CL42517  14.013   1.146   6.519 -0.1115 -0.0384  0.3266
35918ION     CL42518  11.659   2.143   7.279  0.6921 -0.5660 -0.2570
35919ION     CL42519   9.339   3.815   6.878 -0.3744  0.2803  0.1168
35920ION     CL42520  13.029   5.019  30.653 -0.3762  0.4374  0.1663
35921ION     CL42521  17.276   3.322  18.408  0.0508  0.1311  0.3864
35922ION     CL42522  14.859   6.215   2.612 -0.1113 -0.1903 -0.0798
35923ION     CL42523   7.472   0.994  10.764 -0.0909  0.1002 -0.3492
35924ION     CL42524  16.722   1.329   8.986  0.0929 -0.0031 -0.0506
35925ION     CL42525   8.289   1.225   6.468 -0.1966  0.1635 -0.0255
35926ION     CL42526   3.106   5.985   9.614 -0.1007 -0.2316 -0.1634
35927ION     CL42527   0.586   3.928  23.119  0.4042  0.3476  0.5140
35928ION     CL42528   6.986   4.170  23.633  0.0555  0.0513  0.1682
35929ION     CL42529  12.631   5.182  14.443 -0.0569 -0.0906 -0.2579
35930ION     CL42530   0.639   4.447  28.366  0.1259  0.3003  0.1413
35931ION     CL42531  19.501   6.287  30.402  0.0704 -0.1354 -0.2244
35932ION     CL42532  16.815   5.605  32.240 -0.2856  0.2066  0.0541
35933ION     CL42533  21.215   0.668   4.977  0.6490 -0.0097  0.1777
35934ION     CL42534   9.257   3.594   0.880 -0.3533 -0.2567  0.0465
35935ION     CL42535  15.172   0.311   8.924  0.0357  0.0204 -0.0431
35936ION     CL42536  13.299   3.388   1.041 -0.1317 -0.0898 -0.0770
35937ION     CL42537  14.522   3.786   0.509 -0.1524 -0.3793 -0.2030
35938ION     CL42538   0.196   3.765  19.170  0.2478 -0.2934  0.4361
35939ION     CL42539  22.775   6.837  30.381 -0.3911 -0.3142 -0.1851
35940ION     CL42540  12.727   1.450  25.147 -0.1657  0.2170  0.1861
35941ION     CL42541  24.561   1.322  30.490 -0.0401  0.0050  0.4282
35942ION     CL42542  11.861   2.184  15.101  0.1192  0.3266 -0.0185
35943ION     CL42543  10.582   7.318   2.624 -0.0109  0.3391  0.2254
35944ION     CL42544   7.320   4.291  25.132 -0.0508  0.1476 -0.6809
35945ION     CL42545   9.122   3.927  26.017  0.0518  0.0856  0.0460
35946ION     CL42546  16.032   3.055  25.243  0.2690  0.0255 -0.1965
35947ION     CL42547   1.644   5.165   9.615  0.1032 -0.3648  0.4448
35948ION     CL42548  23.203   2.821   7.645 -0.2957 -0.3039 -0.1436
35949ION     CL42549  17.386   5.968  22.026 -0.0718 -0.0597  0.1486
35950ION     CL42550  13.606   6.427  32.629 -0.6018  0.4757 -0.1746
35951ION     CL42551  21.195   2.000   1.954 -0.6106  0.2791 -0.0776
35952ION     CL42552  11.640   0.618  32.581 -0.4237 -0.5579  0.1276
35953ION     CL42553   5.992   2.237  30.589  0.0959  0.2486  0.1527
35954ION     CL42554  23.201   2.596  28.509  0.0468 -0.1966  0.4163
35955ION     CL42555  18.382   2.055   6.931 -0.2656  0.0593  0.0902
35956ION     CL42556  19.843   5.193  24.353 -0.0288 -0.0749  0.2946
35957ION     CL42557   2.924   3.668  21.648  0.1813  0.0682  0.2855
35958ION     CL42558  22.349   0.084  30.759 -0.1358  0.3166 -0.4770
35959ION     CL42559  10.467   7.227  31.358  0.0863 -0.4780 -0.2272
35960ION     CL42560  14.711   5.024   7.182  0.1351  0.1067  0.2545
35961ION     CL42561  18.912   3.941   1.953  0.2683 -0.4769 -0.1217
35962DOPC   NC342562   2.274   2.797  19.426 -0.1426  0.0018 -0.0347
35962DOPC   PO442563   2.278   2.663  19.054  0.0583  0.0661  0.0963
35962DOPC   GL142564   2.568   2.627  18.849 -0.0379  0.0409 -0.0007
35962DOPC   GL242565   2.488   2.297  18.819 -0.1297 -0.0263  0.4106
35962DOPC   C1A42566   2.892   2.741  18.667 -0.3297 -0.0255  0.0550
35962DOPC   D2A42567   3.286   2.605  18.403 -0.1190 -0.1136 -0.0500
35962DOPC   C3A42568   3.447   2.399  18.022  0.4131 -0.3699  0.1032
35962DOPC   C4A42569   3.572   2.252  17.558 -0.1929 -0.0212  0.1420
35962DOPC   C1B42570   2.346   2.253  18.417  0.1902  0.0932  0.1679
35962DOPC   D2B42571   2.317   2.376  17.948 -0.1778  0.1380 -0.1124
35962DOPC   C3B42572   2.569   2.718  17.779  0.0172  0.1256 -0.3376
35962DOPC   C4B42573   2.843   3.095  17.866 -0.0483  0.0123  0.2272
35963DOPC   NC342574   0.600   4.897  16.939 -0.3757 -0.1627 -0.2387
35963DOPC   PO442575   0.634   4.891  16.516 -0.3514  0.1971 -0.0165
35963DOPC   GL142576   0.979   4.703  16.457  0.0560  0.1461  0.4192
35963DOPC   GL242577   1.051   4.688  16.750 -0.0085 -0.0748 -0.0104
35963DOPC   C1A42578   1.205   4.561  16.106  0.0160  0.2173  0.2070
35963DOPC   D2A42579   1.474   4.489  15.692 -0.1860  0.1893  0.2081
35963DOPC   C3A42580   1.671   4.313  15.306 -0.0335  0.0732 -0.0412
35963DOPC   C4A42581   1.894   4.194  14.900  0.3664  0.1007  0.1142
35963DOPC   C1B42582   1.431   4.491  16.510 -0.0819  0.0274 -0.2386
35963DOPC   D2B42583   1.500   4.173  16.119 -0.0744  0.1068  0.1226
35963DOPC   C3B42584   1.898   4.138  15.981 -0.1226  0.0612  0.1857
35963DOPC   C4B42585   2.401   4.125  15.894  0.2516 -0.1550  0.0203
35964DOPC   NC342586  17.709   2.203  16.911  0.1854  0.0836 -0.1332
35964DOPC   PO442587  17.335   2.059  16.928 -0.0295  0.1109  0.2840
35964DOPC   GL142588  17.021   1.931  16.612 -0.2095  0.0063 -0.3910
35964DOPC   GL242589  16.859   1.946  16.858  0.1474 -0.0183 -0.2405
35964DOPC   C1A42590  16.902   1.830  16.222  0.1626 -0.0850 -0.0620
35964DOPC   D2A42591  16.490   1.659  15.989 -0.0280 -0.4408  0.0057
35964DOPC   C3A42592  16.092   1.857  15.819  0.0666 -0.0628 -0.0119
35964DOPC   C4A42593  15.707   2.144  15.662 -0.0973 -0.0155 -0.0693
35964DOPC   C1B42594  16.506   1.917  16.518 -0.3634 -0.2116 -0.0661
35964DOPC   D2B42595  16.095   1.755  16.344 -0.1600  0.1316  0.5557
35964DOPC   C3B42596  15.650   1.776  16.105 -0.1464  0.1095  0.0382
35964DOPC   C4B42597  15.293   1.732  15.803  0.1241  0.0048  0.1840
35965DOPC   NC342598   1.808   7.592  19.411  0.4793 -0.0889  0.1446
35965DOPC   PO442599   1.705   7.825  19.102 -0.0829 -0.0321 -0.0538
35965DOPC   GL142600   1.881   7.796  18.697  0.2224 -0.0908  0.0074
35965DOPC   GL242601   2.111   7.690  18.896 -0.2999  0.3065  0.0829
35965DOPC   C1A42602   1.872   7.691  18.263  0.1448 -0.1311 -0.0466
35965DOPC   D2A42603   2.017   7.524  17.823 -0.2060 -0.1210  0.0804
35965DOPC   C3A42604   2.483   7.565  17.679 -0.1014 -0.1176 -0.0232
35965DOPC   C4A42605   2.864   7.490  17.342  0.1630 -0.0565  0.1953
35965DOPC   C1B42606   2.465   7.947  18.746 -0.0521  0.1940  0.1797
35965DOPC   D2B42607   2.940   7.987  18.784 -0.0848 -0.1645  0.0167
35965DOPC   C3B42608   3.124   7.594  18.864 -0.5437  0.0405 -0.1145
35965DOPC   C4B42609   3.509   7.317  18.947 -0.0846 -0.0482 -0.3369
35966DOPC   NC342610   9.768   2.679  22.456  0.0586  0.3355  0.1575
35966DOPC   PO442611   9.819   2.252  22.558  0.2650  0.0105  0.0889
35966DOPC   GL142612   9.490   2.031  22.378 -0.0270  0.1421 -0.0218
35966DOPC   GL242613   9.649   1.745  22.386  0.1693 -0.0583  0.1308
35966DOPC   C1A42614   9.388   2.042  21.941 -0.2277  0.0819  0.1329
35966DOPC   D2A42615   9.100   1.994  21.530 -0.1172  0.0473  0.0174
35966DOPC   C3A42616   9.234   2.042  21.089 -0.3471  0.1642  0.3172
35966DOPC   C4A42617   9.250   2.018  20.599  0.0594 -0.1491  0.0619
35966DOPC   C1B42618   9.416   1.554  22.134  0.0474 -0.0490 -0.0628
35966DOPC   D2B42619   8.963   1.327  21.950 -0.1745 -0.1226  0.0723
35966DOPC   C3B42620   8.975   1.190  21.486 -0.0941  0.2425  0.2890
35966DOPC   C4B42621   9.032   1.135  20.996  0.0844 -0.0717  0.0388
35967DOPC   NC342622  24.376   3.771  15.043 -0.1329  0.0301  0.0893
35967DOPC   PO442623  24.610   3.623  15.328  0.1509 -0.1851 -0.2596
35967DOPC   GL142624  24.983   3.607  15.172  0.0535  0.2681  0.0514
35967DOPC   GL242625  24.820   3.809  14.933 -0.1219 -0.0501 -0.1421
35967DOPC   C1A42626  25.354   3.444  15.014  0.1126  0.1948 -0.3174
35967DOPC   D2A42627  25.746   3.317  14.653 -0.0623 -0.2981 -0.1932
35967DOPC   C3A42628  26.082   3.349  14.339  0.0686 -0.1537  0.1162
35967DOPC   C4A42629  26.512   3.237  14.088  0.1135  0.1751  0.0677
35967DOPC   C1B42630  25.030   3.783  14.580 -0.0560 -0.0915  0.3727
35967DOPC   D2B42631  25.169   3.587  14.155 -0.1009 -0.0344 -0.0006
35967DOPC   C3B42632  24.909   3.405  13.752  0.0591  0.0642 -0.0535
35967DOPC   C4B42633  24.734   3.327  13.329  0.1127  0.0069  0.0870
35968DOPC   NC342634  18.780   4.304  14.858  0.1020 -0.1948 -0.0687
35968DOPC   PO442635  18.732   3.925  14.986  0.0330  0.1557  0.1742
35968DOPC   GL142636  18.524   3.646  14.717  0.5618 -0.1329  0.2604
35968DOPC   GL242637  18.320   3.532  14.935 -0.1020 -0.0846  0.1573
35968DOPC   C1A42638  18.309   3.869  14.353  0.0030 -0.0965  0.2490
35968DOPC   D2A42639  17.980   4.034  14.088 -0.1392 -0.0347 -0.2426
35968DOPC   C3A42640  17.795   4.265  13.689 -0.0973 -0.0021 -0.2631
35968DOPC   C4A42641  17.583   4.587  13.375 -0.2780 -0.0702 -0.0648
35968DOPC   C1B42642  18.006   3.566  14.659 -0.3785 -0.1438  0.3638
35968DOPC   D2B42643  17.581   3.375  14.534  0.1541  0.0005  0.0132
35968DOPC   C3B42644  17.475   2.915  14.586  0.1127  0.1634 -0.1751
35968DOPC   C4B42645  17.174   2.540  14.405 -0.1238 -0.1289  0.0491
35969DOPC   NC342646  19.027   5.603  14.789 -0.2414  0.1217 -0.2287
35969DOPC   PO442647  18.934   5.239  14.736 -0.1599  0.0205  0.0998
35969DOPC   GL142648  18.830   5.161  14.357  0.1101 -0.1977 -0.0941
35969DOPC   GL242649  19.176   5.295  14.332 -0.0475  0.2269 -0.0781
35969DOPC   C1A42650  18.742   5.049  13.947  0.1532 -0.1269 -0.3058
35969DOPC   D2A42651  18.712   5.037  13.439 -0.0085  0.1266  0.0737
35969DOPC   C3A42652  19.208   5.026  13.478  0.0789  0.1474 -0.0631
35969DOPC   C4A42653  19.683   4.978  13.274  0.1684 -0.2088  0.0917
35969DOPC   C1B42654  19.245   5.242  13.929 -0.1499 -0.0507  0.0176
35969DOPC   D2B42655  19.256   5.508  13.482 -0.1843  0.1227  0.2958
35969DOPC   C3B42656  19.024   5.847  13.339 -0.2157 -0.0852  0.0279
35969DOPC   C4B42657  18.584   6.074  13.334  0.0644 -0.0808  0.0252
35970DOPC   NC342658  18.533   5.017  14.806 -0.0686 -0.1496 -0.0048
35970DOPC   PO442659  18.353   5.354  14.975  0.2144  0.1269  0.1500
35970DOPC   GL142660  17.936   5.155  14.922  0.2376 -0.0365 -0.3972
35970DOPC   GL242661  18.029   4.961  14.769  0.0225  0.4481  0.0082
35970DOPC   C1A42662  17.505   5.244  14.843 -0.3658 -0.0050  0.2393
35970DOPC   D2A42663  17.086   5.361  14.682  0.0596  0.1812 -0.0245
35970DOPC   C3A42664  16.921   5.044  14.315  0.1429 -0.1471  0.0260
35970DOPC   C4A42665  16.885   4.754  13.916  0.1214  0.0636 -0.3762
35970DOPC   C1B42666  17.684   4.927  14.454  0.1599 -0.1485 -0.0542
35970DOPC   D2B42667  17.312   4.791  14.195  0.1325  0.0710 -0.0613
35970DOPC   C3B42668  17.335   5.273  14.076 -0.0013  0.0384 -0.4058
35970DOPC   C4B42669  17.247   5.761  13.905  0.0203  0.3449 -0.0535
35971DOPC   NC342670  11.013   2.058  22.352 -0.0813 -0.2347 -0.0329
35971DOPC   PO442671  11.093   2.422  22.367 -0.1112 -0.1013 -0.1495
35971DOPC   GL142672  10.926   2.583  22.043  0.2459 -0.2103 -0.0048
35971DOPC   GL242673  10.640   2.414  22.123 -0.1322 -0.0649 -0.1215
35971DOPC   C1A42674  11.006   2.498  21.538  0.0036 -0.2007 -0.0672
35971DOPC   D2A42675  10.923   2.576  21.026  0.1359 -0.0838 -0.0410
35971DOPC   C3A42676  10.988   2.420  20.631 -0.3307 -0.1586 -0.1879
35971DOPC   C4A42677  11.017   2.108  20.286  0.0780 -0.2831 -0.0796
35971DOPC   C1B42678  10.491   2.357  21.687  0.1549  0.1870  0.0202
35971DOPC   D2B42679  10.453   2.179  21.264 -0.1597  0.0343  0.1277
35971DOPC   C3B42680  10.331   2.015  20.852 -0.0545 -0.0957 -0.0702
35971DOPC   C4B42681   9.996   1.657  20.714  0.1678 -0.0910 -0.0877
35972DOPC   NC342682   2.169   3.263  19.611 -0.2232 -0.0904 -0.2881
35972DOPC   PO442683   2.134   3.222  19.201 -0.2459 -0.0552  0.1502
35972DOPC   GL142684   2.297   3.174  18.861 -0.3623 -0.1846 -0.0978
35972DOPC   GL242685   2.267   3.461  18.768 -0.0070  0.1376  0.0344
35972DOPC   C1A42686   2.670   3.172  18.591  0.1942  0.0932 -0.2923
35972DOPC   D2A42687   3.068   3.047  18.322  0.0016 -0.0853 -0.0235
35972DOPC   C3A42688   3.491   2.894  18.038 -0.0762  0.0519 -0.1729
35972DOPC   C4A42689   3.688   2.773  17.654  0.1527 -0.1754  0.0970
35972DOPC   C1B42690   2.613   3.803  18.736 -0.2373  0.4771 -0.1226
35972DOPC   D2B42691   2.972   4.157  18.764  0.1573  0.0083  0.3150
35972DOPC   C3B42692   3.385   3.981  18.606 -0.1593  0.1031  0.2360
35972DOPC   C4B42693   3.774   3.733  18.512 -0.2744  0.0498  0.3466
35973DOPC   NC342694   4.782   0.845  21.724  0.1822  0.0680  0.2409
35973DOPC   PO442695   4.733   0.440  21.877  0.0021 -0.5440  0.0499
35973DOPC   GL142696   4.997   0.186  21.599 -0.0267  0.0734 -0.0212
35973DOPC   GL242697   5.127   0.455  21.631  0.3093  0.1009 -0.2346
35973DOPC   C1A42698   4.917   0.105  21.160  0.0930 -0.3562  0.2079
35973DOPC   D2A42699   4.768   0.061  20.696 -0.3050 -0.4006 -0.0815
35973DOPC   C3A42700   4.783  -0.304  20.357 -0.1705  0.2284  0.1385
35973DOPC   C4A42701   4.938  -0.676  20.180 -0.0401  0.3793 -0.4019
35973DOPC   C1B42702   5.525   0.712  21.370  0.0395 -0.0200 -0.3203
35973DOPC   D2B42703   5.895   0.821  21.154  0.1695  0.1367 -0.1271
35973DOPC   C3B42704   6.136   0.964  20.812  0.0381 -0.1647 -0.2283
35973DOPC   C4B42705   6.286   0.882  20.381  0.0733  0.1968 -0.1688
35974DOPC   NC342706  13.977   3.703  21.412 -0.4567  0.0136 -0.0631
35974DOPC   PO442707  13.962   3.679  20.990  0.0776 -0.2201  0.2320
35974DOPC   GL142708  13.562   3.509  21.016  0.0560 -0.4421  0.1358
35974DOPC   GL242709  13.497   3.846  21.097 -0.2508  0.4254 -0.0538
35974DOPC   C1A42710  13.257   3.390  20.762 -0.0250 -0.2911 -0.1131
35974DOPC   D2A42711  13.053   3.293  20.317  0.1980  0.3070  0.0350
35974DOPC   C3A42712  13.390   3.100  19.985 -0.1087  0.3349  0.3505
35974DOPC   C4A42713  13.601   2.932  19.555  0.4335  0.4697  0.0736
35974DOPC   C1B42714  13.370   3.878  20.736  0.0948 -0.1861  0.1356
35974DOPC   D2B42715  13.127   3.875  20.285  0.1011 -0.2149  0.1749
35974DOPC   C3B42716  13.219   3.616  19.902 -0.2319 -0.2306 -0.2422
35974DOPC   C4B42717  13.317   3.341  19.564  0.2934 -0.0272 -0.1583
35975DOPC   NC342718  10.742   0.236  22.824  0.0016 -0.2184 -0.0953
35975DOPC   PO442719  10.794   0.315  22.432 -0.0109 -0.0618  0.0369
35975DOPC   GL142720  10.416   0.187  22.229  0.0740 -0.0616 -0.0174
35975DOPC   GL242721  10.491  -0.133  22.296  0.2324  0.1821  0.4283
35975DOPC   C1A42722  10.315   0.119  21.703  0.0030  0.0696 -0.2488
35975DOPC   D2A42723  10.236   0.287  21.232 -0.1044 -0.0251 -0.2074
35975DOPC   C3A42724  10.422   0.542  20.852 -0.3060  0.1809 -0.2159
35975DOPC   C4A42725  10.554   0.658  20.427 -0.2864 -0.1777 -0.0483
35975DOPC   C1B42726  10.355  -0.310  21.959 -0.1042 -0.1321  0.2586
35975DOPC   D2B42727  10.405  -0.639  21.629 -0.0460  0.0278 -0.1028
35975DOPC   C3B42728  10.109  -0.951  21.420  0.0609 -0.0235 -0.1883
35975DOPC   C4B42729  10.275  -1.369  21.191 -0.0806 -0.0186  0.1473
35976DOPC   NC342730   0.024   0.571  16.470  0.0016  0.0018  0.1511
35976DOPC   PO442731   0.115   0.247  16.391  0.1428 -0.0613 -0.0852
35976DOPC   GL142732   0.433   0.222  16.225 -0.0824  0.0077  0.2248
35976DOPC   GL242733   0.424   0.506  16.210 -0.3333 -0.0964  0.2321
35976DOPC   C1A42734   0.657  -0.039  15.911  0.1040 -0.2398  0.1678
35976DOPC   D2A42735   0.835  -0.460  15.677  0.0148  0.0854  0.0503
35976DOPC   C3A42736   0.990  -0.894  15.671  0.1084  0.0391  0.2087
35976DOPC   C4A42737   1.494  -1.033  15.619 -0.0870  0.2303  0.0485
35976DOPC   C1B42738   0.838   0.421  16.087 -0.0576 -0.2711 -0.4334
35976DOPC   D2B42739   1.216   0.234  15.740  0.1464  0.1630  0.4411
35976DOPC   C3B42740   1.478   0.145  15.375  0.0875 -0.1040  0.0499
35976DOPC   C4B42741   1.431  -0.067  14.931 -0.0742  0.1080 -0.0223
35977DOPC   NC342742   9.418   5.605  22.964  0.1619  0.0512  0.1812
35977DOPC   PO442743   9.610   5.314  22.838 -0.2046 -0.0251  0.1338
35977DOPC   GL142744   9.406   5.098  22.475 -0.0582  0.2469  0.1972
35977DOPC   GL242745   9.380   5.397  22.423  0.4151 -0.0068 -0.0121
35977DOPC   C1A42746   9.339   4.845  22.209  0.1331 -0.3084 -0.1283
35977DOPC   D2A42747   9.380   4.433  21.957 -0.3075 -0.1835  0.0483
35977DOPC   C3A42748   9.223   4.299  21.543  0.1800 -0.3180 -0.0801
35977DOPC   C4A42749   9.030   4.008  21.215 -0.0722  0.3531  0.1220
35977DOPC   C1B42750   9.093   5.651  22.176 -0.2352  0.0522 -0.2054
35977DOPC   D2B42751   8.647   5.828  22.133  0.0142 -0.0490 -0.1260
35977DOPC   C3B42752   8.508   5.775  21.690 -0.0313 -0.1166  0.0845
35977DOPC   C4B42753   8.245   5.897  21.312 -0.0103  0.0358  0.1542
35978DOPC   NC342754  17.569   4.519  15.566 -0.2383  0.0714  0.0775
35978DOPC   PO442755  17.470   4.697  15.909  0.0595  0.1411  0.2887
35978DOPC   GL142756  17.143   4.761  15.793  0.1369  0.1848  0.0770
35978DOPC   GL242757  17.295   4.887  15.538  0.4093 -0.0945 -0.2662
35978DOPC   C1A42758  16.684   4.629  15.822  0.1611 -0.2231  0.1220
35978DOPC   D2A42759  16.351   4.294  15.680  0.0421 -0.1740 -0.1034
35978DOPC   C3A42760  15.890   4.436  15.734 -0.0715 -0.1332 -0.2090
35978DOPC   C4A42761  15.403   4.477  15.761  0.1854 -0.0448  0.0885
35978DOPC   C1B42762  17.129   5.026  15.135  0.0841 -0.2786 -0.1770
35978DOPC   D2B42763  16.663   5.078  14.837 -0.2204 -0.5422 -0.0761
35978DOPC   C3B42764  16.261   4.898  14.775 -0.0420  0.1845 -0.2163
35978DOPC   C4B42765  16.073   4.611  14.544 -0.1028 -0.1469 -0.1096
35979DOPC   NC342766  23.914   4.207  14.860  0.0430 -0.0734  0.0230
35979DOPC   PO442767  23.677   4.255  14.556  0.0781 -0.0323 -0.2448
35979DOPC   GL142768  23.840   4.223  14.169  0.1595  0.1219  0.0095
35979DOPC   GL242769  24.102   4.307  14.342  0.1188  0.0458 -0.3024
35979DOPC   C1A42770  24.070   4.422  13.842  0.0741 -0.0843  0.1954
35979DOPC   D2A42771  24.314   4.600  13.386 -0.2087  0.1742 -0.2091
35979DOPC   C3A42772  24.094   4.542  12.950  0.1438  0.2402  0.0669
35979DOPC   C4A42773  23.818   4.654  12.562 -0.0894  0.5208  0.0375
35979DOPC   C1B42774  24.259   4.722  14.161  0.0613  0.0617  0.4601
35979DOPC   D2B42775  24.294   5.147  13.830 -0.0815 -0.1975 -0.2230
35979DOPC   C3B42776  23.927   5.375  13.650 -0.0211 -0.2560  0.1491
35979DOPC   C4B42777  23.431   5.482  13.570 -0.0113  0.0311  0.1514
35980DOPC   NC342778  20.624   0.612  14.186 -0.2227 -0.0519 -0.1374
35980DOPC   PO442779  20.240   0.646  14.224 -0.1271  0.0262  0.2792
35980DOPC   GL142780  20.197   0.875  13.893 -0.3796  0.0854 -0.1676
35980DOPC   GL242781  20.356   0.661  13.708 -0.2342 -0.1205 -0.1014
35980DOPC   C1A42782  20.046   0.990  13.491  0.1138 -0.1225  0.3103
35980DOPC   D2A42783  20.010   0.957  13.027 -0.0300  0.0546 -0.0003
35980DOPC   C3A42784  20.352   1.094  12.854  0.3280  0.0616 -0.0023
35980DOPC   C4A42785  20.587   0.656  12.772 -0.1858 -0.3638 -0.1376
35980DOPC   C1B42786  20.206   0.495  13.317 -0.3405  0.1472  0.0160
35980DOPC   D2B42787  20.211   0.250  12.865 -0.0124 -0.0651  0.1084
35980DOPC   C3B42788  20.020   0.032  12.497 -0.1105 -0.1735  0.2749
35980DOPC   C4B42789  19.704  -0.268  12.408  0.1203 -0.0408  0.0074
35981DOPC   NC342790  14.973   5.624  19.553 -0.2850 -0.1662 -0.2018
35981DOPC   PO442791  14.970   5.243  19.668  0.2987 -0.1638 -0.0270
35981DOPC   GL142792  14.660   5.317  19.711 -0.1409 -0.0604  0.0340
35981DOPC   GL242793  14.558   5.092  19.464  0.2424 -0.2157  0.1204
35981DOPC   C1A42794  14.238   5.596  19.673 -0.1460  0.1370 -0.0691
35981DOPC   D2A42795  13.757   5.786  19.612 -0.1372  0.0185 -0.0297
35981DOPC   C3A42796  13.358   5.640  19.624  0.0428  0.0831 -0.0194
35981DOPC   C4A42797  12.961   5.581  19.832  0.0368  0.0505  0.1921
35981DOPC   C1B42798  14.375   5.337  19.191  0.0368 -0.2027 -0.0790
35981DOPC   D2B42799  14.505   5.696  18.966 -0.0549 -0.2273  0.3578
35981DOPC   C3B42800  14.201   5.932  18.788 -0.1808  0.1325  0.2635
35981DOPC   C4B42801  13.990   6.245  18.428 -0.2739 -0.0768 -0.1213
35982DOPC   NC342802   5.188   1.242  22.146 -0.0062 -0.1438 -0.1605
35982DOPC   PO442803   5.059   1.263  21.775  0.2071 -0.1648 -0.0825
35982DOPC   GL142804   5.163   1.562  21.468 -0.0353  0.2633  0.0997
35982DOPC   GL242805   4.893   1.564  21.366  0.0842 -0.2833 -0.1542
35982DOPC   C1A42806   5.284   1.521  21.033  0.0825  0.2079 -0.0021
35982DOPC   D2A42807   5.384   1.682  20.611  0.0303 -0.1209  0.4507
35982DOPC   C3A42808   5.517   1.599  20.186  0.1582  0.2849  0.1817
35982DOPC   C4A42809   5.600   1.329  19.745 -0.0481 -0.0595 -0.1910
35982DOPC   C1B42810   4.853   1.311  20.948  0.1641  0.0709 -0.0559
35982DOPC   D2B42811   4.890   0.879  20.788 -0.3008 -0.1258  0.1699
35982DOPC   C3B42812   5.336   0.964  20.793 -0.2169 -0.1525  0.2324
35982DOPC   C4B42813   5.714   1.282  20.652 -0.1834 -0.1571  0.1539
35983DOPC   NC342814  17.890   2.527  15.985  0.2604  0.1138  0.1434
35983DOPC   PO442815  17.555   2.772  15.909 -0.1556  0.1937  0.0185
35983DOPC   GL142816  17.441   2.987  15.605 -0.2794 -0.0768 -0.1457
35983DOPC   GL242817  17.369   3.237  15.737  0.0421 -0.2888 -0.0175
35983DOPC   C1A42818  17.077   3.115  15.365  0.0369  0.0239 -0.0746
35983DOPC   D2A42819  16.636   3.161  15.061 -0.2972  0.1880 -0.3719
35983DOPC   C3A42820  16.422   2.885  14.757  0.1483  0.2104 -0.0665
35983DOPC   C4A42821  16.096   2.677  14.508  0.2156  0.3265 -0.0770
35983DOPC   C1B42822  16.967   3.096  15.836  0.1272  0.2339  0.0340
35983DOPC   D2B42823  16.471   2.868  15.888 -0.0367  0.1132  0.0485
35983DOPC   C3B42824  16.028   3.014  15.711  0.1031  0.0535 -0.2464
35983DOPC   C4B42825  15.662   3.029  15.402 -0.1133 -0.0744  0.1673
35984DOPC   NC342826  22.441   6.458  13.969 -0.0242  0.2008 -0.2737
35984DOPC   PO442827  22.441   6.144  14.206  0.0525 -0.1086 -0.0269
35984DOPC   GL142828  22.322   5.986  13.828  0.0872  0.1237  0.1729
35984DOPC   GL242829  22.612   6.078  13.707  0.1352 -0.1524  0.1113
35984DOPC   C1A42830  22.171   6.098  13.494  0.0597  0.0101 -0.0304
35984DOPC   D2A42831  22.140   6.099  12.987  0.0269 -0.1358 -0.0319
35984DOPC   C3A42832  22.455   6.141  12.683 -0.0831  0.0510  0.1919
35984DOPC   C4A42833  22.631   6.210  12.252 -0.0854  0.4012  0.1318
35984DOPC   C1B42834  22.715   5.991  13.267  0.0146 -0.0898 -0.0785
35984DOPC   D2B42835  22.821   5.887  12.850 -0.0337 -0.1108 -0.1843
35984DOPC   C3B42836  23.050   5.936  12.461  0.0471 -0.0554 -0.0475
35984DOPC   C4B42837  23.305   6.057  12.098 -0.3608  0.1144  0.0528
35985DOPC   NC342838  24.500   5.134  15.872  0.0253  0.0500  0.3066
35985DOPC   PO442839  24.830   4.864  15.790  0.1070 -0.0821  0.0100
35985DOPC   GL142840  25.074   5.003  15.559 -0.2791 -0.0252  0.0282
35985DOPC   GL242841  24.939   5.049  15.358  0.2963  0.0687  0.0391
35985DOPC   C1A42842  25.388   4.867  15.289 -0.2446  0.3419  0.3402
35985DOPC   D2A42843  25.696   5.047  14.913  0.1187 -0.0855  0.0662
35985DOPC   C3A42844  26.157   5.007  14.950  0.0860 -0.0593 -0.2631
35985DOPC   C4A42845  26.617   4.900  15.023  0.1596 -0.1010  0.0438
35985DOPC   C1B42846  25.144   5.229  15.029  0.0933  0.3429  0.2954
35985DOPC   D2B42847  25.369   5.504  14.745 -0.0723 -0.0046  0.0053
35985DOPC   C3B42848  25.662   5.566  14.326  0.2456 -0.0310 -0.1637
35985DOPC   C4B42849  26.075   5.438  14.096 -0.0613 -0.0438  0.1667
35986DOPC   NC342850  18.439   1.269  15.106 -0.0334 -0.2193  0.4414
35986DOPC   PO442851  18.374   0.871  15.094  0.0971 -0.2701 -0.2631
35986DOPC   GL142852  18.122   0.654  14.973 -0.1438  0.1392 -0.1812
35986DOPC   GL242853  18.237   0.477  14.714 -0.0925 -0.2050 -0.3499
35986DOPC   C1A42854  17.758   0.720  14.789  0.0955 -0.0176 -0.0064
35986DOPC   D2A42855  17.370   0.751  14.536  0.0573 -0.5218  0.2226
35986DOPC   C3A42856  17.055   0.750  14.234 -0.3009 -0.1388 -0.3149
35986DOPC   C4A42857  16.958   0.340  13.973 -0.1089  0.0517  0.1691
35986DOPC   C1B42858  17.884   0.353  14.414 -0.0713 -0.2508 -0.2449
35986DOPC   D2B42859  17.633   0.604  14.054 -0.1573  0.0127 -0.2494
35986DOPC   C3B42860  17.830   0.880  13.695 -0.1831 -0.1363  0.0674
35986DOPC   C4B42861  17.812   1.391  13.589 -0.0530 -0.1067  0.1865
35987DOPC   NC342862  15.504   6.697  18.977  0.1032  0.0076  0.1647
35987DOPC   PO442863  15.464   7.002  19.267  0.0236 -0.0730 -0.1533
35987DOPC   GL142864  15.034   7.061  19.328  0.0249  0.0524 -0.0381
35987DOPC   GL242865  15.134   7.314  19.223  0.4962 -0.0828  0.1167
35987DOPC   C1A42866  14.580   7.024  19.241  0.2720  0.0219 -0.1058
35987DOPC   D2A42867  14.141   6.915  19.122  0.0396 -0.2937 -0.1505
35987DOPC   C3A42868  13.899   6.777  18.745 -0.1799  0.0509  0.1730
35987DOPC   C4A42869  13.665   6.604  18.363 -0.1709  0.0530 -0.0395
35987DOPC   C1B42870  14.796   7.467  18.977  0.2103  0.3580  0.3003
35987DOPC   D2B42871  14.439   7.217  18.755  0.1794  0.0044 -0.0450
35987DOPC   C3B42872  14.037   7.204  18.545 -0.0636  0.1302  0.0081
35987DOPC   C4B42873  13.557   7.140  18.508 -0.1682  0.1718  0.2293
35988DOPC   NC342874  16.163   4.271  18.212  0.0506 -0.2135 -0.0074
35988DOPC   PO442875  16.184   3.890  18.044  0.0471 -0.1302 -0.1255
35988DOPC   GL142876  16.037   3.930  17.650 -0.1037  0.1553  0.0309
35988DOPC   GL242877  16.091   4.172  17.532 -0.2060  0.0064  0.2346
35988DOPC   C1A42878  15.708   3.753  17.591  0.2684  0.0448  0.1111
35988DOPC   D2A42879  15.393   3.464  17.472 -0.0297 -0.2955  0.1013
35988DOPC   C3A42880  14.996   3.512  17.195 -0.1694  0.1964  0.3001
35988DOPC   C4A42881  14.697   3.462  16.778 -0.0124 -0.3341  0.1228
35988DOPC   C1B42882  15.724   4.334  17.520  0.2802 -0.2147  0.0417
35988DOPC   D2B42883  15.303   4.418  17.316 -0.2579  0.2421  0.1255
35988DOPC   C3B42884  15.117   4.548  16.916  0.2932  0.2981 -0.1572
35988DOPC   C4B42885  15.076   4.707  16.462  0.2430 -0.1158  0.0092
35989DOPC   NC342886   0.048   1.353  17.036 -0.0408 -0.0860  0.1035
35989DOPC   PO442887   0.384   1.400  16.773  0.3656 -0.0367  0.1145
35989DOPC   GL142888   0.835   1.275  16.900  0.1372  0.0142 -0.1829
35989DOPC   GL242889   0.859   1.564  16.807 -0.0592  0.2072 -0.2471
35989DOPC   C1A42890   1.099   1.073  16.771 -0.1405 -0.1901 -0.0935
35989DOPC   D2A42891   1.418   1.135  16.419 -0.2333 -0.1159  0.1055
35989DOPC   C3A42892   1.795   0.980  16.315 -0.2425 -0.2240  0.0358
35989DOPC   C4A42893   2.112   0.813  16.674 -0.0545 -0.0938  0.2832
35989DOPC   C1B42894   1.195   1.565  16.451 -0.0889 -0.0591  0.0283
35989DOPC   D2B42895   1.568   1.560  16.102  0.0639  0.0423  0.2149
35989DOPC   C3B42896   1.952   1.460  16.187  0.1008  0.2721  0.0929
35989DOPC   C4B42897   2.278   1.119  16.203  0.0118  0.1378  0.1428
35990DOPC   NC342898   1.708   6.990  18.636 -0.0067 -0.0086  0.2102
35990DOPC   PO442899   1.862   6.706  18.853 -0.0463 -0.2496 -0.1229
35990DOPC   GL142900   2.147   6.475  18.633  0.2381 -0.0528  0.0087
35990DOPC   GL242901   2.052   6.558  18.397 -0.0579 -0.1944 -0.0805
35990DOPC   C1A42902   2.508   6.278  18.654  0.2834 -0.2125 -0.0280
35990DOPC   D2A42903   2.874   6.362  18.369 -0.0363 -0.0253  0.0328
35990DOPC   C3A42904   3.205   6.572  18.593 -0.1034 -0.2409  0.1008
35990DOPC   C4A42905   3.651   6.402  18.668  0.0085  0.1607 -0.1167
35990DOPC   C1B42906   2.468   6.640  18.239  0.0779  0.1683 -0.2216
35990DOPC   D2B42907   2.743   6.713  17.946 -0.0318 -0.1366  0.5347
35990DOPC   C3B42908   3.146   6.608  18.059  0.1601 -0.0275 -0.1688
35990DOPC   C4B42909   3.556   6.705  18.265 -0.0847  0.0292  0.2963
35991DOPC   NC342910  23.612   3.341  14.600 -0.1779  0.0844  0.1384
35991DOPC   PO442911  23.646   3.751  14.711  0.0464  0.0431 -0.3417
35991DOPC   GL142912  23.960   3.875  14.449 -0.0645 -0.3615 -0.3298
35991DOPC   GL242913  24.152   3.970  14.563 -0.0054 -0.0618 -0.2390
35991DOPC   C1A42914  24.240   3.952  14.120  0.0324 -0.1887 -0.0062
35991DOPC   D2A42915  24.501   4.307  14.042 -0.1851 -0.2189 -0.1170
35991DOPC   C3A42916  24.605   4.697  13.798 -0.1342  0.1533  0.2142
35991DOPC   C4A42917  24.669   5.089  13.520  0.2860  0.2760  0.0111
35991DOPC   C1B42918  24.396   3.590  14.520 -0.1965 -0.3207 -0.0184
35991DOPC   D2B42919  24.771   3.320  14.392  0.0458  0.3750 -0.1977
35991DOPC   C3B42920  24.921   3.024  14.104 -0.1801  0.0283 -0.1892
35991DOPC   C4B42921  25.330   2.956  13.838  0.0478 -0.1984 -0.1730
35992DOPC   NC342922  21.988   1.695  14.394 -0.0363 -0.0303  0.2192
35992DOPC   PO442923  22.219   1.980  14.385  0.0030  0.3623  0.1600
35992DOPC   GL142924  22.293   1.961  14.016  0.3086 -0.2613  0.2208
35992DOPC   GL242925  22.040   1.963  13.839  0.2605 -0.1357  0.1614
35992DOPC   C1A42926  22.569   2.181  13.675  0.1724  0.1013 -0.2934
35992DOPC   D2A42927  22.909   2.313  13.300 -0.0233 -0.1683 -0.0711
35992DOPC   C3A42928  23.168   1.972  13.150 -0.1351 -0.1588 -0.2951
35992DOPC   C4A42929  23.545   1.873  12.869 -0.0554 -0.0538 -0.2252
35992DOPC   C1B42930  21.886   1.645  13.568  0.1290  0.3202  0.2453
35992DOPC   D2B42931  21.663   1.452  13.159 -0.0265 -0.0153 -0.0346
35992DOPC   C3B42932  21.807   1.575  12.707 -0.2909 -0.0095  0.0859
35992DOPC   C4B42933  22.195   1.598  12.367  0.2354 -0.2871  0.2106
35993DOPC   NC342934   0.345   4.186  16.640 -0.0592 -0.0480 -0.1021
35993DOPC   PO442935   0.367   4.496  16.375  0.3118  0.0076  0.4137
35993DOPC   GL142936   0.678   4.573  16.092 -0.2811  0.1097 -0.1424
35993DOPC   GL242937   0.548   4.841  16.081  0.1067  0.0058 -0.1046
35993DOPC   C1A42938   0.873   4.569  15.696  0.2154  0.0042 -0.0850
35993DOPC   D2A42939   1.041   4.519  15.228  0.1559 -0.2143  0.0741
35993DOPC   C3A42940   0.898   4.569  14.785 -0.3080 -0.1156 -0.1198
35993DOPC   C4A42941   0.617   4.307  14.453 -0.2102 -0.0558  0.0358
35993DOPC   C1B42942   0.919   5.025  15.986 -0.0511  0.2254 -0.0394
35993DOPC   D2B42943   0.842   5.385  15.738  0.0048 -0.0374 -0.1184
35993DOPC   C3B42944   1.051   5.448  15.289  0.1701  0.1664  0.2856
35993DOPC   C4B42945   1.509   5.397  15.161  0.0037  0.1229  0.2327
35994DOPC   NC342946  11.667   4.111  22.193 -0.1160  0.1001 -0.0274
35994DOPC   PO442947  11.308   3.957  22.172  0.0420  0.1194  0.0368
35994DOPC   GL142948  11.161   4.008  21.842  0.3187 -0.1765  0.0381
35994DOPC   GL242949  11.255   4.319  21.847  0.3153  0.2495 -0.1576
35994DOPC   C1A42950  11.057   3.899  21.450  0.0398  0.0483 -0.1579
35994DOPC   D2A42951  10.656   3.678  21.193  0.2284  0.1842  0.1609
35994DOPC   C3A42952  10.530   3.594  20.733 -0.4453 -0.1591 -0.3208
35994DOPC   C4A42953  10.091   3.608  20.482 -0.0202  0.0882  0.1241
35994DOPC   C1B42954  10.974   4.535  21.580 -0.1445  0.2575  0.1864
35994DOPC   D2B42955  10.860   4.654  21.085  0.0134  0.0339 -0.1253
35994DOPC   C3B42956  10.998   5.132  20.953 -0.0157  0.0486 -0.0643
35994DOPC   C4B42957  11.062   5.600  20.748  0.0230 -0.1594  0.0499
35995DOPC   NC342958  13.476   7.078  21.420  0.2432 -0.0727  0.2691
35995DOPC   PO442959  13.252   7.325  21.588  0.1617 -0.2204  0.1197
35995DOPC   GL142960  13.006   7.334  21.280  0.0628  0.0214  0.1998
35995DOPC   GL242961  12.815   7.200  21.438  0.2991  0.1186 -0.0150
35995DOPC   C1A42962  12.948   7.535  20.906  0.0870  0.2337 -0.0861
35995DOPC   D2A42963  12.603   7.671  20.526 -0.0348 -0.0181 -0.1686
35995DOPC   C3A42964  12.127   7.619  20.289 -0.2036 -0.2971 -0.1725
35995DOPC   C4A42965  11.684   7.747  20.050 -0.0182 -0.2051 -0.0215
35995DOPC   C1B42966  12.519   7.325  21.203  0.0316 -0.0086 -0.2266
35995DOPC   D2B42967  12.319   7.279  20.763  0.0215 -0.2411  0.0186
35995DOPC   C3B42968  11.990   7.094  20.466  0.0614  0.2350  0.0859
35995DOPC   C4B42969  11.882   7.097  19.971  0.1437  0.2217 -0.1043
35996DOPC   NC342970   1.837   0.944  19.191  0.3240  0.1028 -0.1744
35996DOPC   PO442971   1.841   1.261  18.898 -0.0025 -0.0402  0.0560
35996DOPC   GL142972   2.098   1.144  18.614  0.1832  0.0662  0.2463
35996DOPC   GL242973   2.290   1.395  18.637  0.1146  0.0919  0.0121
35996DOPC   C1A42974   2.251   0.846  18.400  0.2300  0.1425  0.1821
35996DOPC   D2A42975   2.438   0.580  18.072 -0.1087 -0.1794 -0.0677
35996DOPC   C3A42976   2.104   0.405  17.786  0.2044  0.1320  0.1111
35996DOPC   C4A42977   1.677   0.640  17.597  0.1219  0.1537 -0.0801
35996DOPC   C1B42978   2.630   1.359  18.315  0.1696 -0.2872  0.2004
35996DOPC   D2B42979   3.128   1.530  18.161  0.1304 -0.0724  0.2864
35996DOPC   C3B42980   3.531   1.393  18.091  0.1275  0.1038  0.1049
35996DOPC   C4B42981   3.947   1.365  17.885  0.0005 -0.2202 -0.0741
35997DOPC   NC342982  19.399   1.765  14.058 -0.1006  0.0998  0.0448
35997DOPC   PO442983  19.224   2.100  14.231  0.1062 -0.0200  0.1485
35997DOPC   GL142984  18.902   2.040  14.030 -0.0579  0.1531  0.0090
35997DOPC   GL242985  18.779   2.294  14.186 -0.2388  0.1268  0.4111
35997DOPC   C1A42986  18.990   2.102  13.568 -0.0733  0.1420 -0.2469
35997DOPC   D2A42987  18.844   2.007  13.091  0.2339 -0.0159  0.0427
35997DOPC   C3A42988  18.639   2.223  12.704 -0.4040  0.0203 -0.0680
35997DOPC   C4A42989  18.248   2.422  12.500  0.1599  0.0973 -0.4448
35997DOPC   C1B42990  18.373   2.428  14.075 -0.1111  0.0435 -0.4172
35997DOPC   D2B42991  17.852   2.569  14.159 -0.2577  0.1067  0.0728
35997DOPC   C3B42992  17.461   2.632  13.968 -0.0095 -0.2613 -0.0092
35997DOPC   C4B42993  17.066   2.880  13.723 -0.3191 -0.0975 -0.2038
35998DOPC   NC342994  23.762   7.103  15.262  0.2078  0.2640  0.2420
35998DOPC   PO442995  23.719   7.329  14.942 -0.2593 -0.0414 -0.3607
35998DOPC   GL142996  23.862   7.331  14.497  0.0938  0.3802 -0.1939
35998DOPC   GL242997  23.669   7.097  14.488  0.0422  0.0834 -0.4051
35998DOPC   C1A42998  24.348   7.250  14.363 -0.2088  0.0005 -0.2971
35998DOPC   D2A42999  24.858   7.235  14.257  0.0527 -0.0516  0.2311
35998DOPC   C3A43000  25.127   7.201  13.841  0.1913  0.0004 -0.0078
35998DOPC   C4A43001  25.147   7.187  13.350 -0.0592 -0.2187  0.1316
35998DOPC   C1B43002  23.475   6.980  14.070  0.1753  0.0393 -0.1517
35998DOPC   D2B43003  23.156   6.877  13.691  0.2819 -0.1233 -0.1648
35998DOPC   C3B43004  23.280   6.889  13.269  0.2786  0.1525 -0.0372
35998DOPC   C4B43005  23.328   6.730  12.765  0.0786 -0.2626 -0.0102
35999DOPC   NC343006   4.367   3.745  21.541  0.0043  0.2411 -0.0324
35999DOPC   PO443007   4.724   3.544  21.585  0.1843  0.1468  0.1555
35999DOPC   GL143008   4.756   3.694  21.214 -0.1581 -0.5201 -0.0318
35999DOPC   GL243009   4.788   3.418  21.100  0.4172  0.0150  0.0004
35999DOPC   C1A43010   4.762   4.122  20.988  0.1332  0.0956 -0.0302
35999DOPC   D2A43011   4.893   4.500  20.711 -0.4308 -0.1770  0.1195
35999DOPC   C3A43012   5.049   4.521  20.281  0.0414 -0.0674 -0.0436
35999DOPC   C4A43013   5.289   4.488  19.829  0.0299 -0.3699  0.1341
35999DOPC   C1B43014   4.826   3.563  20.687 -0.3632 -0.2725  0.0048
35999DOPC   D2B43015   5.137   3.465  20.419  0.0751  0.0442 -0.1115
35999DOPC   C3B43016   5.250   3.716  20.077  0.2603 -0.3084 -0.0256
35999DOPC   C4B43017   5.360   3.944  19.621  0.1436  0.1077 -0.2942
36000DOPC   NC343018  13.863   2.749  21.452  0.1013 -0.0456 -0.0532
36000DOPC   PO443019  13.520   2.721  21.301 -0.0161  0.3134  0.1667
36000DOPC   GL143020  13.210   2.765  21.076 -0.6009  0.1027  0.0642
36000DOPC   GL243021  13.370   2.779  20.812 -0.3215  0.1622  0.1427
36000DOPC   C1A43022  12.853   2.613  20.811 -0.3872 -0.0179 -0.1047
36000DOPC   D2A43023  12.443   2.360  20.761  0.0517 -0.0630 -0.2134
36000DOPC   C3A43024  12.211   2.288  20.394  0.2970 -0.0241 -0.2386
36000DOPC   C4A43025  12.164   2.452  19.906  0.3629  0.3079 -0.0834
36000DOPC   C1B43026  13.155   2.852  20.405  0.0338  0.4448  0.3405
36000DOPC   D2B43027  12.926   2.886  20.023 -0.1926  0.0909 -0.0565
36000DOPC   C3B43028  12.827   3.257  19.771  0.2226  0.1880  0.0209
36000DOPC   C4B43029  12.933   3.278  19.247  0.0200  0.0682  0.0216
36001DOPC   NC343030   5.027   7.270  22.133  0.0955 -0.1069  0.2350
36001DOPC   PO443031   4.953   6.991  21.845  0.1415 -0.0987  0.3366
36001DOPC   GL143032   5.042   6.872  21.499  0.0016  0.1144 -0.1066
36001DOPC   GL243033   4.914   6.704  21.394  0.4114  0.2896  0.2500
36001DOPC   C1A43034   5.166   7.038  21.072  0.0144  0.0363 -0.1629
36001DOPC   D2A43035   5.285   7.139  20.621  0.0847 -0.0060  0.2168
36001DOPC   C3A43036   5.396   7.374  20.214 -0.1990 -0.0444 -0.1917
36001DOPC   C4A43037   5.593   7.588  19.777  0.1943 -0.2786 -0.0687
36001DOPC   C1B43038   4.943   6.569  20.956 -0.0729 -0.0452 -0.0362
36001DOPC   D2B43039   5.340   6.416  20.701 -0.0739 -0.0771  0.2376
36001DOPC   C3B43040   5.213   6.725  20.363 -0.2212  0.0523 -0.1200
36001DOPC   C4B43041   4.923   6.674  20.005  0.2560 -0.0249  0.1575
36002DOPC   NC343042  12.142   1.540  21.674 -0.0763  0.1999  0.1167
36002DOPC   PO443043  11.804   1.497  21.783 -0.1944  0.2976  0.0572
36002DOPC   GL143044  11.608   1.557  21.498  0.0701  0.2634  0.0728
36002DOPC   GL243045  11.908   1.602  21.269  0.0611 -0.2429  0.3140
36002DOPC   C1A43046  11.146   1.607  21.356 -0.1708 -0.1527  0.0755
36002DOPC   D2A43047  11.017   1.517  20.884  0.4702 -0.6159 -0.0419
36002DOPC   C3A43048  10.798   1.515  20.504  0.0313  0.2140 -0.0868
36002DOPC   C4A43049  10.404   1.751  20.394 -0.1120  0.0755  0.1275
36002DOPC   C1B43050  11.925   1.475  20.790 -0.0879  0.0512 -0.1619
36002DOPC   D2B43051  11.770   1.422  20.291 -0.2120 -0.2919 -0.1310
36002DOPC   C3B43052  11.749   0.974  20.162 -0.0388  0.0581  0.1542
36002DOPC   C4B43053  12.128   0.692  20.091  0.1247 -0.1960  0.2053
36003DOPC   NC343054   2.997   5.020  20.617  0.2100  0.1307  0.2646
36003DOPC   PO443055   3.208   4.903  20.985  0.0880 -0.0416  0.2901
36003DOPC   GL143056   3.615   4.971  20.699 -0.0551  0.3090  0.1551
36003DOPC   GL243057   3.514   4.690  20.673  0.0120 -0.1999  0.2615
36003DOPC   C1A43058   4.064   4.992  20.551  0.2441  0.2293 -0.0713
36003DOPC   D2A43059   4.254   5.464  20.396 -0.1499  0.3929 -0.2203
36003DOPC   C3A43060   4.268   5.545  19.954 -0.1525  0.0322  0.1105
36003DOPC   C4A43061   4.275   5.400  19.525  0.1900  0.2215 -0.0327
36003DOPC   C1B43062   3.809   4.493  20.574 -0.0808 -0.1054 -0.1560
36003DOPC   D2B43063   4.048   4.047  20.641  0.0660 -0.2227  0.0201
36003DOPC   C3B43064   4.319   3.786  20.367 -0.0817  0.2253  0.0766
36003DOPC   C4B43065   4.748   3.721  20.193 -0.0547  0.3942 -0.0637
36004DOPC   NC343066  21.359   6.252  14.175 -0.1204 -0.1540 -0.1210
36004DOPC   PO443067  21.620   6.556  14.044 -0.0408  0.1021 -0.1924
36004DOPC   GL143068  21.575   6.361  13.675 -0.0458  0.1868  0.2479
36004DOPC   GL243069  21.485   6.124  13.680 -0.4753 -0.0259 -0.0486
36004DOPC   C1A43070  21.853   6.452  13.315 -0.2545  0.1085 -0.0791
36004DOPC   D2A43071  21.932   6.719  12.870  0.2691 -0.0522  0.1590
36004DOPC   C3A43072  21.989   6.839  12.398  0.0911 -0.0704 -0.2709
36004DOPC   C4A43073  21.938   7.077  11.924 -0.2019 -0.1193  0.1265
36004DOPC   C1B43074  21.713   5.974  13.316 -0.0690 -0.1049  0.0087
36004DOPC   D2B43075  21.683   5.774  12.886  0.0702 -0.1562 -0.0269
36004DOPC   C3B43076  22.154   5.627  12.717  0.1593 -0.1665 -0.0111
36004DOPC   C4B43077  22.601   5.696  12.404  0.0919  0.2799 -0.0458
36005DOPC   NC343078  24.686   7.196  16.553  0.1368  0.1091  0.0047
36005DOPC   PO443079  24.672   6.794  16.367 -0.2396  0.1600 -0.2981
36005DOPC   GL143080  25.026   6.735  16.015  0.0149  0.2512 -0.1532
36005DOPC   GL243081  25.236   6.826  16.159  0.1643 -0.1434 -0.1613
36005DOPC   C1A43082  25.089   6.513  15.665  0.1196  0.1014  0.0981
36005DOPC   D2A43083  25.144   6.257  15.231  0.0294 -0.0150 -0.0032
36005DOPC   C3A43084  25.153   6.108  14.803 -0.0755  0.1355 -0.0230
36005DOPC   C4A43085  25.118   5.926  14.309  0.0238 -0.0228 -0.2608
36005DOPC   C1B43086  25.464   6.864  15.748 -0.1420  0.1376  0.2126
36005DOPC   D2B43087  25.702   6.960  15.316  0.0983 -0.1134 -0.1160
36005DOPC   C3B43088  25.751   6.719  14.919  0.0343 -0.3183  0.0222
36005DOPC   C4B43089  25.837   6.418  14.491 -0.0504  0.0668 -0.0713
36006DOPC   NC343090  20.712   7.490  14.042 -0.1021 -0.0055  0.1375
36006DOPC   PO443091  20.437   7.254  14.269 -0.0255  0.0008  0.1795
36006DOPC   GL143092  20.400   6.981  14.057 -0.0978 -0.3283 -0.1450
36006DOPC   GL243093  20.194   6.767  14.083 -0.4812 -0.1345 -0.4223
36006DOPC   C1A43094  20.305   7.052  13.638  0.0306  0.2627  0.3093
36006DOPC   D2A43095  20.046   6.988  13.172 -0.3118  0.2220  0.2631
36006DOPC   C3A43096  20.358   6.959  12.810  0.2585  0.0001  0.0291
36006DOPC   C4A43097  20.534   6.986  12.355  0.0867 -0.1057 -0.1742
36006DOPC   C1B43098  20.177   6.466  13.750 -0.0976 -0.1888  0.5163
36006DOPC   D2B43099  19.938   6.438  13.343 -0.1819  0.3835 -0.2005
36006DOPC   C3B43100  19.590   6.130  13.100 -0.4001 -0.1320 -0.3273
36006DOPC   C4B43101  19.259   5.912  12.858  0.2176  0.1091 -0.4012
36007DOPC   NC343102  20.802   4.753  14.305 -0.3177 -0.2701 -0.3970
36007DOPC   PO443103  20.853   4.356  14.363  0.0896  0.0460 -0.0260
36007DOPC   GL143104  20.922   4.177  13.946  0.1217  0.0042 -0.2008
36007DOPC   GL243105  20.737   4.458  13.911 -0.1221  0.1109 -0.2673
36007DOPC   C1A43106  21.295   4.194  13.708  0.1230  0.1812 -0.0332
36007DOPC   D2A43107  21.757   3.996  13.640  0.2448 -0.1805 -0.0050
36007DOPC   C3A43108  22.112   4.000  13.344  0.1240 -0.1759 -0.0878
36007DOPC   C4A43109  22.542   3.924  13.057 -0.0115  0.5108  0.0681
36007DOPC   C1B43110  20.790   4.852  13.702  0.0871 -0.0111 -0.0808
36007DOPC   D2B43111  20.506   5.204  13.522  0.0054 -0.1028  0.1067
36007DOPC   C3B43112  20.080   5.132  13.747  0.0545  0.0077 -0.2211
36007DOPC   C4B43113  19.648   5.325  13.659  0.0076 -0.1153 -0.0410
36008DOPC   NC343114  18.469   2.975  15.739 -0.0174  0.0193 -0.0949
36008DOPC   PO443115  18.093   2.882  15.730  0.0958  0.0950  0.0731
36008DOPC   GL143116  17.724   2.683  15.481  0.1440 -0.2111 -0.0726
36008DOPC   GL243117  17.867   2.447  15.496  0.1744 -0.2762  0.0899
36008DOPC   C1A43118  17.536   2.797  15.079 -0.0673 -0.0871 -0.2697
36008DOPC   D2A43119  17.272   3.217  14.909 -0.0882 -0.2159 -0.6344
36008DOPC   C3A43120  17.138   3.462  14.476  0.2053  0.0354  0.0499
36008DOPC   C4A43121  17.002   3.445  14.001  0.1769  0.0608  0.0370
36008DOPC   C1B43122  17.624   2.174  15.164 -0.1922 -0.0158  0.2482
36008DOPC   D2B43123  17.348   1.794  14.921  0.1339 -0.0348 -0.0817
36008DOPC   C3B43124  16.828   1.799  14.934  0.0152 -0.0080  0.0909
36008DOPC   C4B43125  16.371   1.986  14.863 -0.1102  0.1294 -0.0762
36009DOPC   NC343126   6.207   6.926  22.445  0.3023  0.0127  0.1539
36009DOPC   PO443127   5.872   6.782  22.259  0.2016  0.1799 -0.1530
36009DOPC   GL143128   5.945   6.684  21.862  0.0865 -0.2436  0.0671
36009DOPC   GL243129   6.104   6.454  22.003 -0.2550 -0.1607 -0.0419
36009DOPC   C1A43130   5.822   6.590  21.464  0.0115  0.3222  0.0601
36009DOPC   D2A43131   5.789   6.432  21.001  0.1053  0.0904  0.1939
36009DOPC   C3A43132   5.894   6.368  20.574  0.0310 -0.0534 -0.1488
36009DOPC   C4A43133   5.577   6.339  20.217  0.2999 -0.0696  0.2725
36009DOPC   C1B43134   6.265   6.216  21.706  0.0579  0.0273  0.3207
36009DOPC   D2B43135   6.210   6.046  21.287 -0.1415  0.1030 -0.2189
36009DOPC   C3B43136   5.989   5.957  20.880  0.1727  0.0357  0.1081
36009DOPC   C4B43137   6.011   5.941  20.397 -0.1915 -0.2373 -0.0387
36010DOPC   NC343138  19.520   0.982  14.401  0.2819 -0.3616  0.0204
36010DOPC   PO443139  19.361   1.357  14.515  0.0048  0.3402  0.1070
36010DOPC   GL143140  19.004   1.404  14.399 -0.0886  0.3168 -0.3411
36010DOPC   GL243141  18.963   1.621  14.208  0.0496  0.3799 -0.1713
36010DOPC   C1A43142  18.718   1.245  14.088  0.1213  0.1974  0.3061
36010DOPC   D2A43143  18.455   1.394  13.710  0.0345  0.0540 -0.1347
36010DOPC   C3A43144  18.302   1.618  13.353  0.2721  0.2118  0.1665
36010DOPC   C4A43145  18.367   1.893  12.929 -0.1823 -0.0969  0.0615
36010DOPC   C1B43146  18.855   1.648  13.849 -0.1574  0.0513  0.3053
36010DOPC   D2B43147  18.781   1.593  13.363  0.0862  0.3750  0.1812
36010DOPC   C3B43148  19.198   1.687  13.084 -0.0758  0.2359 -0.0719
36010DOPC   C4B43149  19.511   1.769  12.782  0.0460 -0.0291 -0.0753
36011DOPC   NC343150   5.558   5.627  22.407 -0.0796  0.2202 -0.0308
36011DOPC   PO443151   5.956   5.730  22.433 -0.1322 -0.0805  0.0407
36011DOPC   GL143152   6.112   5.612  22.060  0.0315  0.0916 -0.3107
36011DOPC   GL243153   5.776   5.514  21.969  0.0818  0.1055  0.2694
36011DOPC   C1A43154   6.220   5.691  21.651  0.1920  0.1948 -0.0690
36011DOPC   D2A43155   6.662   5.837  21.482  0.2281 -0.0249 -0.0163
36011DOPC   C3A43156   6.773   6.067  21.112  0.1819 -0.2939  0.1236
36011DOPC   C4A43157   6.925   6.196  20.692 -0.2079  0.1255 -0.1580
36011DOPC   C1B43158   5.557   5.210  21.639 -0.0566 -0.3273 -0.0326
36011DOPC   D2B43159   5.479   5.192  21.150 -0.2716  0.0882  0.3319
36011DOPC   C3B43160   5.440   5.316  20.695  0.1068  0.2100  0.0389
36011DOPC   C4B43161   5.377   5.283  20.175 -0.1039  0.2013 -0.1515
36012DOPC   NC343162   1.610   4.117  17.959 -0.1385 -0.3861 -0.1985
36012DOPC   PO443163   1.369   4.413  17.915  0.0580 -0.0503 -0.0096
36012DOPC   GL143164   1.540   4.464  17.584  0.2729 -0.6795 -0.0730
36012DOPC   GL243165   1.333   4.348  17.359 -0.1355 -0.3001  0.0423
36012DOPC   C1A43166   1.817   4.651  17.333  0.1957  0.1551 -0.0035
36012DOPC   D2A43167   2.194   4.867  17.107  0.0693 -0.2375 -0.0541
36012DOPC   C3A43168   2.369   5.088  16.763 -0.1499 -0.0983  0.1361
36012DOPC   C4A43169   2.647   5.021  16.340  0.3945  0.0572  0.3872
36012DOPC   C1B43170   1.504   4.262  16.913  0.0385 -0.1770 -0.3436
36012DOPC   D2B43171   1.817   4.106  16.528 -0.1352 -0.0449  0.1503
36012DOPC   C3B43172   2.310   4.202  16.346 -0.2156  0.2606  0.1374
36012DOPC   C4B43173   2.719   3.895  16.307  0.1259  0.2300  0.3395
36013DOPC   NC343174  13.215   0.020  21.775 -0.2954 -0.1044 -0.0343
36013DOPC   PO443175  13.348   0.345  21.647  0.0627  0.0055 -0.0701
36013DOPC   GL143176  13.109   0.377  21.315  0.1718 -0.2375  0.3307
36013DOPC   GL243177  13.014   0.654  21.460  0.2004 -0.1685 -0.3206
36013DOPC   C1A43178  12.961   0.258  20.887 -0.0027 -0.0008  0.0007
36013DOPC   D2A43179  12.723   0.481  20.530 -0.0076 -0.2625  0.1091
36013DOPC   C3A43180  12.436   0.306  20.125  0.1082 -0.2060 -0.1172
36013DOPC   C4A43181  12.036   0.157  19.874  0.3495 -0.1978 -0.0329
36013DOPC   C1B43182  12.815   0.711  21.091 -0.0745  0.0448  0.1501
36013DOPC   D2B43183  12.572   0.978  20.792  0.2035 -0.1656  0.1774
36013DOPC   C3B43184  12.553   0.967  20.348 -0.0073 -0.1469  0.3290
36013DOPC   C4B43185  12.560   1.108  19.857  0.0181  0.0139 -0.0190
36014DOPC   NC343186  23.559   3.821  14.183  0.1717  0.0926 -0.0262
36014DOPC   PO443187  23.293   3.526  14.281  0.1117 -0.0079 -0.2174
36014DOPC   GL143188  23.288   3.202  13.973  0.0912 -0.5542 -0.0446
36014DOPC   GL243189  23.552   3.377  13.950  0.1795 -0.1901  0.0085
36014DOPC   C1A43190  22.990   3.024  13.691 -0.1197 -0.1051 -0.3489
36014DOPC   D2A43191  22.796   2.861  13.334  0.0738  0.1434  0.0093
36014DOPC   C3A43192  22.714   2.593  12.932  0.1044  0.0530 -0.2720
36014DOPC   C4A43193  22.530   2.494  12.518 -0.1054 -0.0769  0.0587
36014DOPC   C1B43194  23.918   3.139  13.848 -0.0955 -0.0575 -0.1685
36014DOPC   D2B43195  24.389   3.040  13.673 -0.1705  0.3260  0.2487
36014DOPC   C3B43196  24.861   2.945  13.605 -0.0067  0.1488 -0.1370
36014DOPC   C4B43197  25.232   3.002  13.332  0.2650 -0.1451  0.2575
36015DOPC   NC343198   4.303   0.312  22.033  0.1224  0.0511 -0.0156
36015DOPC   PO443199   4.258   0.587  21.735 -0.0663 -0.1144  0.1390
36015DOPC   GL143200   4.624   0.543  21.436 -0.1121 -0.0881 -0.0338
36015DOPC   GL243201   4.364   0.509  21.242  0.1398 -0.0665 -0.2191
36015DOPC   C1A43202   4.985   0.565  21.164 -0.0057 -0.0999 -0.3503
36015DOPC   D2A43203   5.342   0.441  20.794 -0.0751  0.2400 -0.1445
36015DOPC   C3A43204   5.632   0.685  20.536 -0.2144  0.0048  0.2783
36015DOPC   C4A43205   5.945   0.689  20.100 -0.1049  0.0029 -0.0661
36015DOPC   C1B43206   4.497   0.607  20.853 -0.0214 -0.0388 -0.0345
36015DOPC   D2B43207   4.779   0.557  20.375 -0.0270  0.1100  0.1367
36015DOPC   C3B43208   5.170   0.669  20.273 -0.2235  0.2415  0.0144
36015DOPC   C4B43209   5.503   0.642  19.869 -0.0559  0.3622 -0.0662
36016DOPC   NC343210   8.413   3.290  22.372  0.0214 -0.0799 -0.2520
36016DOPC   PO443211   8.757   3.125  22.563 -0.0292  0.2543 -0.1281
36016DOPC   GL143212   9.122   3.212  22.295 -0.2647  0.0899 -0.0076
36016DOPC   GL243213   8.954   2.939  22.162  0.2691 -0.0728  0.1146
36016DOPC   C1A43214   9.248   3.354  21.894 -0.1427 -0.2876  0.1802
36016DOPC   D2A43215   9.089   3.252  21.400  0.0124 -0.1273  0.2296
36016DOPC   C3A43216   9.291   3.472  21.035 -0.0972  0.2378 -0.3710
36016DOPC   C4A43217   9.370   3.613  20.559 -0.0427  0.0118  0.1614
36016DOPC   C1B43218   9.119   2.888  21.725  0.1684  0.1831 -0.0659
36016DOPC   D2B43219   9.301   2.872  21.212  0.3282  0.3537 -0.0709
36016DOPC   C3B43220   9.549   2.928  20.850  0.0128 -0.2196  0.1149
36016DOPC   C4B43221   9.722   3.301  20.633 -0.1387 -0.0380 -0.2127
36017DOPC   NC343222   8.831   4.035  22.615 -0.1413 -0.1723  0.2849
36017DOPC   PO443223   8.605   4.338  22.501 -0.1292 -0.1883 -0.0879
36017DOPC   GL143224   8.340   4.226  22.165  0.1974 -0.4020  0.2703
36017DOPC   GL243225   8.594   4.082  22.005  0.2463 -0.0531  0.1469
36017DOPC   C1A43226   8.165   4.145  21.780 -0.0200 -0.0527  0.1912
36017DOPC   D2A43227   7.880   4.313  21.357 -0.2184 -0.2179 -0.2240
36017DOPC   C3A43228   7.932   4.319  20.902 -0.4458  0.0042 -0.1215
36017DOPC   C4A43229   8.273   4.526  20.621 -0.0400 -0.1390 -0.0330
36017DOPC   C1B43230   8.617   4.115  21.526  0.0108 -0.1287 -0.0676
36017DOPC   D2B43231   8.393   4.316  21.137  0.2439  0.0994 -0.1199
36017DOPC   C3B43232   8.226   4.733  21.313 -0.1281  0.0893 -0.0108
36017DOPC   C4B43233   8.152   5.002  21.673 -0.1489  0.0235  0.1194
36018DOPC   NC343234  18.741   7.333  15.106  0.2384 -0.3281  0.2080
36018DOPC   PO443235  18.568   7.694  14.998  0.0364 -0.3700  0.1267
36018DOPC   GL143236  18.437   7.699  14.634  0.0876 -0.4504  0.1258
36018DOPC   GL243237  18.451   7.980  14.533 -0.6765 -0.2194 -0.1431
36018DOPC   C1A43238  18.091   7.664  14.437  0.0569 -0.2026  0.0360
36018DOPC   D2A43239  17.939   7.765  14.047 -0.2834  0.4682  0.0802
36018DOPC   C3A43240  17.892   7.750  13.569  0.1444  0.1056 -0.0004
36018DOPC   C4A43241  18.205   7.643  13.185  0.0183 -0.0323  0.1235
36018DOPC   C1B43242  18.378   7.898  14.129 -0.3755 -0.2249  0.1341
36018DOPC   D2B43243  18.335   7.794  13.647 -0.2509  0.2647  0.1560
36018DOPC   C3B43244  18.584   7.992  13.350 -0.0669  0.1842  0.2984
36018DOPC   C4B43245  18.734   8.405  13.090  0.0998  0.0140 -0.2088
36019DOPC   NC343246   1.012   4.053  17.187 -0.0623 -0.0985 -0.0016
36019DOPC   PO443247   0.865   3.720  17.330  0.1654 -0.1922 -0.1160
36019DOPC   GL143248   1.297   3.749  17.419  0.1353  0.3100  0.2169
36019DOPC   GL243249   1.354   3.924  17.532  0.1426  0.1447 -0.4258
36019DOPC   C1A43250   1.437   3.448  17.163 -0.2296  0.1130  0.2767
36019DOPC   D2A43251   1.529   3.206  16.726  0.1639 -0.1337 -0.0021
36019DOPC   C3A43252   1.794   2.872  16.539 -0.3076  0.1603 -0.1219
36019DOPC   C4A43253   1.803   2.450  16.222 -0.0107  0.3107 -0.2848
36019DOPC   C1B43254   1.673   4.024  17.321  0.2964 -0.2303  0.3159
36019DOPC   D2B43255   2.001   4.234  16.998 -0.0446  0.0805 -0.2626
36019DOPC   C3B43256   2.309   3.899  16.811 -0.2422  0.1324 -0.0861
36019DOPC   C4B43257   2.436   3.555  16.595  0.1156 -0.1349 -0.1412
36020DOPC   NC343258  10.105   1.929  22.323 -0.0787  0.3411  0.0906
36020DOPC   PO443259  10.506   2.019  22.380 -0.1825  0.0663 -0.1668
36020DOPC   GL143260  10.729   2.064  21.920 -0.0344 -0.2009  0.2034
36020DOPC   GL243261  10.385   2.037  21.951  0.0550  0.1667 -0.3096
36020DOPC   C1A43262  10.822   1.972  21.493 -0.1389 -0.2584 -0.2676
36020DOPC   D2A43263  10.643   1.667  21.149  0.1072  0.2901 -0.2347
36020DOPC   C3A43264  10.433   1.362  20.890  0.0075 -0.2090 -0.1988
36020DOPC   C4A43265  10.219   0.960  20.636 -0.3814  0.0600 -0.0310
36020DOPC   C1B43266  10.288   1.768  21.597  0.3055 -0.0549  0.1370
36020DOPC   D2B43267  10.019   1.580  21.179  0.0234  0.0111 -0.3495
36020DOPC   C3B43268   9.913   1.191  20.870  0.2391  0.0607  0.0949
36020DOPC   C4B43269   9.703   0.878  20.541 -0.0859 -0.0571 -0.2147
36021DOPC   NC343270  12.467   7.100  21.727  0.2968 -0.0318  0.1071
36021DOPC   PO443271  12.458   7.475  21.949  0.2798  0.0843 -0.1500
36021DOPC   GL143272  12.352   7.571  21.616  0.1187  0.4355  0.0889
36021DOPC   GL243273  12.116   7.418  21.780  0.1820  0.3546  0.0775
36021DOPC   C1A43274  12.092   7.796  21.305 -0.1861  0.1920  0.2043
36021DOPC   D2A43275  12.061   7.692  20.835  0.3617  0.0886  0.0408
36021DOPC   C3A43276  11.703   7.712  20.513 -0.0211  0.2483 -0.3514
36021DOPC   C4A43277  11.232   7.835  20.303  0.1211 -0.0660 -0.3806
36021DOPC   C1B43278  11.663   7.414  21.540 -0.0704 -0.0058  0.0720
36021DOPC   D2B43279  11.330   7.217  21.283 -0.2198 -0.0192 -0.1516
36021DOPC   C3B43280  11.078   6.998  20.944  0.1383  0.0711  0.2330
36021DOPC   C4B43281  10.798   7.069  20.481  0.0671  0.0389  0.0519
36022DOPC   NC343282  18.095   7.199  16.028  0.0142  0.1897  0.0147
36022DOPC   PO443283  17.730   7.072  16.072  0.1594 -0.0997 -0.3594
36022DOPC   GL143284  17.266   7.123  15.902  0.3789  0.1687  0.1702
36022DOPC   GL243285  17.385   7.403  15.833 -0.3232  0.0741 -0.1693
36022DOPC   C1A43286  16.985   7.415  15.932 -0.0142  0.2700 -0.0354
36022DOPC   D2A43287  16.668   7.747  16.176  0.0001 -0.1833 -0.0992
36022DOPC   C3A43288  16.288   7.761  15.905 -0.0607 -0.0564  0.1183
36022DOPC   C4A43289  15.963   7.637  15.634 -0.2027  0.1061 -0.0878
36022DOPC   C1B43290  17.162   7.524  15.449 -0.0651  0.1074  0.0702
36022DOPC   D2B43291  16.837   7.589  15.047  0.1636 -0.1415 -0.3174
36022DOPC   C3B43292  16.572   7.223  15.034 -0.2063 -0.0355 -0.1050
36022DOPC   C4B43293  16.123   7.245  15.313  0.1386  0.1702 -0.1499
36023DOPC   NC343294  20.615   2.720  14.547 -0.1774  0.0870 -0.0497
36023DOPC   PO443295  20.788   2.810  14.214  0.3531  0.0431 -0.3531
36023DOPC   GL143296  20.697   2.682  13.883 -0.1648 -0.0832 -0.4047
36023DOPC   GL243297  20.700   2.489  13.773 -0.1526  0.0928  0.0153
36023DOPC   C1A43298  20.888   2.887  13.525  0.0485 -0.4510 -0.0095
36023DOPC   D2A43299  21.112   3.294  13.359 -0.2242 -0.0277  0.2111
36023DOPC   C3A43300  21.385   3.430  12.999  0.0999  0.2926  0.2416
36023DOPC   C4A43301  21.605   3.427  12.579  0.1235 -0.2395 -0.2234
36023DOPC   C1B43302  20.696   2.296  13.367 -0.2374 -0.1312 -0.1697
36023DOPC   D2B43303  20.990   2.131  12.988 -0.2321  0.2741 -0.1718
36023DOPC   C3B43304  20.871   1.767  12.761  0.2166 -0.1140  0.1334
36023DOPC   C4B43305  20.569   1.401  12.549 -0.0844  0.3554  0.2860
36024DOPC   NC343306  22.639   5.695  14.078 -0.2741  0.0922 -0.0942
36024DOPC   PO443307  22.823   5.404  14.262  0.1391  0.3456  0.0548
36024DOPC   GL143308  23.230   5.407  14.319  0.1070  0.0842  0.0065
36024DOPC   GL243309  23.289   5.684  14.313 -0.1262 -0.0283  0.0017
36024DOPC   C1A43310  23.535   5.261  14.017  0.0066  0.1572 -0.0026
36024DOPC   D2A43311  23.885   4.947  13.950 -0.0734 -0.0316  0.0464
36024DOPC   C3A43312  23.858   4.854  13.534 -0.0924 -0.1202 -0.0693
36024DOPC   C4A43313  23.853   4.399  13.354 -0.0823 -0.1453 -0.0171
36024DOPC   C1B43314  23.186   5.831  13.856 -0.0653  0.1897  0.2481
36024DOPC   D2B43315  23.185   5.998  13.437 -0.3661  0.2410 -0.1729
36024DOPC   C3B43316  23.289   6.210  12.988 -0.1760 -0.0823 -0.0050
36024DOPC   C4B43317  23.520   6.238  12.585 -0.1217 -0.0150 -0.0290
36025DOPC   NC343318  15.565   0.814  18.774  0.1135 -0.1763 -0.1078
36025DOPC   PO443319  15.762   0.455  18.605  0.1060  0.0908 -0.1088
36025DOPC   GL143320  15.530   0.487  18.327 -0.5007  0.7954  0.0103
36025DOPC   GL243321  15.562   0.770  18.295 -0.5199 -0.0839  0.1946
36025DOPC   C1A43322  15.115   0.354  18.230  0.0352 -0.1454  0.1997
36025DOPC   D2A43323  14.917   0.261  17.767 -0.1433 -0.2258 -0.0534
36025DOPC   C3A43324  14.601   0.498  17.563  0.1796 -0.1153 -0.2291
36025DOPC   C4A43325  14.280   0.724  17.208  0.0018 -0.0835 -0.1889
36025DOPC   C1B43326  15.260   1.116  18.083 -0.0522  0.2965 -0.1445
36025DOPC   D2B43327  14.939   1.301  17.820  0.2668  0.2136  0.0094
36025DOPC   C3B43328  14.556   1.480  17.554  0.1688  0.0096 -0.1583
36025DOPC   C4B43329  14.074   1.568  17.615 -0.0543  0.2248 -0.0068
36026DOPC   NC343330  12.525   5.703  21.279  0.3005  0.2354 -0.2243
36026DOPC   PO443331  12.294   5.898  21.538 -0.2730  0.0665  0.0972
36026DOPC   GL143332  11.951   6.054  21.271 -0.1869 -0.1442 -0.1389
36026DOPC   GL243333  11.803   5.815  21.398  0.0974  0.1593 -0.1256
36026DOPC   C1A43334  12.175   5.929  20.892 -0.0758 -0.0524 -0.1573
36026DOPC   D2A43335  12.226   5.769  20.447 -0.1205 -0.2325  0.3959
36026DOPC   C3A43336  12.359   5.852  19.998  0.1269 -0.0577  0.2099
36026DOPC   C4A43337  12.411   5.979  19.527  0.0918 -0.2436  0.2314
36026DOPC   C1B43338  11.432   5.894  21.073 -0.0038  0.0238 -0.0291
36026DOPC   D2B43339  11.294   6.046  20.681  0.0602  0.0495 -0.0987
36026DOPC   C3B43340  10.906   5.961  20.420  0.0308  0.0987 -0.1859
36026DOPC   C4B43341  10.510   5.766  20.144  0.0269  0.0116 -0.1078
36027DOPC   NC343342  20.519   3.208  13.962 -0.4087 -0.1609  0.1284
36027DOPC   PO443343  20.227   3.482  14.052 -0.3297 -0.0038 -0.1258
36027DOPC   GL143344  20.008   3.586  13.713  0.5663 -0.1810  0.0900
36027DOPC   GL243345  20.178   3.299  13.594  0.1563 -0.2284  0.1044
36027DOPC   C1A43346  19.834   3.879  13.418 -0.2523 -0.0063 -0.0601
36027DOPC   D2A43347  19.901   4.030  12.927 -0.1648 -0.0613  0.0511
36027DOPC   C3A43348  19.982   4.250  12.531 -0.0622  0.0306 -0.0475
36027DOPC   C4A43349  20.180   4.507  12.205  0.0057  0.0030  0.1145
36027DOPC   C1B43350  20.497   3.325  13.343 -0.0643  0.1516  0.1329
36027DOPC   D2B43351  20.768   3.385  12.848 -0.1935 -0.0944 -0.2459
36027DOPC   C3B43352  20.717   3.090  12.577  0.1384 -0.0420  0.2977
36027DOPC   C4B43353  20.454   2.709  12.348 -0.2854 -0.2769 -0.0404
36028DOPC   NC343354   1.807   5.430  18.511 -0.0236  0.0037  0.0652
36028DOPC   PO443355   1.581   5.764  18.443  0.3249 -0.1762 -0.1322
36028DOPC   GL143356   1.802   6.110  18.179  0.0919 -0.1363 -0.0121
36028DOPC   GL243357   1.762   5.913  18.036  0.0315  0.2134  0.0462
36028DOPC   C1A43358   2.112   6.310  18.010 -0.0580  0.2830  0.0064
36028DOPC   D2A43359   2.477   6.437  17.619  0.0541 -0.0985  0.3131
36028DOPC   C3A43360   2.893   6.596  17.464 -0.1001 -0.1481 -0.1155
36028DOPC   C4A43361   3.343   6.549  17.258  0.1380  0.0259 -0.1502
36028DOPC   C1B43362   1.847   6.030  17.653  0.0822  0.1874  0.1356
36028DOPC   D2B43363   2.178   6.019  17.240  0.0930 -0.0472 -0.0852
36028DOPC   C3B43364   2.543   6.258  17.172  0.0867  0.1090 -0.0428
36028DOPC   C4B43365   3.035   6.241  16.945  0.0332  0.0024  0.1530
36029DOPC   NC343366  13.770   6.694  21.173  0.1518 -0.0645 -0.0354
36029DOPC   PO443367  13.561   6.943  20.936 -0.1148  0.2565 -0.1517
36029DOPC   GL143368  13.270   7.130  20.725  0.0535 -0.1057 -0.0639
36029DOPC   GL243369  13.386   7.379  20.622 -0.1767  0.1808  0.2605
36029DOPC   C1A43370  12.884   7.158  20.611  0.1826  0.0002 -0.0633
36029DOPC   D2A43371  12.531   7.200  20.297 -0.4131  0.0756  0.0793
36029DOPC   C3A43372  12.367   7.327  19.914  0.4542 -0.1219  0.2714
36029DOPC   C4A43373  11.916   7.467  19.681 -0.1169 -0.0518 -0.0678
36029DOPC   C1B43374  13.085   7.529  20.337 -0.0232 -0.0385 -0.1157
36029DOPC   D2B43375  12.727   7.646  20.023 -0.2099  0.0342  0.0985
36029DOPC   C3B43376  12.482   7.794  19.701  0.1097 -0.2512  0.2023
36029DOPC   C4B43377  12.117   7.945  19.375 -0.0474  0.1605 -0.1632
36030DOPC   NC343378   3.359   0.724  20.743 -0.1413  0.1659  0.0533
36030DOPC   PO443379   3.709   0.673  20.895 -0.2669 -0.1325 -0.0333
36030DOPC   GL143380   4.004   0.557  20.689  0.1648 -0.0957 -0.1721
36030DOPC   GL243381   4.152   0.819  20.646 -0.0367  0.1264  0.1937
36030DOPC   C1A43382   4.274   0.219  20.585 -0.1841  0.2935 -0.0281
36030DOPC   D2A43383   4.456   0.106  20.169 -0.3599  0.3530  0.1210
36030DOPC   C3A43384   4.889   0.191  20.108 -0.0507  0.4132 -0.0272
36030DOPC   C4A43385   5.202   0.168  19.712 -0.2069  0.2899 -0.0476
36030DOPC   C1B43386   4.421   0.924  20.358 -0.2218 -0.2253 -0.0857
36030DOPC   D2B43387   4.833   0.904  19.993  0.0774 -0.0240  0.0850
36030DOPC   C3B43388   5.006   0.656  19.625 -0.1774  0.1144 -0.0058
36030DOPC   C4B43389   5.435   0.539  19.384  0.1747 -0.0219  0.0204
36031DOPC   NC343390  22.876   6.242  14.652 -0.0835 -0.1571  0.2043
36031DOPC   PO443391  22.848   5.948  14.437  0.3055 -0.0590 -0.2059
36031DOPC   GL143392  22.893   6.140  14.057 -0.1631  0.1956 -0.0050
36031DOPC   GL243393  23.170   6.179  14.205 -0.0294 -0.4379 -0.4343
36031DOPC   C1A43394  22.912   6.442  13.758  0.1145  0.0254  0.1787
36031DOPC   D2A43395  22.944   6.507  13.285  0.1160 -0.1646 -0.1242
36031DOPC   C3A43396  22.797   6.413  12.876  0.3687  0.1735  0.3443
36031DOPC   C4A43397  22.967   6.495  12.415 -0.0934 -0.2216  0.1588
36031DOPC   C1B43398  23.418   6.276  13.871  0.4036 -0.0573 -0.2027
36031DOPC   D2B43399  23.602   6.447  13.466  0.2265  0.1824 -0.0445
36031DOPC   C3B43400  23.704   6.515  13.065 -0.3069  0.4638 -0.1653
36031DOPC   C4B43401  23.872   6.727  12.700 -0.2662 -0.3691  0.2368
36032DOPC   NC343402  17.407   3.999  16.331  0.3335 -0.0610  0.0463
36032DOPC   PO443403  17.238   3.652  16.359  0.0869  0.0113  0.0374
36032DOPC   GL143404  17.101   3.667  15.962  0.0209  0.2787 -0.2416
36032DOPC   GL243405  16.992   3.916  16.040  0.0034  0.1504  0.1857
36032DOPC   C1A43406  16.909   3.564  15.537 -0.0721  0.1830 -0.0855
36032DOPC   D2A43407  16.929   3.530  15.069 -0.1552  0.2725  0.0149
36032DOPC   C3A43408  16.662   3.403  14.630  0.0667 -0.0950 -0.0859
36032DOPC   C4A43409  16.561   3.226  14.141  0.2430  0.1137  0.0099
36032DOPC   C1B43410  16.779   4.022  15.672  0.2711 -0.1968 -0.2677
36032DOPC   D2B43411  16.717   4.050  15.217  0.2417 -0.1725 -0.0411
36032DOPC   C3B43412  16.467   3.686  14.978  0.0058 -0.1431 -0.1711
36032DOPC   C4B43413  16.166   3.327  14.793 -0.1524 -0.3258  0.0615
36033DOPC   NC343414  11.288   3.553  21.808 -0.1263  0.0027 -0.1706
36033DOPC   PO443415  11.389   3.165  21.886 -0.2615 -0.2078  0.0431
36033DOPC   GL143416  11.142   3.001  21.619 -0.1860  0.6525  0.5594
36033DOPC   GL243417  10.994   2.887  21.790 -0.0624  0.2841  0.0572
36033DOPC   C1A43418  11.268   2.902  21.183 -0.0962 -0.0619  0.1851
36033DOPC   D2A43419  11.171   2.924  20.712 -0.0085 -0.2655  0.2174
36033DOPC   C3A43420  11.487   2.587  20.536 -0.2291 -0.0221 -0.2308
36033DOPC   C4A43421  11.756   2.479  20.173  0.0629 -0.1556 -0.2237
36033DOPC   C1B43422  10.619   2.837  21.501 -0.0344  0.0767 -0.0829
36033DOPC   D2B43423  10.311   2.798  21.076 -0.2008  0.0344 -0.0978
36033DOPC   C3B43424  10.518   2.505  20.778  0.2268  0.0662  0.1865
36033DOPC   C4B43425  10.543   2.280  20.377 -0.1820 -0.0035 -0.1383
36034DOPC   NC343426   9.226   6.530  22.967  0.0548 -0.1097 -0.1827
36034DOPC   PO443427   9.453   6.695  22.697  0.2336  0.1053 -0.0749
36034DOPC   GL143428   9.352   6.655  22.256 -0.1005  0.1930 -0.4285
36034DOPC   GL243429   9.158   6.884  22.383 -0.2059  0.0017  0.3157
36034DOPC   C1A43430   9.063   6.660  21.949 -0.0248 -0.1075  0.2973
36034DOPC   D2A43431   8.879   6.685  21.445 -0.0159 -0.0486  0.3109
36034DOPC   C3A43432   9.142   6.825  21.104 -0.2675 -0.1908  0.1512
36034DOPC   C4A43433   9.272   7.128  20.715  0.2102 -0.3427  0.0528
36034DOPC   C1B43434   8.875   7.251  22.197  0.3126  0.0035 -0.0138
36034DOPC   D2B43435   8.674   7.716  22.131 -0.0609 -0.1339 -0.1656
36034DOPC   C3B43436   9.092   7.761  21.831  0.0572  0.2832 -0.0366
36034DOPC   C4B43437   9.524   7.578  21.776 -0.1078  0.0160  0.1050
36035DOPC   NC343438  13.232   4.821  21.638 -0.0261  0.1634  0.0307
36035DOPC   PO443439  12.875   4.627  21.761  0.1546 -0.2417 -0.1296
36035DOPC   GL143440  12.553   4.819  21.468 -0.1997 -0.3166 -0.0587
36035DOPC   GL243441  12.356   4.680  21.596  0.2028  0.1772  0.2290
36035DOPC   C1A43442  12.522   4.867  20.994  0.0243 -0.2028 -0.0122
36035DOPC   D2A43443  12.273   4.953  20.570 -0.0570  0.0848  0.0178
36035DOPC   C3A43444  12.114   5.105  20.160  0.1595 -0.0192 -0.1281
36035DOPC   C4A43445  11.891   5.546  20.096  0.2140 -0.1251  0.1469
36035DOPC   C1B43446  12.024   4.692  21.358  0.2556  0.0677 -0.1214
36035DOPC   D2B43447  11.627   4.622  21.123 -0.3087  0.0009  0.0021
36035DOPC   C3B43448  11.311   4.713  20.742  0.2766 -0.0686  0.0312
36035DOPC   C4B43449  11.176   4.864  20.295  0.1246  0.0487  0.0965
36036DOPC   NC343450  14.813   4.782  19.600 -0.0273 -0.1485  0.3015
36036DOPC   PO443451  14.491   4.841  19.868  0.3144 -0.1862 -0.1274
36036DOPC   GL143452  14.184   4.887  19.572 -0.3180 -0.0909  0.0482
36036DOPC   GL243453  14.155   5.176  19.686  0.2362  0.0134  0.3864
36036DOPC   C1A43454  14.019   5.032  19.218 -0.2263  0.1826  0.1144
36036DOPC   D2A43455  14.082   5.241  18.828 -0.1313 -0.0830 -0.0954
36036DOPC   C3A43456  13.903   5.249  18.380  0.0934  0.1350  0.1517
36036DOPC   C4A43457  13.717   5.534  18.046 -0.2001  0.1795  0.0763
36036DOPC   C1B43458  13.807   5.306  19.550 -0.2411 -0.4074  0.0523
36036DOPC   D2B43459  13.569   5.326  19.158  0.3408 -0.1524  0.1399
36036DOPC   C3B43460  13.087   5.498  19.215  0.3097 -0.2383 -0.0341
36036DOPC   C4B43461  12.659   5.495  19.422 -0.0595  0.1692  0.1054
36037DOPS   CNO43462  21.675   2.682  14.560  0.0501  0.0750  0.2809
36037DOPS   PO443463  22.002   2.743  14.438 -0.0929 -0.1909 -0.0983
36037DOPS   GL143464  22.194   2.428  14.279  0.0235  0.0364  0.0427
36037DOPS   GL243465  22.000   2.298  14.112 -0.2068  0.0195  0.2717
36037DOPS   C1A43466  22.343   2.554  13.867  0.0162 -0.0602 -0.1892
36037DOPS   D2A43467  22.389   2.521  13.382  0.0064  0.1018 -0.0974
36037DOPS   C3A43468  22.237   2.504  12.964  0.1529  0.2682  0.1169
36037DOPS   C4A43469  22.012   2.474  12.451 -0.0422 -0.1478  0.2483
36037DOPS   C1B43470  21.937   2.394  13.686 -0.1779  0.0272 -0.2371
36037DOPS   D2B43471  22.051   2.094  13.320  0.2017 -0.2019 -0.0645
36037DOPS   C3B43472  21.716   2.054  12.927  0.0701 -0.0565  0.2471
36037DOPS   C4B43473  21.386   1.806  12.693  0.0515  0.0082  0.0068
36038DOPS   CNO43474   1.366   2.037  17.316 -0.0542  0.1321  0.2439
36038DOPS   PO443475   1.510   1.768  17.557  0.2773 -0.1473  0.2671
36038DOPS   GL143476   1.818   1.625  17.334 -0.2346  0.3635  0.1761
36038DOPS   GL243477   1.661   1.406  17.248 -0.0684  0.2814  0.0744
36038DOPS   C1A43478   2.076   1.475  16.994  0.2342  0.1893  0.0909
36038DOPS   D2A43479   2.430   1.304  16.641 -0.0862  0.0077 -0.1287
36038DOPS   C3A43480   2.482   1.608  16.255  0.1085 -0.0711  0.0994
36038DOPS   C4A43481   2.480   1.992  15.943  0.1249 -0.1152  0.0373
36038DOPS   C1B43482   1.832   1.076  17.243 -0.2440 -0.0602  0.1108
36038DOPS   D2B43483   1.955   0.599  17.111 -0.1452  0.0774  0.4465
36038DOPS   C3B43484   2.427   0.576  17.016 -0.2173 -0.1947 -0.2278
36038DOPS   C4B43485   2.845   0.497  16.964 -0.0824 -0.1322  0.2878
36039DOPS   CNO43486   6.810   6.855  22.422  0.1587  0.1811 -0.0738
36039DOPS   PO443487   7.166   6.924  22.465 -0.1222 -0.0295  0.1960
36039DOPS   GL143488   7.336   7.201  22.181  0.0586 -0.3162 -0.4295
36039DOPS   GL243489   7.434   7.361  22.426  0.2248 -0.1935 -0.2249
36039DOPS   C1A43490   7.557   7.205  21.761 -0.2241 -0.1824 -0.0029
36039DOPS   D2A43491   7.796   6.957  21.402 -0.1297  0.0595  0.3288
36039DOPS   C3A43492   7.585   6.695  21.065 -0.1005  0.0781 -0.0357
36039DOPS   C4A43493   7.289   6.270  21.057  0.1103 -0.3312 -0.0382
36039DOPS   C1B43494   7.794   7.469  22.241 -0.0530  0.3087  0.1482
36039DOPS   D2B43495   7.850   7.643  21.806  0.0335 -0.0892  0.0912
36039DOPS   C3B43496   7.671   7.507  21.401  0.2250  0.0988 -0.1316
36039DOPS   C4B43497   7.540   7.236  21.011 -0.0237  0.1319  0.0391
36040DOPS   CNO43498  19.018   2.173  15.110  0.0508  0.3944 -0.0488
36040DOPS   PO443499  18.758   1.918  15.055  0.0054 -0.0379 -0.1687
36040DOPS   GL143500  18.484   1.802  14.750 -0.1903  0.0956 -0.2802
36040DOPS   GL243501  18.295   1.989  14.852 -0.0258  0.0205  0.1455
36040DOPS   C1A43502  18.528   1.862  14.310  0.2110  0.0544 -0.0253
36040DOPS   D2A43503  18.458   1.971  13.808  0.0324 -0.0704 -0.0309
36040DOPS   C3A43504  18.367   2.115  13.392 -0.2446  0.2864 -0.0347
36040DOPS   C4A43505  18.252   2.374  13.019  0.2949  0.0989  0.2672
36040DOPS   C1B43506  18.183   2.228  14.534 -0.0875  0.1585 -0.0343
36040DOPS   D2B43507  18.056   1.973  14.151  0.1420  0.3025 -0.0181
36040DOPS   C3B43508  17.947   1.871  13.718 -0.0241  0.2307 -0.1306
36040DOPS   C4B43509  17.863   1.792  13.229 -0.0198  0.1315 -0.1885
36041DOPS   CNO43510  24.253   1.957  15.690  0.2223  0.0428 -0.1287
36041DOPS   PO443511  24.635   1.929  15.712  0.0116 -0.0121  0.0986
36041DOPS   GL143512  24.942   1.751  15.484 -0.1415 -0.1193  0.2547
36041DOPS   GL243513  24.821   1.576  15.273  0.2008 -0.2042 -0.0062
36041DOPS   C1A43514  25.234   2.015  15.330  0.1802 -0.0091  0.2437
36041DOPS   D2A43515  25.280   2.335  14.920  0.0111  0.0116 -0.0918
36041DOPS   C3A43516  25.622   2.340  14.616  0.0425 -0.0219  0.0894
36041DOPS   C4A43517  25.927   2.332  14.247  0.0529 -0.0867  0.0620
36041DOPS   C1B43518  25.202   1.523  15.114 -0.2642  0.1208  0.0978
36041DOPS   D2B43519  25.667   1.324  15.023 -0.0632  0.1752  0.0430
36041DOPS   C3B43520  26.096   1.594  15.189  0.1451  0.0533 -0.1669
36041DOPS   C4B43521  26.236   2.048  15.343  0.3308  0.1935 -0.0300
36042DOPS   CNO43522  10.974   6.230  22.389  0.1249 -0.0494  0.2672
36042DOPS   PO443523  10.930   5.866  22.385 -0.0277 -0.0295 -0.2583
36042DOPS   GL143524  10.763   5.823  22.056  0.4777  0.5913 -0.3216
36042DOPS   GL243525  10.959   5.970  21.891 -0.0734  0.0896  0.0959
36042DOPS   C1A43526  10.492   5.454  22.067  0.1626 -0.4435  0.1576
36042DOPS   D2A43527  10.248   5.280  21.631 -0.3187 -0.1024 -0.0108
36042DOPS   C3A43528   9.797   5.300  21.593  0.3491  0.0273  0.1746
36042DOPS   C4A43529   9.598   4.862  21.693 -0.0123 -0.0454 -0.0929
36042DOPS   C1B43530  10.599   5.903  21.607  0.2216 -0.0504  0.2052
36042DOPS   D2B43531  10.341   5.875  21.224 -0.0895  0.1811  0.3127
36042DOPS   C3B43532  10.069   5.469  21.181 -0.2575 -0.1219 -0.0349
36042DOPS   C4B43533   9.643   5.168  21.120 -0.0837 -0.0779  0.1778
36043DOPS   CNO43534   2.505   1.434  19.549  0.3297 -0.2780 -0.1278
36043DOPS   PO443535   2.714   1.576  19.799  0.0681  0.0917  0.0867
36043DOPS   GL143536   2.932   1.477  19.532  0.4753  0.0963 -0.1608
36043DOPS   GL243537   3.206   1.384  19.597 -0.0360  0.2618 -0.1955
36043DOPS   C1A43538   2.914   1.273  19.120  0.0697  0.3288  0.0781
36043DOPS   D2A43539   2.976   1.418  18.643 -0.1665 -0.1316  0.0238
36043DOPS   C3A43540   3.282   1.739  18.527  0.1967 -0.0231 -0.0174
36043DOPS   C4A43541   3.786   1.635  18.528  0.1235  0.0957  0.0945
36043DOPS   C1B43542   3.525   1.619  19.355  0.0229 -0.0059 -0.2571
36043DOPS   D2B43543   4.004   1.736  19.220 -0.1196 -0.1412  0.1087
36043DOPS   C3B43544   4.349   1.462  19.359  0.2435  0.2741 -0.1567
36043DOPS   C4B43545   4.673   1.078  19.482 -0.0754  0.3496 -0.0516
36044DOPS   CNO43546  15.172   1.436  19.578  0.1061 -0.0278  0.0247
36044DOPS   PO443547  15.205   1.029  19.703 -0.2348 -0.1638 -0.2642
36044DOPS   GL143548  14.923   0.931  19.408 -0.0889  0.1881 -0.1594
36044DOPS   GL243549  14.922   1.228  19.260  0.0305  0.1666  0.3291
36044DOPS   C1A43550  14.523   0.751  19.492  0.0635 -0.3525 -0.0659
36044DOPS   D2A43551  14.046   0.858  19.451  0.1849  0.1575  0.0515
36044DOPS   C3A43552  13.744   1.040  19.132  0.1423 -0.0187  0.1330
36044DOPS   C4A43553  13.455   1.230  18.795 -0.1067  0.0065  0.1623
36044DOPS   C1B43554  14.569   1.382  19.028  0.0448  0.1580  0.3801
36044DOPS   D2B43555  14.350   1.362  18.545  0.2854  0.0601  0.0053
36044DOPS   C3B43556  14.276   1.321  18.044 -0.0635  0.0674 -0.5940
36044DOPS   C4B43557  13.990   1.067  17.696  0.0665 -0.2664 -0.0670
36045DOPS   CNO43558  23.774   7.638  15.414 -0.1507 -0.0642  0.1779
36045DOPS   PO443559  23.524   7.774  15.144  0.0293 -0.1848  0.1553
36045DOPS   GL143560  23.648   7.988  14.731 -0.2383 -0.1701  0.0611
36045DOPS   GL243561  23.343   7.915  14.700 -0.1704 -0.1916 -0.1657
36045DOPS   C1A43562  23.961   7.743  14.362 -0.3295  0.1244 -0.1927
36045DOPS   D2A43563  24.207   7.675  13.957  0.0775 -0.0431  0.3315
36045DOPS   C3A43564  24.375   7.816  13.481  0.4504 -0.1180 -0.0489
36045DOPS   C4A43565  24.478   7.962  12.991  0.2478 -0.1315  0.1189
36045DOPS   C1B43566  23.493   7.593  14.354  0.1079 -0.0605 -0.0086
36045DOPS   D2B43567  23.721   7.456  13.972  0.1849  0.2431  0.4006
36045DOPS   C3B43568  23.896   7.589  13.571 -0.0126 -0.3179  0.2682
36045DOPS   C4B43569  24.029   7.806  13.153  0.1312 -0.1490 -0.0128
36046DOPS   CNO43570  15.150   2.998  19.213 -0.3712 -0.1876  0.3954
36046DOPS   PO443571  15.318   3.361  19.260 -0.1081 -0.0368 -0.2052
36046DOPS   GL143572  14.969   3.448  18.936  0.0297 -0.0391  0.0926
36046DOPS   GL243573  15.124   3.352  18.780  0.3240  0.1619 -0.3469
36046DOPS   C1A43574  14.572   3.282  18.803  0.0367  0.2384  0.0027
36046DOPS   D2A43575  14.205   3.149  18.478  0.1166 -0.0757  0.1127
36046DOPS   C3A43576  13.807   3.489  18.483 -0.2333 -0.3505 -0.0625
36046DOPS   C4A43577  13.424   3.774  18.441  0.0347 -0.1273  0.0013
36046DOPS   C1B43578  14.882   3.202  18.323  0.0142  0.0031 -0.0828
36046DOPS   D2B43579  14.599   3.180  17.940 -0.0853  0.2466  0.0842
36046DOPS   C3B43580  14.208   3.123  17.669 -0.2609  0.1531 -0.1273
36046DOPS   C4B43581  13.936   3.202  17.273  0.0525 -0.1228  0.2751
36047DOPS   CNO43582  21.242   1.433  14.367 -0.2179  0.0804 -0.0281
36047DOPS   PO443583  20.896   1.398  14.226 -0.0698 -0.1258 -0.2002
36047DOPS   GL143584  20.969   1.144  13.964 -0.0832 -0.1691  0.2364
36047DOPS   GL243585  21.248   1.143  13.991 -0.2660  0.2116 -0.1589
36047DOPS   C1A43586  21.075   1.049  13.509  0.0817 -0.1294 -0.4173
36047DOPS   D2A43587  20.809   1.247  13.124  0.1787 -0.0641  0.0574
36047DOPS   C3A43588  20.857   1.048  12.726 -0.1357  0.1479  0.0948
36047DOPS   C4A43589  20.571   0.944  12.351 -0.0267  0.0857  0.0584
36047DOPS   C1B43590  21.529   1.162  13.608  0.0303  0.4575  0.3551
36047DOPS   D2B43591  21.471   1.013  13.134 -0.1439 -0.1438  0.1282
36047DOPS   C3B43592  21.031   0.755  13.031  0.0453  0.0410 -0.3422
36047DOPS   C4B43593  20.684   0.650  13.293  0.1369 -0.0976  0.0084
36048DOPS   CNO43594  22.934   7.659  15.012 -0.1089 -0.0912 -0.0848
36048DOPS   PO443595  22.773   7.481  14.717 -0.1655 -0.2012 -0.0382
36048DOPS   GL143596  23.018   7.600  14.427 -0.4917 -0.3219 -0.0153
36048DOPS   GL243597  23.095   7.357  14.270 -0.3071 -0.0905 -0.4860
36048DOPS   C1A43598  22.988   7.818  14.076  0.1004 -0.0725  0.1665
36048DOPS   D2A43599  23.327   7.843  13.647  0.0164  0.0043 -0.0299
36048DOPS   C3A43600  23.281   8.197  13.339 -0.4107  0.2273  0.1818
36048DOPS   C4A43601  23.199   8.403  12.868 -0.4207 -0.1074  0.1615
36048DOPS   C1B43602  23.176   7.359  13.871 -0.0278 -0.1235 -0.0919
36048DOPS   D2B43603  23.303   7.403  13.364  0.0354  0.0068 -0.0908
36048DOPS   C3B43604  23.159   7.268  12.933 -0.0685 -0.1170 -0.0142
36048DOPS   C4B43605  23.185   7.177  12.474  0.1575  0.0248 -0.0247
36049DOPS   CNO43606  13.787   5.082  21.136 -0.1790 -0.0908  0.1149
36049DOPS   PO443607  13.468   5.189  21.285  0.0250 -0.0451 -0.1870
36049DOPS   GL143608  13.089   5.016  21.166 -0.0365 -0.1502 -0.0784
36049DOPS   GL243609  13.169   4.887  20.884 -0.1546  0.0243 -0.2191
36049DOPS   C1A43610  12.747   5.258  21.059 -0.2563  0.1777  0.1328
36049DOPS   D2A43611  12.348   5.440  20.869  0.2380  0.1412 -0.1276
36049DOPS   C3A43612  12.016   5.389  20.591 -0.2105 -0.0324 -0.0771
36049DOPS   C4A43613  11.471   5.321  20.758 -0.1055  0.0796  0.2876
36049DOPS   C1B43614  12.919   4.622  20.674 -0.1993  0.2574  0.0426
36049DOPS   D2B43615  12.802   4.216  20.469 -0.4413  0.1761 -0.0682
36049DOPS   C3B43616  12.514   4.087  20.210  0.4382  0.2073 -0.0776
36049DOPS   C4B43617  12.193   4.063  19.909  0.0322  0.0369 -0.0340
36050DOPS   CNO43618  12.472   5.053  21.869  0.2168  0.1674  0.0843
36050DOPS   PO443619  12.379   5.362  21.674  0.2770  0.2625 -0.2808
36050DOPS   GL143620  12.115   5.474  21.374 -0.0294 -0.1542 -0.1983
36050DOPS   GL243621  12.191   5.156  21.250 -0.1745 -0.3192 -0.1598
36050DOPS   C1A43622  11.866   5.569  21.035 -0.1811  0.0825 -0.0537
36050DOPS   D2A43623  11.729   5.846  20.634  0.2632  0.2089 -0.1702
36050DOPS   C3A43624  11.431   5.681  20.303  0.1249  0.0156 -0.1715
36050DOPS   C4A43625  11.056   5.699  19.983 -0.1664  0.0916  0.1927
36050DOPS   C1B43626  11.926   5.043  21.012 -0.0196 -0.3113 -0.0601
36050DOPS   D2B43627  11.780   4.919  20.569 -0.3308 -0.2050 -0.0587
36050DOPS   C3B43628  11.596   5.167  20.239  0.0033 -0.0518  0.0329
36050DOPS   C4B43629  11.295   5.189  19.870  0.0829  0.1368 -0.0018
36051DOPS   CNO43630   9.032   0.307  23.071  0.0883 -0.1456  0.0654
36051DOPS   PO443631   8.844   0.137  22.794  0.0601 -0.2371 -0.0777
36051DOPS   GL143632   9.057   0.067  22.472  0.0227  0.0616  0.0980
36051DOPS   GL243633   9.161   0.384  22.500  0.1265 -0.2538 -0.1048
36051DOPS   C1A43634   9.346  -0.191  22.373  0.3283  0.0168  0.1935
36051DOPS   D2A43635   9.711  -0.439  22.233  0.1797 -0.3101  0.1389
36051DOPS   C3A43636   9.474  -0.702  21.916  0.3008  0.2444  0.0773
36051DOPS   C4A43637   9.365  -1.026  21.568 -0.0104 -0.1026 -0.2482
36051DOPS   C1B43638   9.086   0.391  22.081  0.1966  0.1327 -0.1023
36051DOPS   D2B43639   8.774   0.280  21.743  0.1792 -0.0638 -0.0853
36051DOPS   C3B43640   8.581   0.256  21.322 -0.1125 -0.2174 -0.0523
36051DOPS   C4B43641   8.206   0.239  20.977  0.0679  0.0842  0.0647
36052DOPS   CNO43642  10.778   7.488  22.918 -0.1750  0.1673  0.1055
36052DOPS   PO443643  10.910   7.644  22.557 -0.1942  0.1510 -0.0247
36052DOPS   GL143644  10.927   7.611  22.102  0.2464 -0.2694 -0.2853
36052DOPS   GL243645  10.895   7.899  22.036  0.0874 -0.1432 -0.1436
36052DOPS   C1A43646  10.951   7.340  21.729  0.2032  0.2410 -0.5472
36052DOPS   D2A43647  10.806   7.196  21.308  0.0749 -0.3463  0.0775
36052DOPS   C3A43648  10.668   7.345  20.889  0.0594 -0.0476 -0.0085
36052DOPS   C4A43649  10.727   7.589  20.432  0.1738  0.0432 -0.1214
36052DOPS   C1B43650  10.923   7.927  21.597 -0.0326  0.0992 -0.3588
36052DOPS   D2B43651  10.659   7.662  21.281 -0.0282  0.1132  0.0670
36052DOPS   C3B43652  10.465   7.878  20.857  0.3101  0.1971 -0.0013
36052DOPS   C4B43653  10.316   7.984  20.518 -0.0122 -0.0816 -0.0119
36053DOPS   CNO43654  13.610   1.247  21.210  0.0029 -0.4035 -0.1827
36053DOPS   PO443655  13.258   1.365  21.382 -0.0312 -0.2674 -0.3046
36053DOPS   GL143656  12.931   1.415  21.062 -0.0339 -0.1411 -0.0086
36053DOPS   GL243657  12.992   1.658  21.048 -0.1838 -0.2378  0.1443
36053DOPS   C1A43658  12.848   1.376  20.638  0.4250 -0.2720 -0.2051
36053DOPS   D2A43659  12.584   1.527  20.211 -0.2990 -0.0071 -0.2121
36053DOPS   C3A43660  12.402   1.603  19.808 -0.1467  0.1898  0.1757
36053DOPS   C4A43661  12.148   1.754  19.455 -0.0740  0.2579  0.2391
36053DOPS   C1B43662  12.795   2.001  20.782 -0.0883  0.2445 -0.2620
36053DOPS   D2B43663  12.620   2.060  20.354  0.1500 -0.0012 -0.3290
36053DOPS   C3B43664  12.487   2.057  19.951 -0.1346  0.3090 -0.0294
36053DOPS   C4B43665  12.614   2.091  19.512  0.0094  0.2224 -0.0500
36054DOPS   CNO43666  11.827   6.028  22.289  0.0659 -0.2859  0.2870
36054DOPS   PO443667  11.781   5.684  22.233 -0.1498  0.0817  0.0633
36054DOPS   GL143668  11.467   5.653  21.997 -0.0609  0.0640 -0.4479
36054DOPS   GL243669  11.238   5.652  22.085  0.1107 -0.1116 -0.0829
36054DOPS   C1A43670  11.483   5.535  21.583  0.0383 -0.0965 -0.0499
36054DOPS   D2A43671  11.186   5.493  21.269  0.2109 -0.0902  0.1560
36054DOPS   C3A43672  10.885   5.902  21.157 -0.2051 -0.0713 -0.0359
36054DOPS   C4A43673  10.743   6.312  21.386 -0.4349 -0.0335 -0.1754
36054DOPS   C1B43674  10.994   5.462  21.794 -0.1810  0.2539  0.3897
36054DOPS   D2B43675  10.691   5.421  21.488  0.1411  0.0568 -0.2654
36054DOPS   C3B43676  10.566   5.453  21.033 -0.0076 -0.0236 -0.1160
36054DOPS   C4B43677  10.532   5.773  20.664 -0.0534  0.2120 -0.0686
36055DOPS   CNO43678  14.827   7.410  20.227 -0.2987 -0.0663 -0.0649
36055DOPS   PO443679  14.877   7.266  19.874 -0.0607  0.0993 -0.0338
36055DOPS   GL143680  14.603   7.434  19.559 -0.0838 -0.1042  0.1183
36055DOPS   GL243681  14.805   7.597  19.404  0.0139 -0.1813  0.3364
36055DOPS   C1A43682  14.226   7.381  19.401  0.1436  0.0953  0.1631
36055DOPS   D2A43683  14.011   7.434  18.970  0.1253 -0.1123 -0.1021
36055DOPS   C3A43684  13.593   7.532  18.757 -0.0642 -0.1105  0.1426
36055DOPS   C4A43685  13.188   7.863  18.570 -0.2781  0.1921  0.0565
36055DOPS   C1B43686  14.478   7.803  19.157  0.1117 -0.1126 -0.1180
36055DOPS   D2B43687  14.229   7.978  18.749  0.0436 -0.0322 -0.1507
36055DOPS   C3B43688  13.938   8.104  18.392 -0.0990  0.0267 -0.0560
36055DOPS   C4B43689  13.489   7.963  18.167  0.1971 -0.0284 -0.0336
36056DOPS   CNO43690  19.494   3.334  14.897 -0.0916  0.1351  0.4245
36056DOPS   PO443691  19.128   3.257  15.027  0.0719 -0.1355 -0.1800
36056DOPS   GL143692  18.828   3.355  14.745  0.0942  0.2276 -0.0221
36056DOPS   GL243693  19.017   3.128  14.560  0.1420  0.0825 -0.1756
36056DOPS   C1A43694  18.709   3.475  14.366  0.2042  0.0562  0.1470
36056DOPS   D2A43695  18.664   3.391  13.858  0.0367  0.0059  0.2823
36056DOPS   C3A43696  18.469   3.447  13.397  0.3039 -0.0159  0.1177
36056DOPS   C4A43697  18.601   3.441  12.926 -0.1538 -0.2096 -0.0803
36056DOPS   C1B43698  18.913   3.052  14.127 -0.0256  0.4398  0.1931
36056DOPS   D2B43699  18.579   2.927  13.812 -0.3899  0.1132 -0.0667
36056DOPS   C3B43700  18.197   2.607  13.622 -0.0213  0.1391 -0.0723
36056DOPS   C4B43701  17.859   2.308  13.445  0.0843 -0.0031 -0.0885
36057DOPS   CNO43702  10.867   3.673  22.384  0.2841  0.0430  0.0293
36057DOPS   PO443703  10.591   3.388  22.427  0.0880 -0.0500  0.1670
36057DOPS   GL143704  10.430   3.389  22.077 -0.2943  0.0334 -0.0930
36057DOPS   GL243705  10.485   3.152  21.987 -0.0746  0.2134  0.0776
36057DOPS   C1A43706  10.304   3.636  21.762  0.1046  0.0498 -0.2264
36057DOPS   D2A43707  10.005   3.776  21.414  0.2301 -0.0841 -0.0987
36057DOPS   C3A43708  10.222   3.870  21.002 -0.1686 -0.0601  0.2245
36057DOPS   C4A43709  10.195   4.140  20.620 -0.0290  0.0378  0.2968
36057DOPS   C1B43710  10.214   3.054  21.658 -0.0988  0.1914  0.0395
36057DOPS   D2B43711   9.866   2.902  21.253  0.1354  0.1825  0.0607
36057DOPS   C3B43712   9.831   3.322  21.115  0.1079 -0.0103  0.1223
36057DOPS   C4B43713   9.771   3.757  20.876  0.3217  0.0941 -0.2413
36058DOPS   CNO43714  24.874   3.559  16.275 -0.0429  0.0591  0.2977
36058DOPS   PO443715  24.939   3.621  15.930 -0.1986  0.0404 -0.1105
36058DOPS   GL143716  25.372   3.641  15.788  0.0171 -0.1242  0.3246
36058DOPS   GL243717  25.399   3.926  15.890 -0.0318 -0.1498 -0.1353
36058DOPS   C1A43718  25.566   3.675  15.425  0.1284 -0.0483  0.2853
36058DOPS   D2A43719  25.887   3.746  15.027 -0.2590 -0.2604 -0.0580
36058DOPS   C3A43720  25.692   4.184  14.931 -0.0054  0.0285 -0.0634
36058DOPS   C4A43721  25.421   4.565  14.845  0.1016 -0.2714  0.0450
36058DOPS   C1B43722  25.805   4.092  15.931  0.0072  0.0617 -0.3471
36058DOPS   D2B43723  26.205   4.127  15.707  0.1470 -0.2635  0.0986
36058DOPS   C3B43724  26.516   3.893  15.554 -0.1909 -0.0598 -0.1795
36058DOPS   C4B43725  26.912   3.829  15.270 -0.0044  0.2384 -0.2993
36059DOPS   CNO43726   7.085   3.412  22.319  0.1633 -0.0584  0.2319
36059DOPS   PO443727   6.941   3.530  21.970  0.2103  0.4003  0.0893
36059DOPS   GL143728   7.050   3.236  21.648  0.1456  0.3068 -0.3002
36059DOPS   GL243729   6.825   3.270  21.547  0.1404  0.1283 -0.1643
36059DOPS   C1A43730   7.398   3.200  21.412  0.4728 -0.0826 -0.0793
36059DOPS   D2A43731   7.704   3.446  21.118  0.1316 -0.1115  0.1125
36059DOPS   C3A43732   7.479   3.493  20.702 -0.0190 -0.0757  0.2094
36059DOPS   C4A43733   6.998   3.745  20.706 -0.1849  0.3774 -0.4457
36059DOPS   C1B43734   6.636   3.428  21.189 -0.1208 -0.2570  0.0124
36059DOPS   D2B43735   6.556   3.580  20.801 -0.2347  0.1326 -0.1965
36059DOPS   C3B43736   6.379   3.742  20.404  0.0554  0.0370  0.1237
36059DOPS   C4B43737   6.175   3.843  19.924 -0.0460  0.0857 -0.3926
36060DOPS   CNO43738  24.097   4.480  15.732  0.0226 -0.1201 -0.0955
36060DOPS   PO443739  24.446   4.468  15.656  0.1129  0.1499 -0.2703
36060DOPS   GL143740  24.772   4.630  15.397 -0.0639 -0.5359  0.2041
36060DOPS   GL243741  24.988   4.433  15.529  0.0817  0.0580 -0.3196
36060DOPS   C1A43742  24.907   4.788  15.027 -0.0419 -0.0431  0.3114
36060DOPS   D2A43743  25.067   4.908  14.538 -0.0647  0.0124  0.1453
36060DOPS   C3A43744  25.484   5.109  14.411 -0.0409  0.3459  0.1085
36060DOPS   C4A43745  25.998   5.047  14.474 -0.0546  0.0306  0.0179
36060DOPS   C1B43746  25.421   4.335  15.361 -0.1755  0.0850  0.0224
36060DOPS   D2B43747  25.847   4.075  15.397 -0.0671 -0.0433 -0.2655
36060DOPS   C3B43748  26.227   4.056  15.189  0.0375  0.1352  0.0081
36060DOPS   C4B43749  26.488   4.365  14.895  0.1132 -0.3971 -0.4408
36061DOPS   CNO43750   2.420   1.882  20.100 -0.1093  0.1440 -0.0076
36061DOPS   PO443751   2.740   2.061  19.982  0.0263 -0.2446  0.0725
36061DOPS   GL143752   2.811   2.063  19.469  0.2590  0.1587 -0.1652
36061DOPS   GL243753   2.965   1.912  19.605  0.0398 -0.0428  0.1896
36061DOPS   C1A43754   2.892   2.220  19.060 -0.3028  0.1234 -0.1912
36061DOPS   D2A43755   2.910   2.297  18.559  0.2589 -0.0939  0.0769
36061DOPS   C3A43756   3.234   2.120  18.307 -0.0003  0.2332 -0.0195
36061DOPS   C4A43757   3.693   2.122  18.473  0.2453  0.1914 -0.4900
36061DOPS   C1B43758   3.304   2.082  19.359 -0.2473 -0.1462 -0.2336
36061DOPS   D2B43759   3.659   2.436  19.246  0.0438  0.1357 -0.0303
36061DOPS   C3B43760   3.777   2.640  19.572  0.0990 -0.2879 -0.1043
36061DOPS   C4B43761   3.496   2.849  19.918 -0.2275  0.3057 -0.1578
36062DOPC   NC343762   0.603   2.982  11.674  0.2338  0.2775  0.2286
36062DOPC   PO443763   0.494   3.360  11.593 -0.3990 -0.1589  0.0807
36062DOPC   GL143764   0.481   3.565  11.931 -0.4648 -0.0972 -0.1395
36062DOPC   GL243765   0.414   3.825  11.843  0.1691 -0.0106 -0.3859
36062DOPC   C1A43766   0.464   3.423  12.372 -0.0143 -0.0206  0.3347
36062DOPC   D2A43767   0.273   3.415  12.863  0.0788 -0.0293  0.0321
36062DOPC   C3A43768  -0.058   3.068  12.905 -0.2750 -0.2733  0.0817
36062DOPC   C4A43769  -0.535   2.887  12.960  0.1171  0.1102  0.1912
36062DOPC   C1B43770  -0.001   3.875  11.983 -0.1182  0.2027 -0.3270
36062DOPC   D2B43771  -0.316   3.833  12.412 -0.0739 -0.1397  0.1158
36062DOPC   C3B43772  -0.573   3.894  12.804  0.2948 -0.2255 -0.1835
36062DOPC   C4B43773  -0.834   4.011  13.218  0.1296  0.0325 -0.0447
36063DOPC   NC343774  12.758   7.200  15.717  0.0090  0.1374  0.2397
36063DOPC   PO443775  12.536   7.490  15.912  0.1485 -0.1802 -0.1236
36063DOPC   GL143776  12.836   7.629  16.077 -0.0916  0.1178 -0.0963
36063DOPC   GL243777  12.680   7.649  16.329  0.0010 -0.0108  0.1871
36063DOPC   C1A43778  13.310   7.559  16.021  0.0608  0.0463 -0.0826
36063DOPC   D2A43779  13.775   7.599  15.940  0.3704 -0.0410 -0.2655
36063DOPC   C3A43780  14.025   7.497  16.365 -0.1546  0.0284 -0.0145
36063DOPC   C4A43781  14.414   7.718  16.697 -0.0701  0.1519 -0.0455
36063DOPC   C1B43782  13.137   7.811  16.433 -0.0077 -0.2043 -0.2517
36063DOPC   D2B43783  13.512   7.507  16.496 -0.0669  0.0256  0.1798
36063DOPC   C3B43784  13.714   7.329  16.812 -0.0073  0.0133  0.0241
36063DOPC   C4B43785  14.145   7.340  16.975  0.3029 -0.2129  0.1519
36064DOPC   NC343786  10.645   0.886  18.149 -0.4673  0.0094 -0.2482
36064DOPC   PO443787  10.968   0.743  17.995 -0.1334 -0.1756 -0.0171
36064DOPC   GL143788  11.176   0.668  18.320 -0.3758 -0.3282 -0.0042
36064DOPC   GL243789  10.977   0.894  18.455  0.4846  0.0608 -0.0368
36064DOPC   C1A43790  11.517   0.587  18.550 -0.0076  0.3163 -0.1419
36064DOPC   D2A43791  11.836   0.322  18.897  0.1184 -0.0466 -0.2104
36064DOPC   C3A43792  11.650  -0.041  19.204 -0.1829  0.3381 -0.1882
36064DOPC   C4A43793  11.393  -0.423  19.504 -0.2963  0.3666  0.0216
36064DOPC   C1B43794  10.914   1.166  18.799 -0.0421  0.4738 -0.0419
36064DOPC   D2B43795  10.987   1.296  19.257 -0.0372  0.0566  0.0789
36064DOPC   C3B43796  11.207   1.471  19.607  0.0911  0.0404  0.1477
36064DOPC   C4B43797  11.307   1.548  20.071 -0.2035 -0.0372 -0.0233
36065DOPC   NC343798  12.787   1.660  14.847  0.0885  0.2206 -0.2241
36065DOPC   PO443799  12.806   2.005  15.039 -0.4005  0.0780 -0.3865
36065DOPC   GL143800  13.168   1.920  15.243 -0.2720 -0.1268 -0.0173
36065DOPC   GL243801  13.253   2.175  15.408  0.0836  0.5598 -0.2383
36065DOPC   C1A43802  13.457   1.570  15.407 -0.1649  0.1458 -0.1579
36065DOPC   D2A43803  13.558   1.320  15.862 -0.0640  0.0774 -0.0271
36065DOPC   C3A43804  13.564   1.238  16.305  0.1706 -0.0926 -0.0967
36065DOPC   C4A43805  13.819   1.337  16.671 -0.1137 -0.1576  0.0527
36065DOPC   C1B43806  13.496   2.165  15.709  0.0267 -0.1206  0.0185
36065DOPC   D2B43807  13.903   2.153  16.022  0.2143  0.0756 -0.2332
36065DOPC   C3B43808  14.281   2.024  15.921 -0.1343 -0.3617  0.0729
36065DOPC   C4B43809  14.784   1.970  15.901  0.2302 -0.0484  0.2774
36066DOPC   NC343810   3.252   3.084  13.721  0.0243 -0.0186 -0.2617
36066DOPC   PO443811   3.555   2.863  13.854  0.0757  0.0084  0.1444
36066DOPC   GL143812   3.367   2.495  14.087  0.1495 -0.1185  0.2566
36066DOPC   GL243813   3.125   2.627  14.001 -0.3876 -0.0295 -0.0843
36066DOPC   C1A43814   3.344   2.553  14.480  0.2911  0.0707 -0.1838
36066DOPC   D2A43815   3.154   2.599  14.917 -0.0374 -0.1470 -0.0347
36066DOPC   C3A43816   2.730   2.580  15.180  0.0166 -0.2763 -0.0320
36066DOPC   C4A43817   2.309   2.363  15.376  0.1597  0.2833  0.1973
36066DOPC   C1B43818   2.723   2.522  14.150  0.2917  0.4190 -0.0172
36066DOPC   D2B43819   2.283   2.642  14.307  0.0188 -0.1048 -0.1716
36066DOPC   C3B43820   1.903   2.455  14.498 -0.1989  0.0460  0.0633
36066DOPC   C4B43821   1.524   2.201  14.732 -0.0987  0.1814  0.0015
36067DOPC   NC343822  24.259   2.622  10.321 -0.1730 -0.0320 -0.2341
36067DOPC   PO443823  24.616   2.555  10.547  0.0296 -0.2175  0.1240
36067DOPC   GL143824  24.482   2.736  10.888  0.2961  0.1959 -0.1921
36067DOPC   GL243825  24.377   2.486  11.058  0.2296 -0.2267  0.0261
36067DOPC   C1A43826  24.384   2.981  11.263  0.1151  0.0880 -0.0282
36067DOPC   D2A43827  24.177   3.180  11.640 -0.2203 -0.0888  0.0360
36067DOPC   C3A43828  23.978   3.232  12.057  0.2031 -0.3418  0.1876
36067DOPC   C4A43829  23.653   3.256  12.460  0.3149  0.1615  0.2303
36067DOPC   C1B43830  24.300   2.538  11.482  0.1997 -0.0306  0.3978
36067DOPC   D2B43831  23.974   2.718  11.831 -0.0519  0.0898 -0.0089
36067DOPC   C3B43832  23.923   2.813  12.271  0.1083  0.0974  0.0582
36067DOPC   C4B43833  24.151   3.103  12.559 -0.3112  0.0544 -0.3339
36068DOPC   NC343834   4.662   7.710  16.845  0.1677 -0.0085 -0.1678
36068DOPC   PO443835   4.950   7.434  16.946 -0.1476 -0.3846 -0.3902
36068DOPC   GL143836   4.888   7.451  17.319  0.0168 -0.0696  0.0401
36068DOPC   GL243837   5.102   7.546  17.461 -0.1343  0.2259  0.0566
36068DOPC   C1A43838   4.502   7.583  17.409 -0.0051 -0.0790 -0.1099
36068DOPC   D2A43839   4.051   7.401  17.643 -0.1690  0.1072  0.0880
36068DOPC   C3A43840   4.038   7.006  17.511  0.0309 -0.1228  0.0509
36068DOPC   C4A43841   4.294   6.571  17.322 -0.1475  0.0537 -0.1395
36068DOPC   C1B43842   4.840   7.582  17.868  0.1788 -0.0310 -0.0950
36068DOPC   D2B43843   4.776   7.834  18.238  0.1309 -0.1538  0.1340
36068DOPC   C3B43844   4.488   7.618  18.582 -0.0063 -0.1242 -0.1507
36068DOPC   C4B43845   4.101   7.559  18.947  0.1123  0.0727  0.2080
36069DOPC   NC343846  10.556   3.332  18.168  0.1398 -0.0542 -0.0788
36069DOPC   PO443847  10.747   3.660  18.099 -0.1895  0.5179 -0.0059
36069DOPC   GL143848  11.026   3.398  18.225 -0.1427 -0.0341 -0.1617
36069DOPC   GL243849  10.899   3.376  18.561 -0.1773  0.2112 -0.3073
36069DOPC   C1A43850  11.159   2.993  18.436  0.3054 -0.0154  0.0279
36069DOPC   D2A43851  11.500   2.966  18.749 -0.0594  0.1704  0.2462
36069DOPC   C3A43852  11.766   2.781  19.112  0.1060 -0.2288  0.0788
36069DOPC   C4A43853  12.141   2.733  19.435 -0.1693  0.1943  0.0672
36069DOPC   C1B43854  11.196   3.559  18.865  0.2944 -0.0684 -0.1414
36069DOPC   D2B43855  11.441   3.920  19.211 -0.1357 -0.2948  0.4021
36069DOPC   C3B43856  11.866   3.800  19.342  0.3406 -0.0799  0.2197
36069DOPC   C4B43857  12.310   3.712  19.497  0.0638 -0.0479 -0.0258
36070DOPC   NC343858   8.949   0.646  18.593 -0.0896  0.2323 -0.1195
36070DOPC   PO443859   8.631   0.780  18.795  0.0552  0.3337 -0.3014
36070DOPC   GL143860   8.504   0.728  19.213  0.2429  0.3464 -0.2047
36070DOPC   GL243861   8.215   0.723  19.208  0.1668  0.1091 -0.1392
36070DOPC   C1A43862   8.807   0.698  19.538 -0.0311  0.1060 -0.0474
36070DOPC   D2A43863   9.123   0.575  19.928 -0.2643  0.1654  0.0711
36070DOPC   C3A43864   8.714   0.498  20.090 -0.2584 -0.2585 -0.0208
36070DOPC   C4A43865   8.336   0.269  20.191  0.0094  0.0858 -0.1853
36070DOPC   C1B43866   7.934   0.711  19.482 -0.2174  0.1274  0.0765
36070DOPC   D2B43867   7.888   0.540  19.992 -0.3509  0.2572  0.1728
36070DOPC   C3B43868   7.808   0.666  20.478 -0.0066  0.2640 -0.4958
36070DOPC   C4B43869   7.860   0.621  20.982  0.1859 -0.1891 -0.0726
36071DOPC   NC343870  19.729   1.593  10.449 -0.4190  0.1965  0.2207
36071DOPC   PO443871  19.812   1.212  10.399  0.0072  0.2663 -0.1422
36071DOPC   GL143872  19.924   0.973  10.778 -0.0439  0.2735 -0.0885
36071DOPC   GL243873  19.764   1.204  10.878  0.1839  0.3649  0.0156
36071DOPC   C1A43874  20.239   0.771  11.054  0.1042  0.2206 -0.1776
36071DOPC   D2A43875  20.531   0.663  11.478  0.0212 -0.1674  0.0937
36071DOPC   C3A43876  20.428   0.640  11.942 -0.1498  0.3479  0.0775
36071DOPC   C4A43877  20.325   0.367  12.348  0.0008 -0.1521  0.2722
36071DOPC   C1B43878  20.090   1.210  11.198 -0.1284  0.1376  0.1788
36071DOPC   D2B43879  20.482   1.188  11.467 -0.0766  0.0768 -0.1219
36071DOPC   C3B43880  20.712   0.984  11.834 -0.2159 -0.1814 -0.0977
36071DOPC   C4B43881  20.866   0.537  11.808  0.0697 -0.0885 -0.0234
36072DOPC   NC343882  15.447   3.428  12.646  0.1271 -0.0584 -0.0896
36072DOPC   PO443883  15.139   3.664  12.709 -0.1711  0.0505 -0.0490
36072DOPC   GL143884  15.341   3.955  12.827 -0.0182  0.1518 -0.1252
36072DOPC   GL243885  15.320   4.109  12.604 -0.2145 -0.2485  0.3728
36072DOPC   C1A43886  15.510   3.879  13.210  0.0937  0.2006 -0.3387
36072DOPC   D2A43887  15.825   3.904  13.554 -0.0897  0.0721  0.0856
36072DOPC   C3A43888  16.127   4.295  13.601  0.1137  0.1638  0.0052
36072DOPC   C4A43889  16.433   4.567  13.796 -0.2205 -0.0816  0.0543
36072DOPC   C1B43890  15.410   4.496  12.812  0.2127  0.1335  0.1546
36072DOPC   D2B43891  15.539   4.352  13.267  0.4078 -0.0091 -0.1473
36072DOPC   C3B43892  15.609   4.416  13.755  0.0631  0.0532 -0.1344
36072DOPC   C4B43893  15.757   4.678  14.169 -0.4728  0.3338  0.1232
36073DOPC   NC343894  16.767   3.391  11.552  0.2894 -0.3343  0.0556
36073DOPC   PO443895  16.916   3.535  11.211 -0.0584 -0.1095 -0.0003
36073DOPC   GL143896  17.209   3.689  11.374 -0.3619  0.2711  0.0013
36073DOPC   GL243897  17.213   3.437  11.523  0.4483  0.3174  0.2874
36073DOPC   C1A43898  17.384   3.974  11.587 -0.0457 -0.2101 -0.2993
36073DOPC   D2A43899  17.237   4.091  12.078 -0.0374  0.1514  0.1115
36073DOPC   C3A43900  17.247   4.197  12.492 -0.2369 -0.0070 -0.3488
36073DOPC   C4A43901  17.526   4.197  12.931 -0.1638  0.0923 -0.1054
36073DOPC   C1B43902  17.073   3.637  11.897 -0.0501 -0.0227  0.0132
36073DOPC   D2B43903  17.271   3.711  12.331 -0.0145  0.4988  0.1552
36073DOPC   C3B43904  17.418   3.702  12.757  0.0254  0.0757  0.1388
36073DOPC   C4B43905  17.644   3.649  13.202  0.0833 -0.3576  0.1192
36074DOPC   NC343906  24.142   2.273  10.667 -0.1021 -0.0473  0.2971
36074DOPC   PO443907  24.464   2.061  10.783 -0.1242  0.2265 -0.0120
36074DOPC   GL143908  24.369   1.711  10.936 -0.1818 -0.3181  0.2341
36074DOPC   GL243909  24.091   1.890  10.984 -0.2320 -0.0479  0.0094
36074DOPC   C1A43910  24.258   1.447  11.218  0.0990 -0.1798 -0.2694
36074DOPC   D2A43911  24.253   1.254  11.689 -0.2132  0.0407  0.0670
36074DOPC   C3A43912  24.239   1.229  12.151 -0.2969  0.0028 -0.0955
36074DOPC   C4A43913  24.050   1.367  12.583 -0.2364 -0.0844 -0.0078
36074DOPC   C1B43914  24.141   1.939  11.404 -0.0803 -0.0200  0.1413
36074DOPC   D2B43915  24.405   2.164  11.739 -0.0406 -0.0042 -0.1014
36074DOPC   C3B43916  24.703   2.013  12.055 -0.0994 -0.0165  0.3573
36074DOPC   C4B43917  25.055   1.786  12.314  0.0022 -0.1442  0.0355
36075DOPC   NC343918  17.911   2.885  10.296 -0.3029 -0.0541 -0.1865
36075DOPC   PO443919  18.167   2.605  10.467  0.0571 -0.0194  0.0289
36075DOPC   GL143920  18.285   2.572  10.911 -0.3974 -0.1132 -0.0808
36075DOPC   GL243921  18.375   2.792  10.834 -0.1788  0.2099  0.2774
36075DOPC   C1A43922  18.278   2.252  11.308 -0.4326  0.0019  0.3043
36075DOPC   D2A43923  18.438   1.829  11.326  0.1534 -0.0435 -0.0440
36075DOPC   C3A43924  18.772   1.636  11.599 -0.0972 -0.2908 -0.1660
36075DOPC   C4A43925  18.822   1.615  12.103 -0.3654 -0.1068 -0.1457
36075DOPC   C1B43926  18.407   3.040  11.182 -0.0145  0.0112  0.0962
36075DOPC   D2B43927  18.567   3.283  11.613  0.2305 -0.0521  0.0634
36075DOPC   C3B43928  18.607   3.746  11.441 -0.0914 -0.2060 -0.2632
36075DOPC   C4B43929  18.504   4.207  11.556  0.3083 -0.0646 -0.2318
36076DOPC   NC343930   1.964   2.587  11.965  0.0042  0.0080 -0.0195
36076DOPC   PO443931   2.130   2.469  12.272 -0.0020  0.2551  0.0563
36076DOPC   GL143932   1.877   2.329  12.534  0.1079  0.1574  0.1275
36076DOPC   GL243933   1.971   2.461  12.753  0.3454 -0.0581  0.0115
36076DOPC   C1A43934   1.488   2.066  12.559 -0.0954  0.1377 -0.0271
36076DOPC   D2A43935   1.040   1.766  12.639 -0.4117  0.2532  0.2327
36076DOPC   C3A43936   0.813   1.491  12.947 -0.3711  0.3106 -0.0519
36076DOPC   C4A43937   0.490   1.158  13.136  0.0978  0.0333 -0.0443
36076DOPC   C1B43938   1.859   2.854  12.929 -0.0057 -0.0754 -0.1096
36076DOPC   D2B43939   1.576   3.213  13.132 -0.0522  0.0549 -0.1717
36076DOPC   C3B43940   1.148   3.188  13.104 -0.1414 -0.0277 -0.2673
36076DOPC   C4B43941   0.686   3.120  13.017 -0.0707  0.1684  0.0396
36077DOPC   NC343942   3.853   2.516  14.469  0.1049 -0.4025  0.0915
36077DOPC   PO443943   3.818   2.257  14.766 -0.1112 -0.0995  0.0319
36077DOPC   GL143944   3.487   2.064  14.844  0.0698  0.0579 -0.0865
36077DOPC   GL243945   3.372   2.228  15.069 -0.4423 -0.1150  0.2200
36077DOPC   C1A43946   3.089   2.013  14.832 -0.2080 -0.0890  0.2091
36077DOPC   D2A43947   2.628   2.046  14.956 -0.0228 -0.4668 -0.0216
36077DOPC   C3A43948   2.129   1.973  15.029 -0.0806  0.1339  0.0192
36077DOPC   C4A43949   1.695   1.848  15.293  0.1356 -0.1708  0.0722
36077DOPC   C1B43950   3.363   2.329  15.527  0.1702  0.0136 -0.2243
36077DOPC   D2B43951   3.202   2.337  15.999  0.0582  0.1252 -0.4634
36077DOPC   C3B43952   3.089   2.507  16.421  0.2604 -0.1920 -0.1831
36077DOPC   C4B43953   3.135   2.630  16.915  0.2480  0.0661  0.1981
36078DOPC   NC343954  22.602   3.975  10.094 -0.0686 -0.0356  0.0220
36078DOPC   PO443955  22.686   3.667  10.269 -0.1559  0.0920 -0.1184
36078DOPC   GL143956  22.808   3.441  10.582 -0.0544 -0.0863 -0.0772
36078DOPC   GL243957  22.521   3.550  10.722  0.5049 -0.1043  0.2421
36078DOPC   C1A43958  22.995   3.586  10.907 -0.1625  0.1568 -0.4389
36078DOPC   D2A43959  23.117   3.550  11.406  0.1325  0.1981  0.1036
36078DOPC   C3A43960  23.152   3.300  11.790 -0.0173  0.0592 -0.1124
36078DOPC   C4A43961  23.273   3.087  12.230 -0.3389  0.2658 -0.1702
36078DOPC   C1B43962  22.546   3.730  11.183 -0.1624  0.2035  0.1160
36078DOPC   D2B43963  22.710   3.925  11.647 -0.2151 -0.0620  0.1167
36078DOPC   C3B43964  22.931   3.998  12.015 -0.0070 -0.2086  0.0732
36078DOPC   C4B43965  23.166   4.069  12.404 -0.0461 -0.1180  0.1785
36079DOPC   NC343966   6.600   0.925  17.839  0.1062  0.1533  0.1204
36079DOPC   PO443967   6.491   0.546  17.879  0.0460  0.0737 -0.0049
36079DOPC   GL143968   6.125   0.337  18.071 -0.2540  0.3363  0.2384
36079DOPC   GL243969   6.342   0.230  18.284 -0.6899 -0.1874  0.1019
36079DOPC   C1A43970   5.780   0.301  18.364 -0.0280 -0.1954  0.1537
36079DOPC   D2A43971   5.316   0.197  18.628  0.0822  0.1838  0.1277
36079DOPC   C3A43972   4.911  -0.028  18.752 -0.1743 -0.0001  0.4054
36079DOPC   C4A43973   4.658  -0.291  19.083  0.1908 -0.2589  0.0042
36079DOPC   C1B43974   6.341   0.495  18.628  0.1848  0.2763 -0.0400
36079DOPC   D2B43975   6.330   0.601  19.100 -0.2453  0.2104 -0.1522
36079DOPC   C3B43976   5.968   0.455  19.272 -0.0920 -0.1494 -0.2470
36079DOPC   C4B43977   5.813   0.212  19.627  0.2708  0.0472  0.2465
36080DOPC   NC343978  13.619   7.462  14.622 -0.1530  0.1311 -0.1468
36080DOPC   PO443979  13.812   7.115  14.482 -0.1340 -0.1425 -0.3156
36080DOPC   GL143980  14.187   6.943  14.438 -0.2227 -0.3060 -0.0095
36080DOPC   GL243981  14.072   6.737  14.531  0.0859 -0.0003 -0.1283
36080DOPC   C1A43982  14.524   7.239  14.538  0.0069  0.1219 -0.0503
36080DOPC   D2A43983  14.815   7.383  14.912  0.0107  0.0583 -0.0076
36080DOPC   C3A43984  14.775   7.276  15.388  0.0179  0.1987 -0.1826
36080DOPC   C4A43985  14.717   7.376  15.888  0.2505 -0.1443 -0.0677
36080DOPC   C1B43986  14.248   6.505  14.837  0.1577  0.1020  0.2143
36080DOPC   D2B43987  14.210   6.041  15.102  0.1477 -0.1494  0.3585
36080DOPC   C3B43988  14.579   6.203  15.327 -0.0771  0.0987  0.3951
36080DOPC   C4B43989  14.963   6.359  15.667 -0.0983  0.2226 -0.2540
36081DOPC   NC343990  16.989   5.196  11.021 -0.1698 -0.0813  0.0188
36081DOPC   PO443991  17.196   4.860  11.153 -0.2998  0.1356  0.0462
36081DOPC   GL143992  17.553   4.688  11.451  0.0213 -0.1095  0.0992
36081DOPC   GL243993  17.449   4.965  11.609  0.0739 -0.1957 -0.1125
36081DOPC   C1A43994  17.631   4.351  11.744 -0.0904 -0.2070  0.1240
36081DOPC   D2A43995  17.705   3.905  11.911 -0.0756  0.3432 -0.0582
36081DOPC   C3A43996  17.686   3.991  12.382  0.0362  0.0748 -0.1854
36081DOPC   C4A43997  17.914   4.022  12.795  0.3160 -0.2756  0.1747
36081DOPC   C1B43998  17.111   5.085  11.908 -0.0760  0.0625  0.0056
36081DOPC   D2B43999  16.737   5.012  12.229 -0.1020  0.0112  0.1107
36081DOPC   C3B44000  16.766   4.694  12.589  0.1260 -0.1997 -0.0336
36081DOPC   C4B44001  16.467   4.562  12.963  0.2225  0.0214 -0.0424
36082DOPC   NC344002   2.469   0.433  12.576  0.0369 -0.2845  0.2447
36082DOPC   PO444003   2.359   0.149  12.850  0.1772 -0.1388 -0.0139
36082DOPC   GL144004   1.941   0.047  13.050 -0.0715 -0.0572  0.4419
36082DOPC   GL244005   1.928   0.332  12.917  0.0638  0.1938 -0.1140
36082DOPC   C1A44006   1.559  -0.142  13.111  0.0350 -0.3974 -0.2816
36082DOPC   D2A44007   1.116   0.011  13.201  0.0184  0.2709 -0.0480
36082DOPC   C3A44008   0.980  -0.081  13.632  0.0260 -0.0553 -0.2380
36082DOPC   C4A44009   0.970  -0.179  14.112 -0.4477 -0.0219 -0.3747
36082DOPC   C1B44010   1.700   0.359  13.279  0.0588 -0.1048 -0.1520
36082DOPC   D2B44011   1.819   0.383  13.765 -0.1778 -0.0890  0.0798
36082DOPC   C3B44012   1.673   0.466  14.180 -0.0253  0.0098  0.0993
36082DOPC   C4B44013   1.827   0.260  14.633 -0.0419 -0.0723 -0.0747
36083DOPC   NC344014   4.866   1.609  15.739  0.0577 -0.2139  0.2202
36083DOPC   PO444015   4.572   1.357  15.773  0.0312  0.2116  0.1958
36083DOPC   GL144016   4.162   1.411  15.936 -0.0020  0.1291  0.2911
36083DOPC   GL244017   4.107   1.115  15.874  0.2303  0.2029 -0.1053
36083DOPC   C1A44018   3.984   1.631  16.265  0.0034  0.4857 -0.5793
36083DOPC   D2A44019   3.829   1.956  16.593  0.1479  0.2126 -0.1717
36083DOPC   C3A44020   3.545   2.328  16.746 -0.3231  0.0712 -0.0706
36083DOPC   C4A44021   3.564   2.553  17.146 -0.0903 -0.1040  0.0185
36083DOPC   C1B44022   3.842   1.085  16.240 -0.2242 -0.0407  0.2259
36083DOPC   D2B44023   3.453   0.813  16.372 -0.0822  0.1016  0.1140
36083DOPC   C3B44024   3.281   0.644  16.792  0.2722  0.1342 -0.0983
36083DOPC   C4B44025   3.273   0.388  17.204  0.2491 -0.0189  0.0645
36084DOPC   NC344026   0.640   2.151  11.267 -0.0918  0.2238 -0.0093
36084DOPC   PO444027   0.639   1.769  11.368 -0.1451  0.2891 -0.0329
36084DOPC   GL144028   0.387   1.727  11.651 -0.2228  0.0330 -0.0494
36084DOPC   GL244029   0.404   2.039  11.654  0.2173 -0.0941 -0.2785
36084DOPC   C1A44030  -0.026   1.745  11.739  0.1062  0.0182 -0.1516
36084DOPC   D2A44031  -0.481   1.704  11.616 -0.3725  0.0034  0.0635
36084DOPC   C3A44032  -0.882   1.697  11.915  0.1515  0.1457 -0.1625
36084DOPC   C4A44033  -1.129   1.777  12.321  0.1810  0.0115 -0.0983
36084DOPC   C1B44034   0.526   2.112  12.094 -0.2932  0.0833 -0.1746
36084DOPC   D2B44035   0.509   2.038  12.562 -0.2050  0.2861 -0.0733
36084DOPC   C3B44036   0.269   2.082  12.979 -0.0017  0.2191  0.0021
36084DOPC   C4B44037   0.189   2.152  13.507  0.1683  0.1142 -0.1525
36085DOPC   NC344038  19.154   3.335  10.106  0.2588  0.0035  0.1146
36085DOPC   PO444039  19.011   3.050  10.345 -0.0965 -0.0782  0.1852
36085DOPC   GL144040  19.109   2.857  10.689 -0.2933 -0.0040  0.0984
36085DOPC   GL244041  18.878   2.943  10.867  0.2838 -0.1308  0.2390
36085DOPC   C1A44042  19.355   2.834  11.029 -0.1439 -0.1839  0.1139
36085DOPC   D2A44043  19.473   2.969  11.503 -0.2556 -0.0628 -0.0901
36085DOPC   C3A44044  19.514   3.259  11.882  0.3193 -0.0320  0.0173
36085DOPC   C4A44045  19.737   3.490  12.247  0.2709 -0.0032  0.0790
36085DOPC   C1B44046  18.920   3.025  11.331 -0.0470  0.2573  0.0798
36085DOPC   D2B44047  19.015   2.994  11.763 -0.0966 -0.1161 -0.0994
36085DOPC   C3B44048  18.933   3.055  12.265  0.2383  0.2500  0.0753
36085DOPC   C4B44049  18.958   3.101  12.730  0.2713  0.1989 -0.3593
36086DOPC   NC344050  14.124   0.268  14.096  0.1826  0.0266 -0.0556
36086DOPC   PO444051  14.024  -0.159  14.087 -0.2308 -0.4221 -0.1236
36086DOPC   GL144052  14.269  -0.231  14.422 -0.0320  0.1257 -0.2895
36086DOPC   GL244053  14.447  -0.124  14.141  0.0111 -0.0962 -0.1973
36086DOPC   C1A44054  14.377  -0.046  14.708 -0.0583  0.0488 -0.1878
36086DOPC   D2A44055  14.673   0.119  15.077 -0.2920  0.0104  0.1936
36086DOPC   C3A44056  14.926   0.469  14.932  0.2805 -0.1466 -0.3754
36086DOPC   C4A44057  15.197   0.860  15.071 -0.0122  0.0000  0.1829
36086DOPC   C1B44058  14.815  -0.242  14.309 -0.2646  0.0225  0.2190
36086DOPC   D2B44059  15.255  -0.384  14.539 -0.0939  0.2007 -0.2567
36086DOPC   C3B44060  15.488  -0.602  14.920 -0.1034  0.3051  0.0188
36086DOPC   C4B44061  15.573  -0.327  15.329  0.3415  0.0157 -0.0461
36087DOPC   NC344062   4.728   6.657  16.531  0.1052 -0.1906 -0.1850
36087DOPC   PO444063   4.535   6.791  16.197 -0.1555  0.1063 -0.0872
36087DOPC   GL144064   4.255   7.094  16.288  0.1799 -0.3572  0.0327
36087DOPC   GL244065   4.257   6.946  16.572  0.1514  0.3729  0.0170
36087DOPC   C1A44066   3.896   7.348  16.131 -0.1091 -0.0129 -0.1129
36087DOPC   D2A44067   3.538   7.641  16.238  0.1441  0.1373 -0.1318
36087DOPC   C3A44068   3.098   7.702  16.241 -0.0271  0.0931 -0.1205
36087DOPC   C4A44069   2.636   7.914  16.146  0.1015 -0.4131 -0.0061
36087DOPC   C1B44070   3.919   6.734  16.334 -0.0242  0.2018  0.2234
36087DOPC   D2B44071   3.440   6.721  16.375  0.0727 -0.0965 -0.0023
36087DOPC   C3B44072   3.118   6.838  16.024  0.0282  0.1333 -0.1018
36087DOPC   C4B44073   2.654   6.945  16.009 -0.3732 -0.2333  0.0087
36088DOPC   NC344074  19.650   4.367   9.953  0.0992 -0.1004  0.1207
36088DOPC   PO444075  19.991   4.388  10.140  0.0321 -0.1782  0.4433
36088DOPC   GL144076  20.280   4.166  10.444 -0.2255  0.2463 -0.1932
36088DOPC   GL244077  20.424   4.399  10.410 -0.1178  0.5184  0.1363
36088DOPC   C1A44078  20.264   4.174  10.878 -0.4664  0.1279 -0.1090
36088DOPC   D2A44079  20.281   4.161  11.398  0.0865  0.1485  0.1242
36088DOPC   C3A44080  20.290   4.129  11.892  0.0205 -0.1133 -0.3656
36088DOPC   C4A44081  20.068   3.873  12.175  0.1891  0.0519 -0.2677
36088DOPC   C1B44082  20.512   4.583  10.812 -0.2143  0.0885 -0.1656
36088DOPC   D2B44083  20.317   4.632  11.292 -0.0979 -0.3843 -0.0093
36088DOPC   C3B44084  20.352   4.624  11.748  0.0407 -0.1581  0.3204
36088DOPC   C4B44085  20.663   4.829  12.098 -0.0047 -0.2059 -0.0738
36089DOPC   NC344086   9.350   4.709  18.096  0.1907 -0.0183 -0.1263
36089DOPC   PO444087   9.493   4.558  18.423 -0.2976 -0.1098 -0.0018
36089DOPC   GL144088   9.371   4.803  18.752  0.1695 -0.4244  0.2585
36089DOPC   GL244089   9.675   4.824  18.891 -0.1872 -0.1892 -0.3221
36089DOPC   C1A44090   9.326   4.790  19.205  0.2725 -0.1181 -0.0313
36089DOPC   D2A44091   9.310   4.612  19.642 -0.2744 -0.3515 -0.1653
36089DOPC   C3A44092   9.338   4.460  20.087 -0.3510 -0.0146 -0.2703
36089DOPC   C4A44093   9.320   4.443  20.553 -0.2140  0.1762  0.2338
36089DOPC   C1B44094   9.772   4.568  19.229 -0.2558 -0.0517 -0.2607
36089DOPC   D2B44095   9.811   4.547  19.739  0.0087 -0.2847  0.1189
36089DOPC   C3B44096  10.064   4.214  19.966 -0.1343 -0.1724  0.1597
36089DOPC   C4B44097  10.389   3.920  20.203  0.0769 -0.1297 -0.2201
36090DOPC   NC344098  14.958   6.254  12.155  0.1406  0.2987  0.1118
36090DOPC   PO444099  15.234   6.374  12.429  0.2108  0.1856  0.1068
36090DOPC   GL144100  15.579   6.209  12.675 -0.3006 -0.1981  0.0055
36090DOPC   GL244101  15.442   6.074  12.851  0.2027  0.0496 -0.0824
36090DOPC   C1A44102  15.914   6.202  12.965 -0.1292  0.2964 -0.1865
36090DOPC   D2A44103  15.977   6.123  13.471  0.1760  0.1805  0.1786
36090DOPC   C3A44104  16.436   6.001  13.369  0.3769 -0.1648 -0.0164
36090DOPC   C4A44105  16.931   6.023  13.496  0.0822 -0.1809 -0.0439
36090DOPC   C1B44106  15.629   5.776  13.107  0.0252 -0.1399  0.0456
36090DOPC   D2B44107  15.851   5.702  13.555 -0.0372 -0.3766 -0.3331
36090DOPC   C3B44108  16.238   5.858  13.839 -0.1884 -0.0187  0.1765
36090DOPC   C4B44109  16.574   5.937  14.228 -0.3077 -0.0015  0.1652
36091DOPC   NC344110  17.754   4.640  10.567 -0.1252 -0.2733  0.2607
36091DOPC   PO444111  18.052   4.601  10.832 -0.0499 -0.0875  0.0463
36091DOPC   GL144112  17.986   4.744  11.207  0.0599  0.0662  0.0198
36091DOPC   GL244113  17.969   4.479  11.370  0.2352 -0.3567 -0.3617
36091DOPC   C1A44114  18.242   5.107  11.341  0.4629 -0.1588  0.3031
36091DOPC   D2A44115  18.464   5.314  11.759  0.4358  0.1122 -0.0182
36091DOPC   C3A44116  18.590   5.228  12.196  0.2300  0.1110  0.1637
36091DOPC   C4A44117  18.748   5.001  12.670 -0.3377 -0.0098  0.0866
36091DOPC   C1B44118  18.041   4.623  11.786 -0.1284  0.1739 -0.0035
36091DOPC   D2B44119  18.351   4.710  12.145  0.1383  0.0909 -0.0814
36091DOPC   C3B44120  18.737   4.602  12.443 -0.1205 -0.1305 -0.1605
36091DOPC   C4B44121  19.180   4.434  12.459  0.0298 -0.1641  0.2198
36092DOPC   NC344122   2.426   6.665  13.026 -0.2458  0.0266 -0.0623
36092DOPC   PO444123   2.233   7.007  12.855 -0.1572 -0.1959 -0.2233
36092DOPC   GL144124   1.960   7.238  13.022 -0.0242  0.2290 -0.0242
36092DOPC   GL244125   1.754   7.216  12.861 -0.1575 -0.2311 -0.2857
36092DOPC   C1A44126   1.836   7.211  13.464 -0.1341 -0.2329 -0.1059
36092DOPC   D2A44127   1.556   7.072  13.875 -0.0089 -0.1460  0.0418
36092DOPC   C3A44128   1.140   7.133  14.200 -0.0571  0.0853 -0.0787
36092DOPC   C4A44129   0.795   7.154  14.552  0.2610  0.0022 -0.1166
36092DOPC   C1B44130   1.430   7.203  13.124  0.0130  0.1847 -0.0612
36092DOPC   D2B44131   1.069   7.321  13.369 -0.0435 -0.1531  0.1176
36092DOPC   C3B44132   0.751   7.305  13.698  0.0152  0.3660  0.0904
36092DOPC   C4B44133   0.514   7.261  14.152  0.0779 -0.1320  0.1385
36093DOPC   NC344134   4.490   1.186  16.251 -0.0042  0.0970 -0.0877
36093DOPC   PO444135   4.649   1.404  16.579  0.1906 -0.2221  0.1692
36093DOPC   GL144136   4.497   1.538  16.943  0.2152  0.0266 -0.0626
36093DOPC   GL244137   4.366   1.295  16.995 -0.0451  0.2603 -0.0541
36093DOPC   C1A44138   4.310   1.894  17.140  0.1972  0.2046 -0.0822
36093DOPC   D2A44139   4.070   2.262  17.432 -0.0928  0.2518  0.1616
36093DOPC   C3A44140   3.906   2.315  17.885 -0.0713  0.0331 -0.4528
36093DOPC   C4A44141   3.826   2.585  18.252  0.3872 -0.2919 -0.0824
36093DOPC   C1B44142   4.150   1.475  17.316  0.0550  0.2283  0.1676
36093DOPC   D2B44143   3.862   1.734  17.519 -0.0341  0.0784 -0.1229
36093DOPC   C3B44144   3.458   1.564  17.592 -0.0992 -0.1176  0.0408
36093DOPC   C4B44145   3.216   1.145  17.339 -0.2727 -0.2589  0.0579
36094DOPC   NC344146   5.888   1.445  17.113 -0.1935  0.1273  0.1721
36094DOPC   PO444147   5.990   1.676  17.404 -0.1786  0.1575 -0.0624
36094DOPC   GL144148   5.944   1.634  17.799  0.0665  0.1955  0.4425
36094DOPC   GL244149   6.145   1.691  17.946 -0.0999  0.1391 -0.1878
36094DOPC   C1A44150   5.692   1.637  18.140 -0.4365 -0.0246  0.3381
36094DOPC   D2A44151   5.380   1.630  18.525 -0.1304  0.1219 -0.1971
36094DOPC   C3A44152   5.096   1.512  18.921 -0.0752 -0.1156  0.1039
36094DOPC   C4A44153   4.806   1.533  19.323  0.1537 -0.0105  0.0108
36094DOPC   C1B44154   6.276   1.747  18.348  0.0338  0.4277  0.2034
36094DOPC   D2B44155   6.471   1.470  18.739 -0.0986 -0.2682  0.0130
36094DOPC   C3B44156   6.283   1.312  19.106  0.0269  0.1418 -0.2223
36094DOPC   C4B44157   6.136   1.306  19.520  0.2796  0.1449  0.0400
36095DOPC   NC344158  15.860   5.534  11.774 -0.1834  0.2963  0.0567
36095DOPC   PO444159  15.641   5.679  12.048 -0.0772 -0.4253  0.0607
36095DOPC   GL144160  15.998   5.536  12.226 -0.0244  0.4074 -0.2142
36095DOPC   GL244161  15.834   5.697  12.522  0.0435 -0.2585  0.0446
36095DOPC   C1A44162  16.365   5.404  12.492 -0.2061 -0.1305  0.0939
36095DOPC   D2A44163  16.712   5.184  12.727 -0.0569 -0.1230 -0.0757
36095DOPC   C3A44164  16.819   4.826  13.028  0.1210  0.1021  0.2895
36095DOPC   C4A44165  16.717   4.504  13.381 -0.0239  0.3875  0.0175
36095DOPC   C1B44166  16.062   5.625  12.900 -0.2824  0.0138  0.0394
36095DOPC   D2B44167  16.237   5.540  13.311  0.0369  0.1039 -0.1817
36095DOPC   C3B44168  16.648   5.576  13.574  0.0007  0.2270  0.0538
36095DOPC   C4B44169  16.983   5.279  13.727  0.1100 -0.0455  0.2172
36096DOPC   NC344170  14.530   3.717  13.011 -0.2463  0.5118  0.1622
36096DOPC   PO444171  14.728   3.381  13.115  0.3432  0.0127  0.0469
36096DOPC   GL144172  15.073   3.274  13.426 -0.0022  0.1920 -0.4133
36096DOPC   GL244173  15.213   3.525  13.320 -0.1755  0.2102  0.4542
36096DOPC   C1A44174  15.019   3.094  13.857 -0.0414  0.2640 -0.2962
36096DOPC   D2A44175  15.273   2.930  14.316  0.0251  0.3280  0.1564
36096DOPC   C3A44176  15.719   3.018  14.401  0.2834 -0.2159  0.1727
36096DOPC   C4A44177  16.066   3.339  14.231 -0.0146  0.1889  0.1715
36096DOPC   C1B44178  15.467   3.469  13.655 -0.2863 -0.0288  0.1890
36096DOPC   D2B44179  15.559   3.410  14.177  0.0207 -0.5495  0.1107
36096DOPC   C3B44180  15.778   3.544  14.619  0.0102  0.2817  0.1554
36096DOPC   C4B44181  15.876   3.709  15.131 -0.2094  0.0659  0.0579
36097DOPC   NC344182  23.320   2.277  10.907  0.0633  0.0535  0.1769
36097DOPC   PO444183  23.216   1.907  10.823 -0.0832 -0.0563 -0.0607
36097DOPC   GL144184  23.318   1.912  11.221  0.0101 -0.0696 -0.2343
36097DOPC   GL244185  23.007   1.987  11.257 -0.2620  0.2681  0.1289
36097DOPC   C1A44186  23.353   1.691  11.602 -0.0703  0.3634 -0.0055
36097DOPC   D2A44187  23.293   1.589  12.078  0.0764 -0.1152 -0.1277
36097DOPC   C3A44188  23.557   1.473  12.462  0.1274  0.0619 -0.0485
36097DOPC   C4A44189  23.647   1.130  12.804  0.0722  0.0589 -0.3357
36097DOPC   C1B44190  22.887   1.878  11.668 -0.1005  0.0000  0.1058
36097DOPC   D2B44191  22.791   1.746  12.134  0.0216 -0.1092  0.1748
36097DOPC   C3B44192  22.666   1.357  12.254 -0.0162  0.0819  0.1413
36097DOPC   C4B44193  22.510   0.992  12.547 -0.0766 -0.0644  0.0296
36098DOPC   NC344194  23.050   4.227   9.790  0.4495  0.1774  0.2932
36098DOPC   PO444195  23.206   4.486  10.018 -0.1241  0.1579  0.0476
36098DOPC   GL144196  23.214   4.486  10.398 -0.0392  0.2462  0.1009
36098DOPC   GL244197  22.908   4.486  10.368 -0.0404 -0.0736  0.1554
36098DOPC   C1A44198  23.358   4.644  10.785 -0.0887  0.0089 -0.3139
36098DOPC   D2A44199  23.334   4.950  11.180  0.4004 -0.2694  0.1966
36098DOPC   C3A44200  23.586   5.127  11.458 -0.3123  0.1589  0.1167
36098DOPC   C4A44201  23.872   5.207  11.936 -0.1046 -0.0869 -0.0550
36098DOPC   C1B44202  22.822   4.452  10.774 -0.2298  0.1111  0.1008
36098DOPC   D2B44203  22.649   4.353  11.258 -0.0029 -0.3147  0.0191
36098DOPC   C3B44204  22.701   4.371  11.737  0.0644  0.0113  0.0938
36098DOPC   C4B44205  22.908   4.539  12.149 -0.2153  0.1698 -0.0362
36099DOPC   NC344206  23.947   0.540  10.566 -0.1382 -0.2382 -0.1490
36099DOPC   PO444207  23.833   0.952  10.605  0.1411  0.0673  0.4847
36099DOPC   GL144208  23.624   1.137  10.899  0.2027  0.0785 -0.3577
36099DOPC   GL244209  23.760   1.228  11.057  0.2368 -0.3496  0.1119
36099DOPC   C1A44210  23.194   0.961  11.043  0.1580  0.0502  0.0095
36099DOPC   D2A44211  22.720   0.923  11.020  0.2967 -0.2567  0.1282
36099DOPC   C3A44212  22.390   0.869  11.377 -0.1267 -0.1286 -0.0328
36099DOPC   C4A44213  22.430   1.040  11.873  0.5356  0.2848  0.0753
36099DOPC   C1B44214  23.746   0.931  11.406 -0.1974  0.0206  0.1358
36099DOPC   D2B44215  23.808   0.431  11.669 -0.1811  0.0855 -0.2833
36099DOPC   C3B44216  23.638   0.577  12.050 -0.0772  0.0516  0.0800
36099DOPC   C4B44217  23.219   0.644  12.316 -0.2344 -0.2826 -0.1435
36100DOPC   NC344218   6.784   0.139  18.176 -0.0619 -0.2064  0.1616
36100DOPC   PO444219   6.591  -0.205  18.209  0.0237  0.2867 -0.1033
36100DOPC   GL144220   6.552  -0.200  18.633 -0.2677 -0.0515 -0.1393
36100DOPC   GL244221   6.554   0.051  18.702 -0.0782  0.0894 -0.0508
36100DOPC   C1A44222   6.305  -0.366  18.966  0.3612  0.1330 -0.1587
36100DOPC   D2A44223   6.300  -0.695  19.364  0.0059  0.1171 -0.0869
36100DOPC   C3A44224   5.974  -0.897  19.612 -0.1819  0.0479 -0.1247
36100DOPC   C4A44225   5.934  -1.299  19.911  0.0656 -0.2047  0.1125
36100DOPC   C1B44226   6.428   0.095  19.129  0.0233 -0.2602  0.1069
36100DOPC   D2B44227   6.291   0.205  19.550 -0.2051 -0.1387 -0.0666
36100DOPC   C3B44228   6.594   0.077  19.886 -0.2114  0.1155  0.0990
36100DOPC   C4B44229   7.060  -0.119  19.951  0.0145 -0.0213  0.0024
36101DOPC   NC344230   8.605   6.652  18.692  0.0833 -0.2013 -0.2243
36101DOPC   PO444231   8.239   6.496  18.718 -0.0859  0.1537  0.0861
36101DOPC   GL144232   8.078   6.323  19.053  0.0660  0.0682 -0.0054
36101DOPC   GL244233   7.962   6.597  19.000 -0.0033  0.0216 -0.1113
36101DOPC   C1A44234   8.375   6.367  19.376 -0.0810  0.2442  0.1631
36101DOPC   D2A44235   8.704   6.411  19.740 -0.0229 -0.2878 -0.1057
36101DOPC   C3A44236   8.968   6.577  20.030  0.0572 -0.2855 -0.1180
36101DOPC   C4A44237   9.358   6.866  20.284 -0.0004  0.0862 -0.2924
36101DOPC   C1B44238   7.980   6.895  19.254 -0.1921  0.1484  0.1969
36101DOPC   D2B44239   8.092   6.928  19.734 -0.1059 -0.2873  0.0186
36101DOPC   C3B44240   7.896   6.883  20.139  0.1586  0.0443 -0.2970
36101DOPC   C4B44241   7.629   6.900  20.540 -0.0754  0.0828  0.2012
36102DOPC   NC344242  11.319   1.980  17.781  0.1124  0.2840 -0.1509
36102DOPC   PO444243  11.261   1.614  17.756  0.0402 -0.0512  0.3985
36102DOPC   GL144244  11.500   1.434  17.988  0.0290 -0.1353 -0.0689
36102DOPC   GL244245  11.596   1.214  17.791  0.0661 -0.1698 -0.1990
36102DOPC   C1A44246  11.655   1.429  18.358 -0.0402 -0.2435 -0.0052
36102DOPC   D2A44247  11.888   1.337  18.761 -0.1042 -0.4497 -0.1149
36102DOPC   C3A44248  12.262   1.574  18.929 -0.2216  0.0424 -0.0696
36102DOPC   C4A44249  12.673   1.480  18.836 -0.1935  0.0447 -0.0347
36102DOPC   C1B44250  11.852   0.837  17.947  0.1551 -0.1807  0.1087
36102DOPC   D2B44251  12.119   0.515  18.275 -0.2167 -0.0596  0.0380
36102DOPC   C3B44252  12.241   0.644  18.717 -0.1634  0.1237 -0.0726
36102DOPC   C4B44253  12.351   0.569  19.206  0.2978 -0.0182 -0.0756
36103DOPC   NC344254   3.959   6.679  15.158 -0.1601 -0.1616 -0.1112
36103DOPC   PO444255   4.018   6.997  15.389 -0.3221 -0.2229 -0.1321
36103DOPC   GL144256   3.676   7.068  15.519 -0.2340  0.2126  0.3089
36103DOPC   GL244257   3.576   6.839  15.533  0.2162 -0.3051  0.1331
36103DOPC   C1A44258   3.497   7.331  15.845  0.3581  0.4074 -0.1186
36103DOPC   D2A44259   3.365   7.200  16.308 -0.0350  0.1139 -0.2134
36103DOPC   C3A44260   2.869   7.252  16.388  0.2396  0.1887 -0.1590
36103DOPC   C4A44261   2.483   7.536  16.538  0.0248 -0.2479  0.0563
36103DOPC   C1B44262   3.128   6.828  15.520 -0.0833  0.0132 -0.2138
36103DOPC   D2B44263   2.644   6.628  15.369  0.0987  0.0801 -0.1206
36103DOPC   C3B44264   2.261   6.786  15.508 -0.1350  0.0014 -0.0942
36103DOPC   C4B44265   1.908   7.097  15.527  0.0684 -0.0969  0.0156
36104DOPC   NC344266   8.604   4.791  18.667  0.0576  0.0316 -0.0704
36104DOPC   PO444267   8.917   4.963  18.618 -0.0824  0.3253  0.1246
36104DOPC   GL144268   8.956   4.963  18.963 -0.2301  0.1268  0.0386
36104DOPC   GL244269   8.900   4.618  19.001 -0.0958 -0.6743 -0.0883
36104DOPC   C1A44270   8.896   5.119  19.377 -0.2873 -0.0636  0.4100
36104DOPC   D2A44271   8.909   5.407  19.763 -0.2260 -0.2305  0.3449
36104DOPC   C3A44272   8.639   5.314  20.090 -0.0477 -0.0408  0.5224
36104DOPC   C4A44273   8.355   5.042  20.426 -0.2292  0.0904  0.0669
36104DOPC   C1B44274   8.838   4.619  19.523 -0.0460  0.3095  0.0281
36104DOPC   D2B44275   8.841   4.382  19.993  0.3634 -0.0746 -0.1671
36104DOPC   C3B44276   8.788   4.564  20.427  0.2090 -0.1649 -0.0776
36104DOPC   C4B44277   8.627   4.831  20.772  0.0381  0.0068  0.1877
36105DOPC   NC344278  11.151   1.117  17.694 -0.2875  0.0786 -0.0249
36105DOPC   PO444279  10.955   1.267  18.011 -0.0503 -0.0488 -0.2420
36105DOPC   GL144280  11.154   1.365  18.307 -0.2262 -0.3892  0.6060
36105DOPC   GL244281  11.265   1.683  18.274  0.0191  0.0978  0.1377
36105DOPC   C1A44282  11.329   1.066  18.567  0.0792 -0.1085 -0.0470
36105DOPC   D2A44283  11.717   0.901  18.845  0.0550  0.1851  0.1337
36105DOPC   C3A44284  11.744   0.695  19.243 -0.0653 -0.2398 -0.1668
36105DOPC   C4A44285  11.708   0.752  19.724 -0.0663 -0.2065  0.0241
36105DOPC   C1B44286  11.273   1.521  18.688  0.2222 -0.0117 -0.0572
36105DOPC   D2B44287  11.526   1.350  19.071  0.1181  0.0135  0.1760
36105DOPC   C3B44288  11.771   1.204  19.315 -0.3860  0.0759 -0.3126
36105DOPC   C4B44289  12.083   1.048  19.601  0.1990  0.1200  0.1498
36106DOPC   NC344290   4.824   5.912  15.719 -0.0554 -0.1262  0.1145
36106DOPC   PO444291   4.493   6.008  15.536 -0.3779  0.2008 -0.1928
36106DOPC   GL144292   4.141   6.005  15.658 -0.3623  0.1460 -0.0289
36106DOPC   GL244293   4.269   5.928  15.958 -0.0569 -0.2252 -0.1377
36106DOPC   C1A44294   3.709   5.994  15.540 -0.1905  0.1275 -0.0817
36106DOPC   D2A44295   3.199   6.030  15.468  0.1838 -0.2922 -0.0169
36106DOPC   C3A44296   3.017   6.346  15.814 -0.1296 -0.1975 -0.3188
36106DOPC   C4A44297   2.703   6.484  16.161 -0.0535  0.0062  0.0750
36106DOPC   C1B44298   3.942   5.824  16.311 -0.0004 -0.2309  0.2040
36106DOPC   D2B44299   3.451   5.741  16.514 -0.1270 -0.3245 -0.1300
36106DOPC   C3B44300   3.004   5.781  16.427 -0.0816  0.0710 -0.0794
36106DOPC   C4B44301   2.647   5.588  16.161  0.0449  0.1410  0.0657
36107DOPC   NC344302  16.021   3.895  11.468 -0.3864 -0.0606  0.1137
36107DOPC   PO444303  16.404   3.739  11.358  0.0849 -0.3289  0.1421
36107DOPC   GL144304  16.785   3.813  11.652 -0.0165 -0.2265 -0.7887
36107DOPC   GL244305  16.609   3.715  11.848  0.1880  0.3364 -0.3949
36107DOPC   C1A44306  16.918   4.183  11.707 -0.4659 -0.1523  0.2260
36107DOPC   D2A44307  17.130   4.607  11.689 -0.1747 -0.1233  0.1070
36107DOPC   C3A44308  17.445   4.705  12.047 -0.2309 -0.2507  0.2803
36107DOPC   C4A44309  17.857   4.855  12.296  0.0423  0.0765  0.0583
36107DOPC   C1B44310  16.748   3.920  12.188 -0.2569 -0.2010 -0.0507
36107DOPC   D2B44311  16.911   3.846  12.663 -0.2832  0.1971  0.1164
36107DOPC   C3B44312  16.908   3.590  13.016  0.0565  0.2232 -0.0621
36107DOPC   C4B44313  16.859   3.231  13.329 -0.0173 -0.2651  0.0720
36108DOPC   NC344314   0.276   5.324  11.252 -0.1681 -0.2466 -0.0628
36108DOPC   PO444315   0.012   5.561  11.054  0.1293 -0.1818  0.0774
36108DOPC   GL144316  -0.416   5.363  11.267  0.2446  0.2153  0.1588
36108DOPC   GL244317  -0.178   5.514  11.470  0.1176  0.4461  0.2113
36108DOPC   C1A44318  -0.717   5.647  11.288  0.3086 -0.0288  0.1079
36108DOPC   D2A44319  -0.796   6.133  11.292  0.2686  0.0404 -0.0805
36108DOPC   C3A44320  -1.136   6.352  11.048 -0.1264  0.2045 -0.1269
36108DOPC   C4A44321  -1.270   6.693  10.723 -0.0877 -0.5280  0.0079
36108DOPC   C1B44322  -0.307   5.628  11.901 -0.3393  0.0540 -0.0512
36108DOPC   D2B44323  -0.558   5.358  12.273  0.0005  0.2523  0.0668
36108DOPC   C3B44324  -0.569   5.353  12.725  0.1772 -0.1652 -0.0403
36108DOPC   C4B44325  -0.323   5.305  13.120 -0.0800 -0.0057 -0.1337
36109DOPC   NC344326   0.792   7.409  11.802 -0.0923 -0.0242 -0.0483
36109DOPC   PO444327   0.664   7.792  11.747 -0.2207 -0.1307 -0.1590
36109DOPC   GL144328   0.653   8.087  12.119  0.1897 -0.1238 -0.0557
36109DOPC   GL244329   0.570   8.277  11.956  0.1214  0.0022 -0.0674
36109DOPC   C1A44330   0.273   7.890  12.318 -0.1909 -0.1466 -0.0226
36109DOPC   D2A44331  -0.134   7.955  12.530 -0.4559 -0.0696 -0.2144
36109DOPC   C3A44332  -0.269   7.571  12.814 -0.0448  0.0790  0.2712
36109DOPC   C4A44333  -0.239   7.618  13.251 -0.1932 -0.2505 -0.0310
36109DOPC   C1B44334   0.152   8.341  12.019 -0.0909 -0.2421  0.0087
36109DOPC   D2B44335  -0.326   8.230  11.991  0.2986 -0.1579  0.2254
36109DOPC   C3B44336  -0.167   7.752  12.020 -0.0756 -0.2108  0.1051
36109DOPC   C4B44337  -0.030   7.394  12.306 -0.3710  0.0013 -0.4001
36110DOPC   NC344338  15.865   6.531  11.974 -0.4738 -0.0720  0.0002
36110DOPC   PO444339  16.274   6.708  12.000  0.0084  0.1346 -0.1364
36110DOPC   GL144340  16.640   6.744  12.219 -0.1673  0.3186 -0.3055
36110DOPC   GL244341  16.790   6.485  12.238 -0.1350  0.1745 -0.4981
36110DOPC   C1A44342  16.771   6.921  12.610  0.0439 -0.0530  0.2467
36110DOPC   D2A44343  16.891   7.228  13.023 -0.0544  0.2532  0.0334
36110DOPC   C3A44344  17.261   7.308  13.276 -0.0963  0.1149  0.1603
36110DOPC   C4A44345  17.532   7.305  13.658 -0.1131 -0.0507 -0.1771
36110DOPC   C1B44346  17.118   6.493  12.502  0.0381 -0.2176  0.1161
36110DOPC   D2B44347  17.501   6.502  12.901 -0.0376 -0.1826  0.1498
36110DOPC   C3B44348  17.320   6.365  13.328  0.1448  0.0861 -0.3315
36110DOPC   C4B44349  17.234   6.358  13.816 -0.0630  0.2962  0.1005
36111DOPC   NC344350  23.319   1.322  10.583 -0.1338  0.0237  0.1530
36111DOPC   PO444351  23.044   1.555  10.393  0.2997 -0.1538 -0.1371
36111DOPC   GL144352  22.835   1.613  10.716 -0.1095 -0.2360  0.3033
36111DOPC   GL244353  22.981   1.446  10.896 -0.2277  0.1540  0.0489
36111DOPC   C1A44354  22.574   1.872  10.855 -0.1978  0.2624 -0.1660
36111DOPC   D2A44355  22.338   1.856  11.309  0.1202  0.0612 -0.0292
36111DOPC   C3A44356  22.125   2.201  11.547  0.3533 -0.1000  0.2898
36111DOPC   C4A44357  22.276   2.385  11.982  0.1247  0.1324 -0.0482
36111DOPC   C1B44358  22.932   1.495  11.320 -0.1577  0.1647 -0.0550
36111DOPC   D2B44359  22.934   1.356  11.811 -0.0161  0.1095 -0.1264
36111DOPC   C3B44360  22.918   0.973  11.645 -0.2220 -0.0980  0.1055
36111DOPC   C4B44361  22.910   0.518  11.399  0.1260 -0.0271 -0.1662
36112DOPC   NC344362   0.632   3.791  11.386  0.1842 -0.1219 -0.1604
36112DOPC   PO444363   0.773   4.135  11.371 -0.2018 -0.1711  0.3058
36112DOPC   GL144364   0.605   4.489  11.677  0.5916 -0.0085 -0.0386
36112DOPC   GL244365   0.698   4.189  11.780 -0.0861 -0.0504 -0.0434
36112DOPC   C1A44366   0.585   4.689  12.125  0.0452  0.4323 -0.0179
36112DOPC   D2A44367   0.379   4.755  12.574  0.0933 -0.0167 -0.1527
36112DOPC   C3A44368   0.057   4.664  12.892 -0.0859  0.0951  0.1372
36112DOPC   C4A44369  -0.413   4.825  12.961 -0.1996 -0.1452 -0.0500
36112DOPC   C1B44370   0.574   4.169  12.223 -0.0835 -0.1569  0.0216
36112DOPC   D2B44371   0.342   3.861  12.536 -0.1587 -0.0482 -0.1537
36112DOPC   C3B44372  -0.012   3.806  12.841  0.1737  0.1347 -0.2432
36112DOPC   C4B44373  -0.317   3.770  13.217 -0.1219  0.0985 -0.1401
36113DOPC   NC344374  24.698   4.833  10.651 -0.1441 -0.1059 -0.3901
36113DOPC   PO444375  24.476   4.944  10.979 -0.0288 -0.1479  0.4149
36113DOPC   GL144376  24.496   4.654  11.402 -0.2308  0.2550 -0.1517
36113DOPC   GL244377  24.242   4.641  11.297 -0.0127 -0.0087 -0.1228
36113DOPC   C1A44378  24.776   4.561  11.739 -0.0896  0.1051 -0.2633
36113DOPC   D2A44379  24.611   4.380  12.174 -0.1025  0.2076  0.1642
36113DOPC   C3A44380  24.266   4.277  12.485  0.1960  0.1668 -0.0000
36113DOPC   C4A44381  23.931   4.066  12.808 -0.1952  0.2149  0.1243
36113DOPC   C1B44382  23.929   4.722  11.593  0.0974 -0.1099  0.2318
36113DOPC   D2B44383  23.601   4.800  11.948  0.0462 -0.2693 -0.1441
36113DOPC   C3B44384  23.540   5.085  12.340  0.1360 -0.0054 -0.0949
36113DOPC   C4B44385  23.542   4.969  12.810 -0.1483 -0.3084 -0.3225
36114DOPC   NC344386  12.224   7.045  16.665 -0.3466  0.0220 -0.2452
36114DOPC   PO444387  11.919   7.088  16.933 -0.0479 -0.2222  0.1497
36114DOPC   GL144388  12.014   7.220  17.334 -0.0960  0.0919  0.0142
36114DOPC   GL244389  12.130   7.440  17.298  0.0291  0.2070  0.1386
36114DOPC   C1A44390  12.240   7.206  17.789 -0.0531  0.1666 -0.2497
36114DOPC   D2A44391  12.700   7.158  18.093  0.2171 -0.1847  0.0840
36114DOPC   C3A44392  12.848   7.469  18.479  0.0807 -0.1040 -0.1740
36114DOPC   C4A44393  12.563   7.377  18.890  0.3533 -0.2883 -0.0218
36114DOPC   C1B44394  12.374   7.651  17.602  0.0107  0.2778  0.0227
36114DOPC   D2B44395  12.729   7.699  17.933 -0.0474 -0.1041  0.1036
36114DOPC   C3B44396  13.147   7.563  18.150 -0.1802 -0.0866  0.2748
36114DOPC   C4B44397  13.596   7.462  18.067 -0.1827  0.1790  0.1948
36115DOPC   NC344398   6.901   6.536  18.085 -0.0041  0.3667 -0.0149
36115DOPC   PO444399   6.654   6.252  18.217 -0.1103  0.0982  0.0588
36115DOPC   GL144400   6.545   6.269  18.615  0.0775 -0.0448 -0.2556
36115DOPC   GL244401   6.250   6.497  18.570  0.2477  0.0355 -0.0959
36115DOPC   C1A44402   6.701   6.401  18.969 -0.0492 -0.2367  0.0435
36115DOPC   D2A44403   6.901   6.707  19.269  0.3592  0.1525  0.0252
36115DOPC   C3A44404   6.790   7.143  19.353  0.0139  0.0337  0.1444
36115DOPC   C4A44405   6.665   7.600  19.458 -0.3721  0.2304 -0.2702
36115DOPC   C1B44406   6.093   6.896  18.760  0.2329  0.0081 -0.2788
36115DOPC   D2B44407   5.858   7.208  19.059  0.1680  0.0455 -0.0887
36115DOPC   C3B44408   5.486   7.246  19.364  0.0559  0.0788 -0.1136
36115DOPC   C4B44409   5.143   7.046  19.656  0.1756 -0.1520  0.2706
36116DOPC   NC344410   5.257   5.520  16.727  0.1075 -0.0211 -0.0867
36116DOPC   PO444411   5.263   5.894  16.904  0.1174  0.2780 -0.1665
36116DOPC   GL144412   5.041   5.954  17.319 -0.0733 -0.1844  0.0590
36116DOPC   GL244413   4.820   5.901  17.124  0.2408 -0.1383  0.0283
36116DOPC   C1A44414   4.713   6.137  17.592 -0.2901 -0.0601  0.2557
36116DOPC   D2A44415   4.238   6.229  17.733  0.1841 -0.0626  0.0449
36116DOPC   C3A44416   4.020   6.579  17.885 -0.2014  0.0880 -0.2109
36116DOPC   C4A44417   3.862   7.043  17.976  0.1305 -0.1138  0.0827
36116DOPC   C1B44418   4.429   6.070  17.229 -0.0428  0.3161  0.1726
36116DOPC   D2B44419   3.955   6.100  17.320  0.0494 -0.3450  0.0021
36116DOPC   C3B44420   3.812   6.511  17.481  0.1772 -0.1993  0.1866
36116DOPC   C4B44421   3.495   6.790  17.708 -0.2934  0.1200 -0.0088
36117DOPC   NC344422  11.617   1.434  16.972  0.2496 -0.0299  0.0437
36117DOPC   PO444423  11.766   1.797  16.894  0.3392  0.0060  0.0944
36117DOPC   GL144424  11.923   1.910  17.269  0.2827 -0.0085  0.2504
36117DOPC   GL244425  11.690   2.056  17.360 -0.5304 -0.0559  0.1287
36117DOPC   C1A44426  12.199   1.843  17.636  0.1276  0.2612  0.4034
36117DOPC   D2A44427  12.206   1.912  18.118 -0.2190 -0.0491  0.0318
36117DOPC   C3A44428  12.482   1.941  18.558  0.1554  0.1223 -0.0371
36117DOPC   C4A44429  12.541   1.955  19.079  0.1683  0.2247 -0.0828
36117DOPC   C1B44430  11.771   2.108  17.814 -0.0621  0.0824 -0.1512
36117DOPC   D2B44431  11.653   1.923  18.328  0.1609 -0.0992 -0.1385
36117DOPC   C3B44432  11.950   1.964  18.718  0.0276  0.1268  0.1924
36117DOPC   C4B44433  12.018   2.303  19.105  0.1821 -0.1475  0.0165
36118DOPC   NC344434   8.633   5.713  18.590 -0.1909 -0.0320  0.0302
36118DOPC   PO444435   8.383   6.005  18.585  0.3110 -0.1935 -0.0893
36118DOPC   GL144436   8.408   6.031  19.039  0.3750  0.2410  0.1590
36118DOPC   GL244437   8.616   5.950  18.995 -0.0415 -0.1258 -0.0859
36118DOPC   C1A44438   8.164   5.908  19.385  0.0933  0.1534  0.2413
36118DOPC   D2A44439   8.115   5.983  19.876 -0.0110  0.0315  0.0229
36118DOPC   C3A44440   8.237   6.146  20.300 -0.0201  0.1829 -0.3611
36118DOPC   C4A44441   8.594   6.331  20.566 -0.1238 -0.2607  0.0659
36118DOPC   C1B44442   8.719   6.010  19.414 -0.1773  0.1138 -0.1043
36118DOPC   D2B44443   8.693   5.894  19.912  0.2159  0.0395  0.1812
36118DOPC   C3B44444   8.819   5.881  20.318 -0.3345  0.1583 -0.1253
36118DOPC   C4B44445   8.849   5.876  20.797  0.1971  0.2178  0.0268
36119DOPC   NC344446  10.491   4.068  18.291  0.2802  0.1303  0.0027
36119DOPC   PO444447  10.308   3.712  18.374 -0.3902  0.3180 -0.1333
36119DOPC   GL144448  10.479   3.321  18.633 -0.4670  0.3116 -0.1916
36119DOPC   GL244449  10.201   3.272  18.615  0.1867 -0.3355 -0.0241
36119DOPC   C1A44450  10.585   3.517  18.962  0.0793  0.1502 -0.2641
36119DOPC   D2A44451  10.290   3.524  19.406  0.1163 -0.0363 -0.2369
36119DOPC   C3A44452  10.346   3.231  19.724  0.2079 -0.2896 -0.5554
36119DOPC   C4A44453  10.604   2.990  20.060  0.5104 -0.0417 -0.1550
36119DOPC   C1B44454  10.070   3.459  19.017 -0.0541  0.2172 -0.0976
36119DOPC   D2B44455   9.683   3.644  19.271 -0.1295  0.0268 -0.0407
36119DOPC   C3B44456   9.576   3.643  19.710  0.2102  0.1334  0.1156
36119DOPC   C4B44457   9.674   3.527  20.183 -0.1165 -0.2374 -0.0215
36120DOPC   NC344458  17.619   7.702  11.303 -0.0932 -0.0079 -0.0264
36120DOPC   PO444459  17.746   7.462  11.603  0.0537  0.0585 -0.2399
36120DOPC   GL144460  17.696   7.407  12.030  0.1797  0.0605  0.1450
36120DOPC   GL244461  17.956   7.338  12.092  0.0458  0.1615 -0.0298
36120DOPC   C1A44462  17.565   7.621  12.342 -0.1381 -0.0446 -0.0870
36120DOPC   D2A44463  17.908   7.823  12.662 -0.0115 -0.2396  0.3268
36120DOPC   C3A44464  17.823   7.990  13.089  0.0563  0.1527 -0.2672
36120DOPC   C4A44465  17.771   8.246  13.538 -0.0366  0.1297 -0.1229
36120DOPC   C1B44466  17.881   7.321  12.557  0.0560  0.2859  0.1055
36120DOPC   D2B44467  17.934   7.072  12.943 -0.0630 -0.1988 -0.0680
36120DOPC   C3B44468  17.666   6.929  13.298  0.0518  0.1325  0.2165
36120DOPC   C4B44469  17.238   6.872  13.509  0.1731 -0.0163  0.0882
36121DOPC   NC344470   3.608   7.331  15.115 -0.0139  0.1632  0.2228
36121DOPC   PO444471   3.823   7.071  14.880 -0.0107  0.3782  0.0009
36121DOPC   GL144472   3.492   6.759  15.105  0.2287  0.1634 -0.3435
36121DOPC   GL244473   3.319   6.993  15.054 -0.0329  0.3368  0.4684
36121DOPC   C1A44474   3.461   6.469  15.370  0.0904  0.0722 -0.2394
36121DOPC   D2A44475   3.511   6.403  15.799 -0.0342 -0.1616  0.2447
36121DOPC   C3A44476   3.771   6.299  16.156  0.0901 -0.0011  0.0476
36121DOPC   C4A44477   3.956   6.266  16.551  0.0402 -0.1837  0.2927
36121DOPC   C1B44478   3.139   7.277  15.390 -0.2455  0.0296  0.0053
36121DOPC   D2B44479   2.965   7.278  15.834  0.4338  0.0705 -0.0385
36121DOPC   C3B44480   2.532   7.450  15.942  0.2974  0.2814  0.1823
36121DOPC   C4B44481   2.122   7.576  15.877  0.0142 -0.0923  0.0500
36122DOPC   NC344482   2.901   3.963  12.703 -0.0428  0.1122  0.0372
36122DOPC   PO444483   2.603   3.673  12.664 -0.1890  0.2231 -0.1869
36122DOPC   GL144484   2.350   3.770  12.961 -0.0829  0.1348 -0.0856
36122DOPC   GL244485   2.347   3.507  13.078 -0.0879  0.3619 -0.1783
36122DOPC   C1A44486   2.208   4.205  13.125  0.1531 -0.0215  0.1880
36122DOPC   D2A44487   1.982   4.602  13.339  0.1260  0.1017 -0.0677
36122DOPC   C3A44488   1.593   4.635  13.560  0.0282  0.0861 -0.0188
36122DOPC   C4A44489   1.229   4.486  13.841 -0.0324 -0.0390 -0.0356
36122DOPC   C1B44490   2.344   3.695  13.458 -0.2066  0.1152  0.1376
36122DOPC   D2B44491   2.349   4.098  13.643  0.2176 -0.1009 -0.0214
36122DOPC   C3B44492   1.960   4.317  13.806  0.0035 -0.0590 -0.1055
36122DOPC   C4B44493   1.658   4.598  14.117 -0.0506 -0.4415 -0.1520
36123DOPC   NC344494  22.738   1.970  10.397 -0.0696  0.0040 -0.1073
36123DOPC   PO444495  22.573   1.619  10.227 -0.0530 -0.6427 -0.1287
36123DOPC   GL144496  22.300   1.314  10.574  0.0667 -0.0730  0.0556
36123DOPC   GL244497  22.101   1.548  10.472 -0.0672 -0.0744 -0.2097
36123DOPC   C1A44498  22.491   1.383  10.960 -0.1638  0.0878 -0.2642
36123DOPC   D2A44499  22.489   1.434  11.494 -0.0514  0.3787  0.1123
36123DOPC   C3A44500  22.420   1.824  11.799 -0.1109  0.0229 -0.0745
36123DOPC   C4A44501  22.427   2.019  12.304 -0.1474 -0.1633  0.1722
36123DOPC   C1B44502  22.004   1.767  10.833  0.1794  0.3447 -0.0384
36123DOPC   D2B44503  21.813   1.814  11.296  0.1839  0.1773 -0.1242
36123DOPC   C3B44504  21.918   1.805  11.772  0.1944  0.2040  0.1625
36123DOPC   C4B44505  21.745   1.545  12.199  0.0017 -0.2999 -0.0568
36124DOPC   NC344506   1.519   0.160  12.734  0.0446 -0.3235 -0.3168
36124DOPC   PO444507   1.640   0.539  12.625  0.0977  0.2960  0.2019
36124DOPC   GL144508   1.224   0.695  12.716 -0.0658  0.2129 -0.1691
36124DOPC   GL244509   1.408   0.986  12.722  0.0041  0.1595  0.1736
36124DOPC   C1A44510   1.228   0.589  13.184  0.2175 -0.0206 -0.1032
36124DOPC   D2A44511   1.184   0.429  13.634 -0.2454 -0.1843 -0.2052
36124DOPC   C3A44512   1.239   0.655  14.091  0.1027 -0.0887 -0.2034
36124DOPC   C4A44513   1.355   0.560  14.604 -0.0964  0.1071  0.0955
36124DOPC   C1B44514   1.090   1.102  12.979  0.4341  0.0039  0.0101
36124DOPC   D2B44515   0.868   1.227  13.444  0.1206 -0.1817  0.0345
36124DOPC   C3B44516   0.602   1.310  13.819  0.2863 -0.0160 -0.1879
36124DOPC   C4B44517   0.544   1.445  14.330 -0.2405  0.0560 -0.1577
36125DOPC   NC344518   5.237   6.410  17.021 -0.1996 -0.2036  0.0928
36125DOPC   PO444519   5.411   6.199  17.276  0.2370 -0.0549 -0.2815
36125DOPC   GL144520   5.318   5.987  17.718 -0.0328  0.1303  0.4364
36125DOPC   GL244521   5.336   6.234  17.782 -0.0604 -0.1866 -0.1680
36125DOPC   C1A44522   5.194   5.770  18.097 -0.1615 -0.1324 -0.0708
36125DOPC   D2A44523   4.949   5.669  18.492  0.0685 -0.0606  0.0186
36125DOPC   C3A44524   4.828   5.849  18.995 -0.1620 -0.0104  0.0027
36125DOPC   C4A44525   4.509   6.117  19.120  0.0594  0.1303 -0.0107
36125DOPC   C1B44526   5.066   6.266  18.100  0.1454  0.1121 -0.0175
36125DOPC   D2B44527   4.807   6.213  18.526 -0.1939  0.0660  0.0295
36125DOPC   C3B44528   4.337   6.099  18.669 -0.0762 -0.3169 -0.1330
36125DOPC   C4B44529   3.953   6.042  18.912 -0.0141 -0.1101  0.1816
36126DOPC   NC344530  12.251   2.393  16.446 -0.1478 -0.2057 -0.1000
36126DOPC   PO444531  12.146   2.763  16.489  0.1848 -0.0212  0.0066
36126DOPC   GL144532  12.510   2.930  16.619  0.1091 -0.0175  0.0329
36126DOPC   GL244533  12.662   2.772  16.469 -0.0215 -0.1786  0.1273
36126DOPC   C1A44534  12.692   3.234  16.881 -0.1332  0.1859 -0.0987
36126DOPC   D2A44535  13.095   3.161  17.073  0.1033 -0.0966 -0.0943
36126DOPC   C3A44536  13.458   3.000  17.081  0.0798 -0.1310  0.1970
36126DOPC   C4A44537  13.492   2.505  17.301 -0.0950 -0.0135 -0.0743
36126DOPC   C1B44538  12.857   2.549  16.824 -0.1499 -0.0523 -0.1560
36126DOPC   D2B44539  13.167   2.184  17.021  0.0558 -0.3802 -0.3457
36126DOPC   C3B44540  13.096   2.057  17.442  0.2329  0.3630 -0.3165
36126DOPC   C4B44541  13.040   2.031  17.912 -0.2592  0.3736  0.2230
36127DOPC   NC344542   2.199   2.922  12.587 -0.0326 -0.4547  0.1444
36127DOPC   PO444543   2.457   3.188  12.770  0.2924  0.2772  0.1514
36127DOPC   GL144544   2.531   3.108  13.166  0.1163 -0.2707 -0.1086
36127DOPC   GL244545   2.236   3.045  13.119  0.1019 -0.1280  0.1873
36127DOPC   C1A44546   2.444   3.215  13.603  0.2714  0.0577  0.1402
36127DOPC   D2A44547   2.283   3.061  14.017  0.0396 -0.1136 -0.0629
36127DOPC   C3A44548   1.850   2.952  14.233 -0.1658 -0.0774  0.1491
36127DOPC   C4A44549   1.553   2.809  14.638 -0.2226 -0.0749  0.4598
36127DOPC   C1B44550   1.996   3.280  13.410 -0.0438  0.2441  0.0438
36127DOPC   D2B44551   1.860   3.476  13.846  0.2330  0.1460 -0.3463
36127DOPC   C3B44552   1.801   3.885  13.992  0.2613 -0.0206  0.3393
36127DOPC   C4B44553   1.515   4.144  14.117  0.0102 -0.0240 -0.0066
36128DOPC   NC344554   5.840   4.145  18.224  0.0148 -0.3637 -0.0477
36128DOPC   PO444555   5.986   3.889  17.863  0.1256  0.0312 -0.0258
36128DOPC   GL144556   5.972   3.565  18.183  0.1588  0.1915 -0.1769
36128DOPC   GL244557   6.139   3.704  18.333  0.0842 -0.2822 -0.1410
36128DOPC   C1A44558   5.523   3.557  18.329 -0.3798  0.1602 -0.0865
36128DOPC   D2A44559   5.020   3.491  18.585 -0.1967  0.1757  0.0581
36128DOPC   C3A44560   4.997   3.455  19.137 -0.3740 -0.1155 -0.1470
36128DOPC   C4A44561   4.927   3.658  19.557 -0.3268 -0.0581 -0.1505
36128DOPC   C1B44562   6.073   3.813  18.665 -0.1504  0.2429  0.1573
36128DOPC   D2B44563   6.052   3.531  19.099 -0.0895  0.1819  0.4391
36128DOPC   C3B44564   5.796   3.150  19.090  0.1376  0.1043 -0.1229
36128DOPC   C4B44565   5.695   2.632  19.112  0.1720 -0.0682  0.2538
36129DOPC   NC344566  21.155   3.918  10.233 -0.0473  0.3786  0.0666
36129DOPC   PO444567  21.400   4.079  10.006  0.1996 -0.0749 -0.0922
36129DOPC   GL144568  21.748   4.254  10.200 -0.1148  0.1009  0.2169
36129DOPC   GL244569  21.703   4.525  10.341 -0.3067 -0.0312 -0.0418
36129DOPC   C1A44570  21.919   4.100  10.596 -0.1252 -0.1296 -0.2633
36129DOPC   D2A44571  22.149   4.182  11.097 -0.0284 -0.2504 -0.1651
36129DOPC   C3A44572  22.214   4.143  11.563 -0.0043  0.0680  0.2149
36129DOPC   C4A44573  22.353   4.171  12.066  0.0693  0.3278  0.1002
36129DOPC   C1B44574  22.013   4.682  10.548  0.1654  0.1678  0.3611
36129DOPC   D2B44575  22.307   4.680  10.924  0.2342 -0.1284  0.2022
36129DOPC   C3B44576  22.305   4.712  11.406 -0.2371 -0.1890 -0.0617
36129DOPC   C4B44577  22.086   4.593  11.811  0.3282  0.1583  0.2598
36130DOPC   NC344578   9.851   1.532  18.590 -0.2677 -0.1486  0.2942
36130DOPC   PO444579   9.479   1.456  18.627  0.2241 -0.0635 -0.0853
36130DOPC   GL144580   9.522   1.231  18.936 -0.2186 -0.0106  0.1733
36130DOPC   GL244581   9.316   1.398  19.079  0.0625 -0.4157  0.4189
36130DOPC   C1A44582   9.794   1.132  19.256  0.2180 -0.0906 -0.0390
36130DOPC   D2A44583  10.150   1.105  19.644 -0.3328  0.0403  0.2448
36130DOPC   C3A44584   9.946   0.956  20.050  0.0515  0.0661 -0.2677
36130DOPC   C4A44585   9.997   0.567  20.307 -0.3519 -0.1713 -0.2247
36130DOPC   C1B44586   9.385   1.396  19.456  0.0124  0.1611  0.4245
36130DOPC   D2B44587   9.642   1.236  19.765  0.1014  0.0442 -0.0001
36130DOPC   C3B44588   9.476   1.154  20.163 -0.3499  0.0419  0.3955
36130DOPC   C4B44589   9.394   1.201  20.650 -0.0254 -0.0564  0.1886
36131DOPC   NC344590   7.263   4.162  18.314  0.1418  0.2034  0.3781
36131DOPC   PO444591   7.176   4.559  18.462  0.3069  0.0849  0.0099
36131DOPC   GL144592   6.957   4.521  18.869  0.1714  0.0671  0.2384
36131DOPC   GL244593   7.035   4.272  18.892  0.2292  0.5116  0.1450
36131DOPC   C1A44594   6.797   4.817  19.147  0.1263  0.4676  0.2677
36131DOPC   D2A44595   6.452   4.980  19.409  0.1389 -0.0078 -0.1957
36131DOPC   C3A44596   6.479   5.094  19.888  0.0398  0.0641 -0.1177
36131DOPC   C4A44597   6.438   5.024  20.408 -0.0011  0.1328 -0.1897
36131DOPC   C1B44598   7.142   4.212  19.277  0.0393 -0.0082  0.0521
36131DOPC   D2B44599   7.267   4.018  19.709  0.1018  0.0115 -0.2035
36131DOPC   C3B44600   7.501   4.297  20.035 -0.1050 -0.0888  0.0223
36131DOPC   C4B44601   7.862   4.514  20.272 -0.1593 -0.0182 -0.1885
36132DOPC   NC344602  13.216   0.929  15.841  0.1066 -0.1266 -0.1183
36132DOPC   PO444603  12.970   0.819  16.163 -0.0806  0.0873 -0.0568
36132DOPC   GL144604  13.198   0.712  16.489 -0.0330  0.1826 -0.0754
36132DOPC   GL244605  13.242   0.444  16.453  0.1311 -0.0190 -0.0737
36132DOPC   C1A44606  13.433   0.903  16.711 -0.0056 -0.1542  0.0124
36132DOPC   D2A44607  13.515   1.274  17.051 -0.0802 -0.2179  0.1596
36132DOPC   C3A44608  13.632   1.411  17.448  0.2230 -0.1810 -0.0643
36132DOPC   C4A44609  13.541   1.751  17.752 -0.0969 -0.0752 -0.1610
36132DOPC   C1B44610  13.406   0.386  16.818 -0.1295  0.0298 -0.1168
36132DOPC   D2B44611  13.742   0.319  17.151 -0.0559 -0.2692  0.0835
36132DOPC   C3B44612  14.068   0.002  17.196  0.1386 -0.2059  0.0874
36132DOPC   C4B44613  14.391  -0.369  17.355 -0.1827 -0.3985 -0.1435
36133DOPC   NC344614   9.940   0.107  18.511 -0.0193 -0.0198  0.1658
36133DOPC   PO444615  10.055  -0.235  18.738  0.2670  0.1321  0.1171
36133DOPC   GL144616  10.370  -0.133  19.042 -0.3220  0.4360  0.0477
36133DOPC   GL244617  10.051  -0.267  19.221 -0.1438 -0.3577  0.0973
36133DOPC   C1A44618  10.549  -0.037  19.369  0.2582 -0.1252  0.1036
36133DOPC   D2A44619  10.354   0.085  19.895 -0.2337 -0.0444 -0.0909
36133DOPC   C3A44620  10.349   0.598  19.987 -0.0846 -0.0999 -0.0523
36133DOPC   C4A44621  10.419   1.028  20.077 -0.2383 -0.0661 -0.1109
36133DOPC   C1B44622  10.229  -0.323  19.592  0.3989  0.2342  0.1688
36133DOPC   D2B44623  10.420  -0.367  20.080 -0.0243  0.1864  0.0837
36133DOPC   C3B44624  10.309  -0.616  20.456  0.1561 -0.0474  0.0189
36133DOPC   C4B44625  10.226  -0.794  20.916 -0.1152  0.3046  0.0778
36134DOPC   NC344626  15.819   2.693  11.516  0.0158  0.1287  0.0913
36134DOPC   PO444627  15.932   2.607  11.928 -0.0877 -0.0373  0.4872
36134DOPC   GL144628  16.258   2.777  12.050 -0.0306  0.3080  0.1439
36134DOPC   GL244629  16.438   2.569  12.031 -0.0251 -0.0748  0.4383
36134DOPC   C1A44630  16.371   2.914  12.436 -0.0593  0.1046  0.1734
36134DOPC   D2A44631  16.710   3.052  12.810 -0.1966 -0.2758 -0.1328
36134DOPC   C3A44632  16.504   2.878  13.235  0.1305 -0.0481 -0.1484
36134DOPC   C4A44633  16.585   2.942  13.669  0.2694  0.2272 -0.3346
36134DOPC   C1B44634  16.648   2.435  12.431  0.0789 -0.1429  0.1053
36134DOPC   D2B44635  16.861   2.069  12.694  0.1609 -0.1158  0.0352
36134DOPC   C3B44636  17.029   1.610  12.604 -0.3279 -0.1845  0.0930
36134DOPC   C4B44637  17.237   1.127  12.612 -0.0299  0.0476  0.0949
36135DOPC   NC344638  24.994   3.782  10.442  0.0985  0.3477 -0.2965
36135DOPC   PO444639  25.010   3.519  10.740 -0.0470  0.0460 -0.1267
36135DOPC   GL144640  24.676   3.353  10.844  0.1279  0.2016 -0.2959
36135DOPC   GL244641  24.763   3.202  11.100 -0.1492  0.2615  0.0114
36135DOPC   C1A44642  24.253   3.536  10.901 -0.1975  0.1369  0.0077
36135DOPC   D2A44643  23.903   3.379  11.159  0.2514  0.1956  0.0899
36135DOPC   C3A44644  23.697   3.354  11.541 -0.0107 -0.0001  0.0315
36135DOPC   C4A44645  23.546   3.003  11.797 -0.1745  0.0030  0.3213
36135DOPC   C1B44646  24.572   3.396  11.511  0.0210 -0.1510  0.2484
36135DOPC   D2B44647  24.561   3.441  11.982  0.4239  0.0944 -0.0421
36135DOPC   C3B44648  24.307   3.615  12.235  0.0696 -0.0038 -0.2346
36135DOPC   C4B44649  24.060   3.595  12.674 -0.3446  0.1193 -0.0157
36136DOPC   NC344650   7.400   0.626  18.025 -0.1350  0.0294  0.2703
36136DOPC   PO444651   7.326   0.769  18.367 -0.0605 -0.1044  0.1366
36136DOPC   GL144652   7.015   0.912  18.601  0.4020  0.0992 -0.2536
36136DOPC   GL244653   7.159   0.887  18.890  0.0489  0.1362  0.2800
36136DOPC   C1A44654   6.579   1.027  18.554 -0.1225  0.1719  0.2641
36136DOPC   D2A44655   6.125   1.038  18.752 -0.1794  0.5570 -0.1040
36136DOPC   C3A44656   5.936   0.974  19.135  0.1291 -0.1475 -0.1545
36136DOPC   C4A44657   5.974   0.868  19.626 -0.3279  0.1642 -0.1301
36136DOPC   C1B44658   6.753   0.937  19.059 -0.3314 -0.2622  0.1918
36136DOPC   D2B44659   6.484   0.930  19.534  0.0999 -0.3071  0.2300
36136DOPC   C3B44660   6.739   0.852  19.938 -0.0188  0.1666 -0.0176
36136DOPC   C4B44661   6.750   1.035  20.431 -0.2636 -0.0231 -0.3881
36137DOPS   CNO44662   6.177   5.728  17.900  0.2517  0.1136  0.2486
36137DOPS   PO444663   6.193   6.101  17.993  0.1012 -0.0300  0.0855
36137DOPS   GL144664   6.217   6.028  18.326  0.1658  0.2523 -0.3049
36137DOPS   GL244665   6.418   5.837  18.409  0.0574 -0.0773  0.5237
36137DOPS   C1A44666   6.003   6.109  18.619 -0.0317 -0.2086 -0.0451
36137DOPS   D2A44667   6.061   6.410  19.036  0.2329 -0.1535  0.0388
36137DOPS   C3A44668   5.939   6.306  19.500 -0.1441 -0.1375  0.0438
36137DOPS   C4A44669   6.002   6.044  19.934 -0.1309  0.2665  0.0698
36137DOPS   C1B44670   6.451   5.866  18.814 -0.0779  0.1416 -0.1425
36137DOPS   D2B44671   6.471   6.081  19.255 -0.2518 -0.1834 -0.0751
36137DOPS   C3B44672   6.370   5.817  19.648  0.0150 -0.3127 -0.1103
36137DOPS   C4B44673   6.311   5.649  20.119  0.1959 -0.0517 -0.0259
36138DOPS   CNO44674  17.921   6.307  10.649 -0.0194  0.0986 -0.0585
36138DOPS   PO444675  17.976   6.431  10.967 -0.2157  0.1357  0.2882
36138DOPS   GL144676  18.307   6.220  11.252 -0.1938 -0.0656 -0.2667
36138DOPS   GL244677  18.136   6.046  11.345  0.3195  0.4332  0.0437
36138DOPS   C1A44678  18.721   6.248  11.337 -0.2058 -0.3602 -0.1766
36138DOPS   D2A44679  19.140   6.263  11.553  0.0185 -0.0866 -0.0093
36138DOPS   C3A44680  19.513   6.339  11.834 -0.3809  0.1510 -0.3257
36138DOPS   C4A44681  19.897   6.254  12.110 -0.1164 -0.0251  0.3400
36138DOPS   C1B44682  18.275   6.129  11.707 -0.2313  0.2102 -0.2674
36138DOPS   D2B44683  18.695   6.274  11.906  0.1353 -0.0630  0.0980
36138DOPS   C3B44684  18.989   6.392  12.212 -0.1221  0.2230  0.0779
36138DOPS   C4B44685  19.268   6.368  12.600  0.0418 -0.2121  0.0697
36139DOPS   CNO44686   7.140   2.340  17.742  0.4084 -0.2132  0.1481
36139DOPS   PO444687   6.780   2.156  17.706  0.0738  0.1620  0.0878
36139DOPS   GL144688   6.544   2.070  18.073 -0.3520 -0.3200 -0.0258
36139DOPS   GL244689   6.351   2.117  17.922 -0.3369 -0.3497 -0.2030
36139DOPS   C1A44690   6.657   2.176  18.483 -0.1194  0.0023 -0.1160
36139DOPS   D2A44691   6.651   2.260  18.932  0.3461 -0.1205 -0.3381
36139DOPS   C3A44692   6.519   2.311  19.375 -0.0819 -0.1746 -0.0795
36139DOPS   C4A44693   6.349   2.336  19.795  0.0830 -0.1112  0.1480
36139DOPS   C1B44694   5.979   2.095  18.131 -0.3512 -0.1010 -0.3141
36139DOPS   D2B44695   5.744   2.004  18.530  0.0225 -0.3080  0.0229
36139DOPS   C3B44696   5.656   2.435  18.634  0.0874 -0.1292 -0.0954
36139DOPS   C4B44697   5.288   2.679  18.435 -0.0716 -0.1663  0.1313
36140DOPS   CNO44698  12.191   0.965  16.443 -0.1305 -0.1122  0.1513
36140DOPS   PO444699  12.272   0.646  16.647 -0.2261  0.0498 -0.1134
36140DOPS   GL144700  12.579   0.419  16.925 -0.0417 -0.0846  0.2264
36140DOPS   GL244701  12.655   0.720  17.018 -0.0304 -0.0315 -0.0291
36140DOPS   C1A44702  12.932   0.167  16.904  0.2255  0.0143  0.1433
36140DOPS   D2A44703  13.299  -0.214  16.924  0.3335 -0.0444 -0.1103
36140DOPS   C3A44704  13.657  -0.257  17.246  0.2404 -0.2619 -0.1256
36140DOPS   C4A44705  13.910  -0.456  17.639 -0.1687  0.0180 -0.2977
36140DOPS   C1B44706  12.726   0.984  17.358 -0.0774  0.0526 -0.0259
36140DOPS   D2B44707  12.932   1.155  17.759  0.0515 -0.0322 -0.0763
36140DOPS   C3B44708  12.701   1.232  18.176 -0.0382 -0.1495  0.2274
36140DOPS   C4B44709  12.952   1.145  18.563 -0.2806 -0.1086 -0.0587
36141DOPS   CNO44710  11.278   0.514  17.197  0.0605 -0.1963  0.3054
36141DOPS   PO444711  11.489   0.327  17.435  0.1959  0.1278  0.3949
36141DOPS   GL144712  11.704   0.439  17.771  0.5429  0.0900  0.0349
36141DOPS   GL244713  12.032   0.271  17.716 -0.0552 -0.0810 -0.2140
36141DOPS   C1A44714  11.753   0.268  18.146 -0.1954  0.1017 -0.0348
36141DOPS   D2A44715  12.061   0.078  18.548  0.1195  0.2198  0.2983
36141DOPS   C3A44716  12.366   0.190  18.840 -0.2104 -0.2397 -0.0174
36141DOPS   C4A44717  12.619   0.117  19.235  0.0630  0.2025 -0.2373
36141DOPS   C1B44718  12.370   0.251  17.958 -0.1276  0.0225 -0.0763
36141DOPS   D2B44719  12.861   0.378  18.032 -0.0249 -0.0771 -0.2297
36141DOPS   C3B44720  13.166   0.080  17.816  0.1872  0.2874  0.0524
36141DOPS   C4B44721  13.239  -0.352  17.568  0.0392 -0.0927 -0.0164
36142DOPS   CNO44722   4.426   1.241  14.926 -0.0799  0.4844  0.1696
36142DOPS   PO444723   4.112   1.079  15.054  0.3765  0.0692 -0.0052
36142DOPS   GL144724   4.002   1.019  15.424 -0.1228  0.4983 -0.2060
36142DOPS   GL244725   3.837   0.795  15.361 -0.1110 -0.0910 -0.0596
36142DOPS   C1A44726   3.803   1.319  15.615 -0.1242  0.0618  0.1928
36142DOPS   D2A44727   3.681   1.713  15.860 -0.0333  0.3239 -0.2434
36142DOPS   C3A44728   3.470   1.504  16.222 -0.3362  0.0531 -0.0860
36142DOPS   C4A44729   3.119   1.131  16.405  0.4070  0.3014 -0.0450
36142DOPS   C1B44730   3.497   0.984  15.455  0.1388 -0.3826  0.0445
36142DOPS   D2B44731   3.154   0.803  15.150 -0.1386  0.0105  0.1671
36142DOPS   C3B44732   2.808   1.094  15.129 -0.0619 -0.0803 -0.0172
36142DOPS   C4B44733   2.390   1.363  15.043 -0.0618  0.1021 -0.0356
36143DOPS   CNO44734  19.226   4.709  10.176  0.0707 -0.0437  0.1396
36143DOPS   PO444735  18.926   4.881  10.036 -0.5280  0.1302  0.1630
36143DOPS   GL144736  18.835   5.050  10.408  0.1490 -0.1813  0.1658
36143DOPS   GL244737  18.956   5.323  10.434  0.2894  0.1870 -0.3308
36143DOPS   C1A44738  18.760   5.177  10.839 -0.2724 -0.1260  0.0154
36143DOPS   D2A44739  18.725   5.226  11.310  0.1010  0.0765 -0.2203
36143DOPS   C3A44740  18.935   5.355  11.694 -0.0050 -0.0619 -0.0243
36143DOPS   C4A44741  19.072   5.412  12.207 -0.0777 -0.1191 -0.0249
36143DOPS   C1B44742  19.129   5.580  10.803  0.2635 -0.1263 -0.1912
36143DOPS   D2B44743  19.514   5.804  11.023 -0.1315  0.0880 -0.3494
36143DOPS   C3B44744  19.665   6.017  11.433  0.3674  0.1314 -0.0846
36143DOPS   C4B44745  20.096   6.140  11.472  0.1455 -0.1305  0.0859
36144DOPS   CNO44746  14.666   5.154  12.892 -0.0158  0.1971  0.0943
36144DOPS   PO444747  14.839   5.159  13.205 -0.1397  0.0158 -0.1296
36144DOPS   GL144748  14.998   5.435  13.390  0.0177  0.4024  0.0949
36144DOPS   GL244749  14.987   5.360  13.655  0.3737 -0.1687  0.3602
36144DOPS   C1A44750  15.410   5.393  13.290  0.0064  0.0683 -0.1358
36144DOPS   D2A44751  15.637   5.351  12.798 -0.2729 -0.1480 -0.2910
36144DOPS   C3A44752  15.759   4.934  12.842  0.2177 -0.1589 -0.0073
36144DOPS   C4A44753  15.948   4.637  13.229 -0.1007  0.4156 -0.2023
36144DOPS   C1B44754  15.410   5.377  13.788  0.4107  0.1607 -0.1257
36144DOPS   D2B44755  15.721   5.254  14.251 -0.2316  0.0590 -0.0549
36144DOPS   C3B44756  16.119   5.071  14.283 -0.1150 -0.0061 -0.0646
36144DOPS   C4B44757  16.485   4.859  14.229 -0.0734 -0.0597  0.0367
36145DOPS   CNO44758  23.026   5.863  10.051 -0.2304  0.1576 -0.2364
36145DOPS   PO444759  22.752   5.602  10.122 -0.0424 -0.2522 -0.0315
36145DOPS   GL144760  22.534   5.665  10.465  0.4173  0.1395 -0.5810
36145DOPS   GL244761  22.299   5.546  10.459 -0.0034 -0.0151 -0.2015
36145DOPS   C1A44762  22.696   5.504  10.880  0.0654 -0.1867  0.1613
36145DOPS   D2A44763  22.937   5.323  11.317  0.1104 -0.4116 -0.0121
36145DOPS   C3A44764  22.624   5.228  11.632  0.1127 -0.0079 -0.0291
36145DOPS   C4A44765  22.508   5.324  12.084 -0.0096 -0.0630  0.2529
36145DOPS   C1B44766  22.159   5.537  10.892  0.0670  0.1529 -0.2355
36145DOPS   D2B44767  22.401   5.725  11.291  0.3564 -0.0568 -0.1677
36145DOPS   C3B44768  22.209   5.609  11.734  0.2056  0.1199 -0.0459
36145DOPS   C4B44769  21.934   5.449  12.134  0.0921  0.1526  0.0626
36146DOPS   CNO44770  14.445   4.700  12.944  0.2024  0.1484 -0.1349
36146DOPS   PO444771  14.793   4.628  12.809  0.0213 -0.0601  0.1657
36146DOPS   GL144772  15.091   4.612  13.127 -0.1541  0.4860  0.1055
36146DOPS   GL244773  15.042   4.345  13.101  0.2407  0.1673 -0.2444
36146DOPS   C1A44774  15.441   4.865  13.259 -0.2613  0.0805  0.2282
36146DOPS   D2A44775  15.830   5.193  13.370 -0.2619  0.1389 -0.3196
36146DOPS   C3A44776  16.058   5.349  13.801  0.3119  0.1559 -0.0486
36146DOPS   C4A44777  16.507   5.387  14.043 -0.1344  0.0267  0.0630
36146DOPS   C1B44778  15.056   4.289  13.516 -0.2131  0.1417  0.0367
36146DOPS   D2B44779  15.017   4.412  13.939  0.5074  0.0788  0.0945
36146DOPS   C3B44780  15.337   4.345  14.214 -0.3327  0.2490  0.1034
36146DOPS   C4B44781  15.716   4.199  14.463  0.2110 -0.2929 -0.0120
36147DOPS   CNO44782  12.647   3.817  15.005  0.0786 -0.2634 -0.1598
36147DOPS   PO444783  12.823   4.069  15.180 -0.1271 -0.1962  0.0963
36147DOPS   GL144784  13.187   3.993  15.463  0.1206  0.0465  0.1417
36147DOPS   GL244785  13.371   4.106  15.276  0.2166  0.0245 -0.1947
36147DOPS   C1A44786  13.445   3.900  15.794  0.3746 -0.0646 -0.0552
36147DOPS   D2A44787  13.606   3.703  16.135 -0.0899  0.2822  0.0858
36147DOPS   C3A44788  13.880   3.602  16.421 -0.2026 -0.1990  0.0579
36147DOPS   C4A44789  14.052   3.329  16.815 -0.2482 -0.0020  0.3969
36147DOPS   C1B44790  13.653   4.307  15.507 -0.3172 -0.1057  0.0435
36147DOPS   D2B44791  14.044   4.198  15.742  0.0425  0.2654  0.4090
36147DOPS   C3B44792  14.254   4.450  16.072 -0.0696 -0.0478  0.1206
36147DOPS   C4B44793  14.574   4.585  16.391 -0.0461 -0.0098 -0.0673
36148DOPS   CNO44794  13.333   4.117  14.424  0.1476  0.1766 -0.2818
36148DOPS   PO444795  13.274   3.755  14.470  0.1285  0.1431  0.0374
36148DOPS   GL144796  13.528   3.628  14.801 -0.1287 -0.1825 -0.4275
36148DOPS   GL244797  13.586   3.908  14.899  0.1307 -0.0958  0.1829
36148DOPS   C1A44798  13.978   3.479  14.809 -0.0600 -0.1165 -0.2279
36148DOPS   D2A44799  14.444   3.475  14.717  0.0533 -0.0071  0.0931
36148DOPS   C3A44800  14.901   3.658  14.803 -0.0200 -0.1922 -0.0505
36148DOPS   C4A44801  15.338   3.478  14.841  0.0023  0.0098  0.0176
36148DOPS   C1B44802  13.962   4.067  15.084  0.0972 -0.0890  0.0700
36148DOPS   D2B44803  14.384   3.987  15.370  0.1304  0.0687 -0.0045
36148DOPS   C3B44804  14.778   3.838  15.300 -0.4451 -0.1442  0.0354
36148DOPS   C4B44805  15.277   3.753  15.226 -0.0765 -0.1163  0.0602
36149DOPS   CNO44806   5.723   7.313  17.415 -0.1120 -0.4334 -0.0919
36149DOPS   PO444807   5.732   7.394  17.777  0.1606  0.2269 -0.0838
36149DOPS   GL144808   5.286   7.611  17.929 -0.0453  0.2639  0.0182
36149DOPS   GL244809   5.312   7.347  18.067  0.0108  0.0619 -0.1058
36149DOPS   C1A44810   5.287   7.962  18.156  0.1085 -0.1676 -0.0935
36149DOPS   D2A44811   5.009   8.323  18.288  0.0275 -0.0007  0.0391
36149DOPS   C3A44812   4.847   8.361  18.716  0.0814 -0.2142 -0.2554
36149DOPS   C4A44813   4.757   8.441  19.198  0.1320 -0.1132  0.1471
36149DOPS   C1B44814   5.147   7.021  18.251  0.2100  0.0322 -0.1452
36149DOPS   D2B44815   5.013   6.653  18.646 -0.1923  0.1381 -0.1356
36149DOPS   C3B44816   4.562   6.576  18.844 -0.0251 -0.2985 -0.1092
36149DOPS   C4B44817   4.103   6.562  19.079  0.0689 -0.0798  0.1275
36150DOPS   CNO44818   4.761   5.547  15.380 -0.0578  0.1801 -0.2152
36150DOPS   PO444819   4.515   5.569  15.101 -0.0322  0.2498  0.0986
36150DOPS   GL144820   4.152   5.489  15.316  0.1854 -0.1301 -0.2357
36150DOPS   GL244821   4.286   5.600  15.545  0.1283  0.1416  0.1294
36150DOPS   C1A44822   3.785   5.260  15.445  0.2490  0.0382 -0.1453
36150DOPS   D2A44823   3.413   5.483  15.680  0.0949  0.0420 -0.2594
36150DOPS   C3A44824   2.957   5.496  15.629  0.2122 -0.2054  0.1586
36150DOPS   C4A44825   2.511   5.457  15.481 -0.2648 -0.0376  0.0178
36150DOPS   C1B44826   3.911   5.594  15.779  0.1741  0.0491 -0.1305
36150DOPS   D2B44827   3.552   5.840  16.022 -0.2514 -0.0123 -0.1142
36150DOPS   C3B44828   3.103   5.891  15.924 -0.0323  0.0208 -0.2377
36150DOPS   C4B44829   2.684   5.908  15.791  0.2087 -0.0383  0.0142
36151DOPS   CNO44830  18.655   4.446  10.123  0.3605 -0.0421  0.0426
36151DOPS   PO444831  18.726   4.612  10.413 -0.2191  0.3040 -0.2431
36151DOPS   GL144832  18.722   4.466  10.785 -0.1303 -0.1695 -0.0905
36151DOPS   GL244833  18.457   4.360  10.781 -0.1439  0.1324 -0.1669
36151DOPS   C1A44834  18.571   4.685  11.152  0.0973 -0.4259  0.0362
36151DOPS   D2A44835  18.564   4.834  11.661  0.1909 -0.0408  0.1449
36151DOPS   C3A44836  18.878   4.860  12.003  0.1548 -0.2547 -0.1173
36151DOPS   C4A44837  19.215   4.922  12.429 -0.1020  0.0228  0.1229
36151DOPS   C1B44838  18.331   4.069  11.078 -0.2741 -0.0859 -0.1586
36151DOPS   D2B44839  18.161   3.675  11.281 -0.0908  0.2303 -0.0826
36151DOPS   C3B44840  18.177   3.605  11.771 -0.1370 -0.0429 -0.1921
36151DOPS   C4B44841  18.252   3.575  12.335 -0.0285  0.1167  0.0468
36152DOPS   CNO44842  17.397   2.958  10.801 -0.1511 -0.3150  0.1301
36152DOPS   PO444843  17.440   2.644  10.994  0.1046  0.0530  0.1047
36152DOPS   GL144844  17.792   2.537  11.230 -0.0231  0.6348 -0.1865
36152DOPS   GL244845  17.665   2.363  11.367 -0.0489 -0.1486  0.0566
36152DOPS   C1A44846  18.096   2.703  11.426  0.1995 -0.0155 -0.2169
36152DOPS   D2A44847  18.282   2.873  11.809  0.1304 -0.0048  0.3443
36152DOPS   C3A44848  18.548   3.229  12.070  0.1752 -0.2280 -0.1213
36152DOPS   C4A44849  18.731   3.548  12.419  0.0218 -0.1411  0.0308
36152DOPS   C1B44850  17.840   2.430  11.774  0.0989  0.0905  0.1240
36152DOPS   D2B44851  17.921   2.722  12.142 -0.0154  0.1852 -0.2392
36152DOPS   C3B44852  17.762   2.615  12.639  0.1597  0.0600  0.0821
36152DOPS   C4B44853  17.511   2.573  13.059  0.2709 -0.0004 -0.0837
36153DOPS   CNO44854  10.309   6.418  18.657 -0.0587  0.1233 -0.0212
36153DOPS   PO444855  10.113   6.568  18.951  0.0407  0.0409 -0.0177
36153DOPS   GL144856  10.256   6.699  19.307 -0.3255  0.0343 -0.0774
36153DOPS   GL244857  10.090   6.957  19.292 -0.3309 -0.1581  0.0093
36153DOPS   C1A44858  10.062   6.447  19.671  0.1704  0.3687 -0.0438
36153DOPS   D2A44859  10.140   6.235  20.082  0.0941 -0.1172 -0.1512
36153DOPS   C3A44860  10.492   6.227  20.420 -0.1068  0.1261  0.0252
36153DOPS   C4A44861  10.652   6.285  20.860  0.1599  0.1417 -0.0952
36153DOPS   C1B44862  10.397   7.045  19.606  0.0784  0.1232 -0.1151
36153DOPS   D2B44863  10.717   7.109  19.964  0.1718 -0.0223  0.2361
36153DOPS   C3B44864  11.096   7.226  20.016 -0.2985 -0.1036  0.2421
36153DOPS   C4B44865  11.509   7.261  20.321  0.2651  0.1076  0.0598
36154DOPS   CNO44866   1.033   5.486  11.476 -0.2219 -0.1165 -0.1540
36154DOPS   PO444867   1.127   5.288  11.812 -0.4885  0.0641 -0.2316
36154DOPS   GL144868   0.808   5.138  12.063  0.0662 -0.0230  0.1412
36154DOPS   GL244869   1.005   4.953  12.235 -0.1487 -0.0225  0.1302
36154DOPS   C1A44870   0.400   5.130  12.191 -0.1271 -0.2831  0.0067
36154DOPS   D2A44871  -0.054   5.270  12.297 -0.1630  0.1074 -0.1377
36154DOPS   C3A44872  -0.168   5.720  12.412  0.1268  0.0488  0.0799
36154DOPS   C4A44873  -0.300   6.072  12.084  0.0108  0.2119  0.1218
36154DOPS   C1B44874   0.837   4.828  12.623  0.1887 -0.0108  0.1245
36154DOPS   D2B44875   0.617   4.609  13.022 -0.0874 -0.0916  0.1539
36154DOPS   C3B44876   0.298   4.505  13.340  0.3385  0.1696 -0.0145
36154DOPS   C4B44877   0.106   4.485  13.755 -0.2519  0.2141 -0.1797
36155DOPS   CNO44878   3.423   6.778  13.659  0.2666 -0.3623 -0.2785
36155DOPS   PO444879   3.072   6.932  13.705 -0.1257 -0.1769  0.0216
36155DOPS   GL144880   2.632   6.880  13.806  0.4630  0.1204 -0.3437
36155DOPS   GL244881   2.713   6.573  13.849 -0.1598 -0.0545  0.1054
36155DOPS   C1A44882   2.342   6.877  14.175  0.3294  0.3217  0.1320
36155DOPS   D2A44883   1.816   6.695  14.132 -0.4908 -0.1450  0.1047
36155DOPS   C3A44884   1.596   6.293  14.159 -0.1760  0.2797  0.1707
36155DOPS   C4A44885   1.479   6.007  14.558  0.1335 -0.0964  0.1219
36155DOPS   C1B44886   2.669   6.422  14.231 -0.0164  0.0277  0.1178
36155DOPS   D2B44887   2.677   6.747  14.581  0.0524  0.1279 -0.0857
36155DOPS   C3B44888   2.380   6.740  14.942 -0.3582  0.1037 -0.0667
36155DOPS   C4B44889   1.901   6.718  15.105 -0.0002 -0.0567 -0.3294
36156DOPS   CNO44890   0.233   4.843  10.516  0.0990  0.2786  0.1017
36156DOPS   PO444891   0.076   4.600  10.770  0.2872 -0.1995 -0.4060
36156DOPS   GL144892  -0.137   4.509  11.141  0.1005 -0.1897 -0.0167
36156DOPS   GL244893  -0.347   4.409  11.017 -0.2557  0.1441 -0.0320
36156DOPS   C1A44894  -0.085   4.897  11.394 -0.1273  0.1355  0.1028
36156DOPS   D2A44895  -0.203   5.116  11.837 -0.2605 -0.0510  0.0048
36156DOPS   C3A44896  -0.568   4.892  12.030  0.1836 -0.0460  0.0564
36156DOPS   C4A44897  -0.981   4.594  12.114  0.2209 -0.0531  0.2391
36156DOPS   C1B44898  -0.633   4.193  11.186  0.1142  0.1552  0.1047
36156DOPS   D2B44899  -0.973   4.191  11.556 -0.0600 -0.4462 -0.4129
36156DOPS   C3B44900  -1.362   4.234  11.785 -0.0136  0.1313  0.0769
36156DOPS   C4B44901  -1.716   4.352  12.039  0.1878 -0.1849  0.0904
36157DOPS   CNO44902   7.158   6.420  18.504 -0.1566 -0.0719 -0.1492
36157DOPS   PO444903   7.442   6.146  18.480  0.0240 -0.0146 -0.0551
36157DOPS   GL144904   7.517   6.052  18.882 -0.0504  0.1034  0.1422
36157DOPS   GL244905   7.189   6.148  18.871 -0.0135 -0.1431 -0.1973
36157DOPS   C1A44906   7.690   6.068  19.260  0.0756 -0.1045 -0.4439
36157DOPS   D2A44907   7.587   6.164  19.750 -0.0927 -0.0349 -0.2362
36157DOPS   C3A44908   7.515   6.578  19.927 -0.1421  0.2587 -0.1590
36157DOPS   C4A44909   7.265   6.868  20.220  0.2701 -0.1526 -0.2935
36157DOPS   C1B44910   7.100   6.205  19.313 -0.1968 -0.0613  0.1900
36157DOPS   D2B44911   7.096   6.428  19.773 -0.2454 -0.1270  0.1065
36157DOPS   C3B44912   6.813   6.562  20.155  0.0712 -0.0615 -0.0712
36157DOPS   C4B44913   6.646   6.688  20.620 -0.0216 -0.1756  0.2925
36158DOPS   CNO44914   9.932   1.358  18.078 -0.4893  0.3160  0.0116
36158DOPS   PO444915  10.142   1.067  18.240  0.0985 -0.1150  0.1401
36158DOPS   GL144916  10.196   1.173  18.648  0.0204  0.0408  0.1997
36158DOPS   GL244917  10.504   1.151  18.560  0.3167  0.3068  0.1467
36158DOPS   C1A44918  10.136   1.413  19.013  0.1799 -0.1074  0.1111
36158DOPS   D2A44919  10.082   1.626  19.482  0.1367  0.1637  0.0337
36158DOPS   C3A44920  10.355   1.535  19.860  0.0360 -0.0925  0.0645
36158DOPS   C4A44921  10.824   1.516  20.057 -0.1532 -0.1040  0.1513
36158DOPS   C1B44922  10.538   0.769  18.692  0.1849 -0.0605 -0.1900
36158DOPS   D2B44923  10.694   0.438  19.048  0.1854  0.0603 -0.1109
36158DOPS   C3B44924  10.821   0.066  18.850  0.0756 -0.1060 -0.2252
36158DOPS   C4B44925  11.042  -0.258  18.579 -0.0383 -0.0411 -0.3874
36159DOPS   CNO44926  21.453   3.436   9.907 -0.1361  0.0811 -0.2247
36159DOPS   PO444927  21.172   3.410  10.172 -0.0757  0.1331  0.0072
36159DOPS   GL144928  21.285   3.240  10.530 -0.2490 -0.4461 -0.0732
36159DOPS   GL244929  21.256   3.026  10.616  0.0949 -0.2456 -0.0288
36159DOPS   C1A44930  21.478   3.471  10.819  0.1584 -0.0961  0.0124
36159DOPS   D2A44931  21.536   3.601  11.292 -0.1518  0.2073 -0.1116
36159DOPS   C3A44932  21.519   3.531  11.738 -0.1292  0.2705 -0.1347
36159DOPS   C4A44933  21.396   3.668  12.200  0.1519 -0.0634  0.1342
36159DOPS   C1B44934  21.070   3.206  10.958 -0.4017 -0.1396  0.0879
36159DOPS   D2B44935  20.960   3.643  11.176 -0.1668  0.1299  0.0363
36159DOPS   C3B44936  21.039   3.903  11.539  0.2564 -0.2373  0.1187
36159DOPS   C4B44937  21.396   4.018  11.817  0.0648 -0.0504 -0.0558
36160DOPS   CNO44938  19.323   6.580  10.278  0.1935 -0.5485 -0.1610
36160DOPS   PO444939  19.079   6.736  10.475  0.5261  0.0712  0.0312
36160DOPS   GL144940  19.153   6.562  10.779 -0.0539  0.6278 -0.2282
36160DOPS   GL244941  18.933   6.412  10.868 -0.0471 -0.2026  0.3168
36160DOPS   C1A44942  19.418   6.513  11.112  0.2317 -0.0167 -0.2372
36160DOPS   D2A44943  19.803   6.544  11.397  0.0133 -0.3438  0.3164
36160DOPS   C3A44944  19.940   6.984  11.477 -0.1440 -0.1189  0.2581
36160DOPS   C4A44945  20.144   7.474  11.480  0.2215  0.1239 -0.0925
36160DOPS   C1B44946  19.092   6.087  11.047  0.0572  0.0771 -0.0079
36160DOPS   D2B44947  19.149   5.672  11.345 -0.3058 -0.1367 -0.0640
36160DOPS   C3B44948  19.376   5.506  11.713 -0.2223  0.0772 -0.0058
36160DOPS   C4B44949  19.616   5.458  12.105  0.1192 -0.0309  0.1993
36161DOPS   CNO44950  17.199   5.907  11.313  0.1689  0.3824 -0.0290
36161DOPS   PO444951  17.431   5.640  11.177  0.0527  0.1646 -0.2138
36161DOPS   GL144952  17.668   5.542  11.514 -0.3241  0.1546  0.2404
36161DOPS   GL244953  17.787   5.791  11.486 -0.0040  0.1663  0.3392
36161DOPS   C1A44954  17.873   5.170  11.674 -0.2176  0.0967  0.3518
36161DOPS   D2A44955  18.138   5.140  12.083  0.1845  0.0487 -0.1175
36161DOPS   C3A44956  18.237   5.138  12.554  0.0702  0.3319  0.0824
36161DOPS   C4A44957  18.498   5.219  13.006 -0.0364  0.0524  0.0803
36161DOPS   C1B44958  18.101   5.642  11.691  0.0941 -0.0376  0.1224
36161DOPS   D2B44959  18.386   5.682  12.080  0.0649  0.2335  0.0749
36161DOPS   C3B44960  18.676   5.985  12.371 -0.0426  0.0154 -0.0151
36161DOPS   C4B44961  18.737   6.033  12.851 -0.2198 -0.0216 -0.2224
36162W        W44962   5.558   3.558  16.484  0.1127 -0.1333  0.2431
36163W        W44963  19.395   7.422  22.472  0.0315  0.1545  0.0452
36164W        W44964  19.173   2.197  22.156 -0.3274 -0.0101  0.0606
36165W        W44965   6.005   3.656  14.506  0.1108  0.1438 -0.1759
36166W        W44966  10.737   6.419   6.435  0.0649  0.0743  0.1374
36167W        W44967   6.852   6.165  15.059 -0.0950  0.1206 -0.2037
36168W        W44968   1.150   3.820  30.960  0.0963  0.1241  0.2558
36169W        W44969  12.025   4.424   4.877  0.2680  0.1795 -0.2751
36170W        W44970  20.059   2.246  29.656 -0.0334 -0.1171 -0.0053
36171W        W44971   4.624   1.386  26.355 -0.1647  0.4164  0.2020
36172W        W44972  21.621   7.552  25.861  0.1121 -0.1123  0.3440
36173W        W44973   6.469   0.743   5.394  0.2262  0.0054 -0.0748
36174W        W44974  19.358   5.395  19.737 -0.0505 -0.3149  0.0834
36175W        W44975  12.904   6.571   3.625  0.1463 -0.1556 -0.1999
36176W        W44976   8.532   3.128  11.388  0.2658  0.0355 -0.2076
36177W        W44977  16.025   5.005  25.166  0.4355 -0.2965  0.1088
36178W        W44978  10.709   5.265   9.126 -0.2810  0.1810 -0.1482
36179W        W44979   2.954   0.887   3.832 -0.1384 -0.1539  0.0667
36180W        W44980  11.670   7.779  12.013 -0.1988 -0.1521 -0.1612
36181W        W44981  15.003   5.207  31.813  0.1038  0.1384 -0.0438
36182W        W44982  16.670   0.416  17.680 -0.0226 -0.0718  0.1168
36183W        W44983   8.811   2.273   8.815 -0.0450  0.0446  0.1476
36184W        W44984   7.559   4.259  27.366  0.0531 -0.0122  0.2100
36185W        W44985  18.966   3.980   5.574 -0.1748 -0.0809 -0.2924
36186W        W44986  15.384   3.805  21.918 -0.0220 -0.1450 -0.1352
36187W        W44987   1.978   5.831  30.544  0.1847  0.0051  0.1038
36188W        W44988  11.317   4.675   1.236 -0.1906  0.2107 -0.0890
36189W        W44989   7.321   6.853   0.014 -0.1750  0.2487 -0.1268
36190W        W44990  15.294   4.358  11.015  0.1097  0.1478 -0.1091
36191W        W44991   7.061   4.348  11.373 -0.1832  0.0998 -0.0251
36192W        W44992  11.652   1.194  15.092  0.0648 -0.0264 -0.5171
36193W        W44993  23.427   1.327   6.255  0.2326  0.1314 -0.0694
36194W        W44994   5.993   5.739  29.775 -0.3601  0.0679 -0.2466
36195W        W44995  10.811   5.038  16.155  0.0978  0.0278 -0.1046
36196W        W44996  21.834   5.219   9.257 -0.1318  0.1759 -0.2712
36197W        W44997  23.679   3.523   1.348  0.0311  0.0792 -0.0937
36198W        W44998  12.901   5.342  12.596 -0.0272  0.2469  0.0440
36199W        W44999   3.265   6.698  21.810  0.3447  0.0467  0.0584
36200W        W45000   0.558   6.714  28.115  0.0767 -0.2096  0.0553
36201W        W45001  23.986   0.794  22.452 -0.1144 -0.1169  0.0346
36202W        W45002  25.001   2.711  24.743 -0.3601 -0.1319 -0.1097
36203W        W45003  19.486   1.531   7.910 -0.5298 -0.1073  0.2582
36204W        W45004  16.062   0.742  21.426  0.0001 -0.2987 -0.0441
36205W        W45005  21.955   5.505  27.885 -0.2054 -0.0022 -0.1883
36206W        W45006   7.003   2.349  15.997 -0.0472 -0.0184  0.3023
36207W        W45007   6.496   5.748   8.975  0.0165 -0.0621  0.1570
36208W        W45008  10.857   1.957   7.167 -0.1474 -0.1222 -0.1629
36209W        W45009   9.117   6.128  28.886  0.0423  0.0924  0.0046
36210W        W45010   6.068   5.783   0.833  0.2098  0.0341  0.2375
36211W        W45011   6.319   0.569   3.257 -0.0597  0.3128  0.1446
36212W        W45012  22.806   5.501  28.419  0.0079  0.1424  0.0594
36213W        W45013  21.984   5.327   2.458  0.0071  0.0804 -0.1380
36214W        W45014  24.436   2.072   8.752  0.1955  0.1561 -0.0566
36215W        W45015  14.527   4.551  21.093 -0.1281 -0.3589  0.0625
36216W        W45016  19.299   5.431  18.235 -0.0059 -0.3849 -0.0594
36217W        W45017  16.382   2.058   6.769  0.0566  0.3668  0.1417
36218W        W45018   1.663   6.272  20.299 -0.0855  0.0318 -0.0153
36219W        W45019   4.679   0.287  23.074 -0.2780  0.0958 -0.0745
36220W        W45020   5.067   4.034  27.741 -0.2708  0.0432  0.2176
36221W        W45021  10.891   5.667  16.724  0.1741 -0.2333 -0.2650
36222W        W45022  12.187   6.692   2.399 -0.2383 -0.2732  0.2441
36223W        W45023  21.342   7.625  31.620 -0.0462 -0.0727 -0.0423
36224W        W45024   3.746   5.495  25.164 -0.1988  0.0757 -0.1247
36225W        W45025  18.769   6.239   7.608  0.1324 -0.1145 -0.4089
36226W        W45026  14.594   2.783   4.049 -0.0311 -0.1445 -0.0083
36227W        W45027  12.475   4.371  28.487  0.2459 -0.0252 -0.3317
36228W        W45028   0.233   4.125  28.960  0.0671 -0.0002 -0.1251
36229W        W45029  22.138   1.036  18.019 -0.6186  0.1429 -0.1097
36230W        W45030   4.730   6.667  27.440 -0.1495  0.4253 -0.0676
36231W        W45031  14.508   0.839  29.328  0.1010 -0.0205 -0.0177
36232W        W45032  10.364   0.010  28.020 -0.2345  0.2083 -0.1494
36233W        W45033   1.104   0.977  20.335  0.1830  0.2352  0.0442
36234W        W45034  18.479   4.490   0.059  0.0119 -0.1465 -0.0673
36235W        W45035  22.928   0.727   4.995  0.2348 -0.0387 -0.1399
36236W        W45036  19.576   2.848   5.252  0.3229  0.0200 -0.0761
36237W        W45037   2.892   1.332  21.889  0.0042 -0.2575 -0.0654
36238W        W45038   2.933   7.723  11.098 -0.2551 -0.0938 -0.3372
36239W        W45039  16.754   0.547  22.857 -0.1679  0.1824  0.0165
36240W        W45040  11.837   2.650  11.974 -0.1750 -0.0532  0.0617
36241W        W45041  23.057   4.627  25.594  0.0280  0.0729  0.2434
36242W        W45042  17.298   4.943  31.758 -0.0854  0.0582 -0.3414
36243W        W45043   8.017   5.857   4.001 -0.2100  0.0185  0.1356
36244W        W45044  11.811   7.746   8.041 -0.2529  0.0049  0.0659
36245W        W45045  17.625   6.705  18.587  0.1305  0.0632 -0.3183
36246W        W45046  18.996   3.862  25.929 -0.1545 -0.1009 -0.0209
36247W        W45047  17.698   4.528  22.312  0.1363  0.2782  0.0585
36248W        W45048   6.458   5.040  23.076  0.3222  0.1156 -0.1421
36249W        W45049   2.713   0.758  12.931 -0.1515 -0.0779 -0.1760
36250W        W45050   6.262   5.371   0.279  0.1802  0.2444 -0.0403
36251W        W45051   8.983   1.444  10.050  0.0388  0.1377  0.1012
36252W        W45052  20.934   6.760  18.654  0.0299 -0.3058 -0.2798
36253W        W45053  13.004   0.835  24.608 -0.2710  0.2055  0.1066
36254W        W45054  24.035   0.897  30.323  0.0741 -0.1531 -0.0218
36255W        W45055  24.253   0.475  16.030 -0.2135  0.0307  0.1190
36256W        W45056  15.835   7.072  10.856  0.0859  0.2577  0.0003
36257W        W45057   9.458   4.945  27.717  0.0254 -0.1086 -0.1711
36258W        W45058   0.705   1.631   0.195  0.1738 -0.1931  0.0497
36259W        W45059  18.548   7.707   6.687  0.0136 -0.0302 -0.0746
36260W        W45060   9.893   0.161   2.678  0.0944 -0.2009 -0.0664
36261W        W45061  17.502   0.946  21.489  0.0173 -0.0531 -0.0687
36262W        W45062   1.239   1.665   3.377  0.1364 -0.1375  0.1163
36263W        W45063   8.866   5.197  17.336 -0.3418 -0.0741 -0.1505
36264W        W45064   0.821   3.938   8.100  0.0336  0.0764  0.0153
36265W        W45065   7.585   2.144  25.210 -0.1353  0.3208 -0.3448
36266W        W45066  15.759   2.696   3.462 -0.2368 -0.1160 -0.2205
36267W        W45067   5.653   5.970   4.070  0.1842 -0.1076  0.5370
36268W        W45068  22.985   6.064  21.147  0.2270  0.3517 -0.2249
36269W        W45069  22.439   7.231  26.083 -0.2094  0.0505  0.0564
36270W        W45070  20.177   2.520  25.915  0.0679  0.0137 -0.0699
36271W        W45071   5.839   2.920  12.925  0.0727 -0.1466 -0.1794
36272W        W45072  14.213   4.551   1.912  0.0200  0.3000 -0.1471
36273W        W45073  21.988   7.647   4.712  0.2292  0.0523  0.1642
36274W        W45074   2.855   2.823   7.438 -0.1321  0.2115 -0.2285
36275W        W45075  20.345   3.997  25.643 -0.0210  0.0872 -0.1181
36276W        W45076  11.171   1.421  31.629 -0.0342  0.0470  0.0284
36277W        W45077  20.642   7.656   3.922 -0.1869  0.1877 -0.0022
36278W        W45078   7.730   3.765  26.721 -0.0080  0.1083 -0.0424
36279W        W45079   7.689   4.794   9.184  0.1530  0.2034 -0.3246
36280W        W45080  23.390   2.715   9.150 -0.0142 -0.0735 -0.0643
36281W        W45081   0.569   3.649   7.759 -0.2774  0.1798  0.6051
36282W        W45082   1.683   1.382   4.398  0.2184 -0.2537  0.0055
36283W        W45083   6.243   1.150  31.848 -0.1414  0.1542  0.1901
36284W        W45084  16.070   4.514   5.348 -0.1733 -0.1233 -0.1042
36285W        W45085  11.834   0.741  15.135 -0.0956 -0.1172  0.0701
36286W        W45086  14.951   0.179  31.062  0.0057  0.0797 -0.2061
36287W        W45087  24.486   0.940  22.366 -0.1485  0.4164  0.1522
36288W        W45088   5.381   2.453  22.998  0.1708 -0.3781  0.1014
36289W        W45089  20.977   0.218  29.833  0.2342  0.3077  0.4640
36290W        W45090  23.206   0.603  16.276 -0.0341  0.1919 -0.1267
36291W        W45091  14.086   7.499  32.600 -0.0129 -0.1051  0.1067
36292W        W45092   8.704   7.485  13.294 -0.1054 -0.3458  0.1752
36293W        W45093   8.936   4.817  25.163  0.0865 -0.0715 -0.1345
36294W        W45094   0.803   5.094  22.021  0.0450  0.0118 -0.1497
36295W        W45095  14.767   5.141   8.974  0.1594 -0.2853 -0.2084
36296W        W45096   3.391   6.341  22.822  0.0759  0.2483 -0.2964
36297W        W45097  12.340   2.849  32.023  0.1100  0.1343  0.3216
36298W        W45098  13.151   4.014  24.170 -0.0490 -0.2010  0.0534
36299W        W45099   1.798   3.624  28.879 -0.1135 -0.2379  0.1779
36300W        W45100  11.840   2.642  27.838  0.0643 -0.1185  0.2084
36301W        W45101   9.477   4.206   3.704 -0.2761  0.0492 -0.1810
36302W        W45102  14.642   0.210   1.803 -0.3331 -0.1925 -0.1696
36303W        W45103   1.196   4.575  23.442 -0.2763  0.0126  0.1705
36304W        W45104   1.225   1.513   2.379 -0.1135 -0.0825  0.0179
36305W        W45105  10.444   1.046   6.077 -0.0998 -0.1786 -0.2365
36306W        W45106  16.180   3.783  22.271 -0.1834  0.0918 -0.1362
36307W        W45107  11.034   4.310  24.966 -0.1815 -0.1343  0.0118
36308W        W45108  23.250   1.316  30.360  0.0268 -0.4461  0.0208
36309W        W45109  16.014   0.154   7.074 -0.1194 -0.0515 -0.1567
36310W        W45110  13.829   1.250  30.029  0.1516 -0.0901  0.2890
36311W        W45111  18.201   4.149  27.989  0.1498  0.2073 -0.0910
36312W        W45112   4.355   0.115  11.295 -0.2978  0.0377  0.0070
36313W        W45113  18.597   1.754  19.670 -0.2903 -0.0665  0.0306
36314W        W45114  24.045   5.214  29.196  0.0351 -0.1440  0.2192
36315W        W45115  10.838   5.992  10.827  0.0876  0.0351 -0.2056
36316W        W45116   9.700   5.653   5.997 -0.1207 -0.0879 -0.1164
36317W        W45117  22.858   4.989  15.484  0.1635 -0.0449 -0.0222
36318W        W45118  14.958   5.090   4.615 -0.2216  0.0544  0.0200
36319W        W45119   5.175   3.405   3.290 -0.1387 -0.0194  0.1450
36320W        W45120   1.714   3.132   8.669  0.1624  0.0796  0.0777
36321W        W45121   3.595   5.098  32.688 -0.0076  0.1864  0.0650
36322W        W45122  19.010   2.743   1.977 -0.0266 -0.0976 -0.3291
36323W        W45123  10.265   7.594   7.938 -0.0838  0.0651 -0.1103
36324W        W45124  23.537   4.391  17.615 -0.0798 -0.2055  0.3135
36325W        W45125  19.322   0.304   1.609  0.0204  0.0640 -0.0904
36326W        W45126  17.250   0.426   5.713  0.1375  0.1386  0.0399
36327W        W45127   5.189   4.695  26.696 -0.2821  0.1443  0.4938
36328W        W45128  15.718   5.487  27.336 -0.0116 -0.0736  0.0951
36329W        W45129  11.299   3.548   3.984 -0.1351 -0.2688 -0.0601
36330W        W45130  12.562   3.783  11.461 -0.3499 -0.2327  0.1654
36331W        W45131  18.791   3.376  28.113  0.0736 -0.0260  0.0681
36332W        W45132   3.341   7.088  13.250  0.3468  0.3579  0.0561
36333W        W45133  22.124   5.690   7.333  0.1877 -0.1458 -0.1331
36334W        W45134  22.869   6.894  29.937 -0.3499  0.0004 -0.2923
36335W        W45135   8.887   7.088  12.120 -0.0796 -0.1530  0.1853
36336W        W45136   1.002   6.054   0.537  0.0682  0.1384 -0.0433
36337W        W45137  18.175   1.805  10.162 -0.1699 -0.0496  0.2589
36338W        W45138  14.928   6.859  24.948 -0.0044  0.0547  0.1267
36339W        W45139  22.830   3.564   9.437  0.0275  0.0188  0.2697
36340W        W45140   0.006   2.986   0.775 -0.1890  0.0558 -0.0388
36341W        W45141   4.165   6.115  28.926 -0.0287 -0.1218 -0.0422
36342W        W45142   9.294   4.486  24.992  0.3132  0.2815  0.2038
36343W        W45143   3.850   6.442  27.165  0.0574  0.0140 -0.3442
36344W        W45144   0.197   6.447  30.402 -0.3529 -0.0514 -0.1994
36345W        W45145  20.991   1.079   1.065 -0.1717 -0.0951  0.2248
36346W        W45146  10.388   4.973  13.836  0.2509 -0.6088  0.0112
36347W        W45147  24.103   3.274   1.533 -0.0713  0.0450  0.0406
36348W        W45148  20.834   1.515  20.301 -0.1891 -0.2362 -0.3083
36349W        W45149   0.925   3.473   0.883  0.1204 -0.0576 -0.3118
36350W        W45150   3.547   6.901  10.455  0.1854 -0.0101 -0.2302
36351W        W45151  19.121   2.980  23.958 -0.1412 -0.2262  0.3232
36352W        W45152  11.768   7.280  16.525 -0.0857 -0.0818 -0.1020
36353W        W45153  11.994   3.452   0.832  0.0562  0.2001 -0.1157
36354W        W45154  16.086   1.955  19.558  0.0468  0.1020  0.0700
36355W        W45155  24.018   5.442   1.244 -0.0709 -0.0062 -0.0358
36356W        W45156  18.566   6.971  16.355  0.2905  0.3079 -0.0190
36357W        W45157  23.723   5.647  32.397  0.4211  0.4360 -0.1265
36358W        W45158   0.676   2.591   9.488 -0.2024  0.0425 -0.2480
36359W        W45159   3.829   4.064   7.978 -0.1032 -0.0216 -0.3380
36360W        W45160   0.526   3.641  27.464 -0.2667 -0.2660 -0.0470
36361W        W45161  21.488   1.575  32.081 -0.0320  0.2026 -0.0553
36362W        W45162  13.617   1.645  26.862  0.0410  0.0245 -0.2413
36363W        W45163  24.425   7.121   5.494 -0.0746  0.0067  0.1657
36364W        W45164  19.321   3.431  32.174 -0.2411 -0.3426 -0.0214
36365W        W45165  18.344   4.279   8.068  0.0153  0.2012 -0.2162
36366W        W45166   9.752   7.208  18.262 -0.0884 -0.0875 -0.0333
36367W        W45167  16.280   3.991   7.681 -0.2561  0.0737  0.1880
36368W        W45168   5.880   2.479  24.813 -0.3884 -0.1064 -0.0799
36369W        W45169  20.460   1.525  25.217 -0.3322  0.1572  0.0037
36370W        W45170   7.060   1.377   0.733 -0.0867  0.3904  0.0021
36371W        W45171  16.230   2.442  17.806 -0.2081  0.0096 -0.2118
36372W        W45172  12.993   7.153  12.344  0.2544  0.0361 -0.0006
36373W        W45173   0.462   0.431  23.999 -0.1442 -0.4822 -0.1879
36374W        W45174  22.619   2.809  20.124 -0.4574  0.4003  0.1329
36375W        W45175  11.799   5.855  29.780  0.0018  0.1812  0.0804
36376W        W45176   8.724   6.825  16.401 -0.2203 -0.1669  0.0340
36377W        W45177   4.717   2.675  31.117 -0.0606 -0.2276 -0.1589
36378W        W45178   3.946   7.205  25.652 -0.0511 -0.2882 -0.3228
36379W        W45179   0.871   5.528   1.859  0.0986 -0.1491  0.0963
36380W        W45180  21.356   1.178   9.386 -0.2036 -0.1599 -0.1454
36381W        W45181   4.851   7.570  31.162  0.0078  0.0074 -0.0676
36382W        W45182  20.456   3.089   5.365  0.0141 -0.0676 -0.0309
36383W        W45183  22.689   7.090  19.136 -0.1803  0.1896  0.0397
36384W        W45184  23.318   0.614   0.412  0.0559 -0.1316  0.1647
36385W        W45185  14.922   1.538   5.057  0.1949 -0.0947 -0.3485
36386W        W45186   8.945   4.796   5.448  0.0795  0.1222 -0.1436
36387W        W45187   4.404   7.079  24.135 -0.0007 -0.0678 -0.0444
36388W        W45188  12.379   2.444  26.632  0.0146  0.1421  0.2217
36389W        W45189   6.936   3.434  25.794  0.0446 -0.0347 -0.1763
36390W        W45190  19.926   5.536   2.410 -0.0595 -0.0998 -0.0063
36391W        W45191   1.892   2.042  17.683 -0.1023 -0.0784 -0.0498
36392W        W45192  19.063   0.167  32.386  0.0575  0.1459 -0.2698
36393W        W45193  23.007   0.228  19.643  0.0990  0.2534 -0.0521
36394W        W45194  13.169   0.300  26.933 -0.0537  0.0179 -0.0168
36395W        W45195   5.323   0.781  21.852  0.0125  0.1387 -0.1529
36396W        W45196   8.206   2.939  13.845 -0.0188  0.0381 -0.2616
36397W        W45197  17.167   4.450  10.816 -0.0228 -0.0440 -0.1568
36398W        W45198   4.697   4.051  24.770  0.1229 -0.0322 -0.0520
36399W        W45199  12.763   5.410   9.310 -0.2316 -0.2945 -0.3154
36400W        W45200  20.341   0.983  30.157  0.0058 -0.0425  0.2890
36401W        W45201  20.716   5.701  16.227  0.4147  0.2076  0.0217
36402W        W45202  21.487   1.254  16.871  0.0907  0.1206 -0.1786
36403W        W45203   9.819   2.294  32.016 -0.1229 -0.2529 -0.1256
36404W        W45204   4.285   3.474  10.931  0.0233  0.2127 -0.1174
36405W        W45205   1.580   0.779   3.540 -0.0212  0.0519  0.2799
36406W        W45206  20.681   3.497  19.598 -0.0121 -0.1428  0.2256
36407W        W45207  14.104   3.036   1.071  0.0558  0.0257 -0.0234
36408W        W45208   2.741   6.679  28.038 -0.2019  0.1670  0.2977
36409W        W45209  16.555   2.901  30.365  0.0315  0.0942 -0.2825
36410W        W45210   6.213   1.283   3.087 -0.2247  0.2715  0.3313
36411W        W45211   6.833   4.787  13.895  0.0003 -0.0488  0.1397
36412W        W45212   6.976   7.384   4.158  0.3789  0.0563  0.2432
36413W        W45213  19.893   6.613  25.822 -0.2232  0.3617  0.1041
36414W        W45214  22.943   0.067   0.604 -0.3477 -0.1152  0.2092
36415W        W45215   0.363   6.825  26.386 -0.0897  0.0332  0.1352
36416W        W45216   5.361   3.629  24.176 -0.2510  0.1147  0.4311
36417W        W45217  18.307   4.109  31.721  0.0001  0.0867  0.2103
36418W        W45218  16.837   5.452  25.356  0.1166  0.1288  0.0301
36419W        W45219   2.347   1.102  19.923 -0.1711 -0.0475 -0.2170
36420W        W45220   2.601   1.403  28.735  0.2455  0.2019 -0.0046
36421W        W45221  21.562   2.127   4.179  0.1262 -0.1456  0.2069
36422W        W45222  23.929   6.245  23.391  0.0088  0.1718  0.4031
36423W        W45223   4.306   6.937  23.257  0.1871  0.0653  0.5035
36424W        W45224  20.554   0.259   8.216 -0.1216 -0.0570 -0.2893
36425W        W45225  18.467   5.508  30.233  0.1890 -0.4481 -0.0604
36426W        W45226   0.391   3.469  20.918 -0.2218  0.1608  0.1514
36427W        W45227   8.130   6.780  13.157 -0.0520 -0.1296  0.1508
36428W        W45228  24.478   3.402   2.995  0.1449 -0.2156  0.1817
36429W        W45229   1.700   6.273  19.787  0.0484  0.1673  0.0661
36430W        W45230  17.890   3.295  19.569  0.0918  0.1557 -0.1184
36431W        W45231   4.551   3.058   2.012 -0.3559 -0.0136  0.2756
36432W        W45232   6.180   4.898  31.631 -0.1353 -0.0442  0.1836
36433W        W45233   1.273   2.993   1.639 -0.1313  0.1599 -0.2441
36434W        W45234  22.704   5.895   5.346 -0.0566  0.0280 -0.0757
36435W        W45235  14.093   2.116   8.286 -0.1515 -0.2687  0.2889
36436W        W45236  21.699   4.189   8.824 -0.1860  0.3291 -0.2728
36437W        W45237   2.354   1.111   3.717 -0.1550  0.2578 -0.1969
36438W        W45238  10.958   5.389   2.100 -0.1687 -0.2440  0.0984
36439W        W45239  18.994   4.554  31.071 -0.0577  0.1325 -0.0369
36440W        W45240  18.389   5.214  22.640 -0.0620 -0.2928 -0.0278
36441W        W45241  10.530   7.051  15.685  0.2824  0.2155 -0.3377
36442W        W45242   0.568   6.007   3.853 -0.1469  0.1949 -0.2917
36443W        W45243   2.040   3.060   6.764  0.1687  0.0998  0.0637
36444W        W45244  10.655   5.725  12.832  0.1177 -0.2091  0.0041
36445W        W45245   2.982   0.023  12.187 -0.4335 -0.0913  0.0039
36446W        W45246   2.875   1.798  21.034  0.2245 -0.1653  0.1403
36447W        W45247  21.036   4.482  16.105 -0.0642 -0.1070  0.4832
36448W        W45248   0.529   3.131   7.873  0.0350  0.0796  0.0254
36449W        W45249   3.460   7.140   1.373  0.0367 -0.0268  0.1109
36450W        W45250  25.000   5.740   2.329  0.2830 -0.0046 -0.2514
36451W        W45251  12.528   1.072  25.256  0.3405 -0.3930  0.1695
36452W        W45252  13.377   6.551  23.083  0.0825  0.4067  0.1277
36453W        W45253  14.580   2.294   7.120  0.0976  0.1842 -0.0911
36454W        W45254  24.415   2.576   9.838 -0.1505 -0.2311  0.1183
36455W        W45255  12.090   6.740  31.857  0.0843 -0.1405 -0.2901
36456W        W45256   0.108   6.403   0.152  0.0293  0.4647 -0.0114
36457W        W45257   8.798   4.384   6.424 -0.0414 -0.0144  0.0283
36458W        W45258  22.267   1.455  25.301  0.3206 -0.0526  0.1263
36459W        W45259  21.168   6.167  27.477 -0.1716  0.2380 -0.2879
36460W        W45260   4.676   6.605   8.453 -0.0126 -0.1767  0.2718
36461W        W45261   8.460   3.060  25.741 -0.0592  0.3223  0.2908
36462W        W45262   9.591   2.566  13.754 -0.0049  0.1290 -0.0928
36463W        W45263  18.653   1.040   0.031 -0.3268  0.1732 -0.0229
36464W        W45264   9.686   2.116  10.513 -0.0627  0.2840 -0.0153
36465W        W45265   3.139   6.084   1.016  0.1835  0.0332  0.1364
36466W        W45266   6.343   2.265  14.308  0.0504  0.3062  0.1025
36467W        W45267  16.636   6.380   6.977 -0.0846 -0.0618 -0.0728
36468W        W45268   2.677   2.078  26.422 -0.2782 -0.3424 -0.2360
36469W        W45269  10.236   4.125   7.827 -0.0889  0.1908  0.1901
36470W        W45270   4.763   1.188  10.585 -0.2150  0.2506 -0.0065
36471W        W45271  15.229   1.747   2.530  0.1838 -0.5244 -0.2792
36472W        W45272   8.843   5.344  23.168 -0.0561 -0.3357  0.2030
36473W        W45273   7.767   4.094  14.949  0.2620  0.1572  0.5370
36474W        W45274  10.625   4.824  26.853 -0.0623  0.1478  0.2807
36475W        W45275   9.101   6.748  30.112 -0.2736  0.1077 -0.0392
36476W        W45276   0.874   6.396   5.018  0.0600  0.3521  0.1170
36477W        W45277  18.973   1.435  14.977 -0.2691 -0.1749 -0.0535
36478W        W45278  14.919   6.602   2.335  0.1178 -0.2099  0.0599
36479W        W45279  21.132   7.133  32.663 -0.1421  0.1096 -0.1731
36480W        W45280  19.526   1.218  26.669  0.1575 -0.2100  0.1621
36481W        W45281  24.126   4.393   4.876  0.0382 -0.1958 -0.1762
36482W        W45282   1.877   7.522   1.105  0.1222 -0.0398  0.3081
36483W        W45283  13.721   7.791  24.456 -0.1959 -0.1696  0.2498
36484W        W45284   6.042   3.997  28.026 -0.1582  0.1478 -0.0415
36485W        W45285  18.531   7.133  29.486 -0.1770 -0.0565 -0.0698
36486W        W45286  24.405   7.797  21.934 -0.1981  0.0286  0.1990
36487W        W45287   6.466   0.742  13.232  0.1033 -0.1136 -0.2038
36488W        W45288  17.702   0.783  22.791 -0.0115 -0.2041 -0.1709
36489W        W45289  24.351   2.122   9.723 -0.2174  0.1863  0.3828
36490W        W45290  12.430   1.678  23.124  0.1113  0.0677 -0.2508
36491W        W45291   7.838   5.028  13.066 -0.0563  0.0076  0.0778
36492W        W45292   2.579   6.878   4.733 -0.1040 -0.3955  0.2492
36493W        W45293  16.200   2.179  18.746  0.0028  0.0904 -0.0160
36494W        W45294  16.725   6.183  29.692 -0.0938 -0.3001 -0.0574
36495W        W45295  11.505   1.441   0.820  0.0471 -0.1599  0.0491
36496W        W45296   5.007   4.971   0.154  0.0509 -0.0595  0.1237
36497W        W45297  11.886   5.156  29.486 -0.0040 -0.2140  0.2147
36498W        W45298  19.189   5.082  21.041 -0.1195  0.0904  0.2218
36499W        W45299   7.927   0.708  14.922  0.2408 -0.0777 -0.1434
36500W        W45300  23.289   2.575  26.177 -0.0444  0.2356 -0.3252
36501W        W45301  23.254   4.406  21.044 -0.1155  0.2404 -0.1515
36502W        W45302  20.165   2.262  30.933  0.2042 -0.2478 -0.3021
36503W        W45303  15.618   4.823  26.385  0.0567 -0.3014  0.2881
36504W        W45304  16.472   6.364  25.718 -0.1398 -0.0064  0.4829
36505W        W45305   8.205   4.111  24.057 -0.1286 -0.2903  0.1091
36506W        W45306  11.853   4.599  25.365  0.0822  0.1715 -0.3177
36507W        W45307  17.729   3.421   8.918 -0.1289  0.2615 -0.0714
36508W        W45308  10.489   6.206  18.208 -0.2754  0.1453 -0.0775
36509W        W45309   4.208   0.602  12.049  0.0843  0.1716 -0.2344
36510W        W45310   6.613   4.684  14.823  0.1676  0.0307 -0.2141
36511W        W45311  20.242   5.770   3.899  0.1713 -0.0745  0.0698
36512W        W45312  22.312   1.236  23.979  0.1490 -0.1463  0.0149
36513W        W45313  21.623   3.790  23.034  0.0927  0.0208  0.2148
36514W        W45314  23.649   5.918  19.477 -0.0350  0.0203  0.3350
36515W        W45315   4.490   7.507   0.863  0.4875  0.0211 -0.1442
36516W        W45316  23.022   6.076   2.548 -0.0938  0.0068  0.1170
36517W        W45317  23.406   3.719  15.452  0.1764 -0.0459 -0.1647
36518W        W45318  10.356   3.416  17.044  0.0107 -0.0663  0.4160
36519W        W45319  19.964   0.740  23.886 -0.0140 -0.1495 -0.1841
36520W        W45320   6.186   5.459  27.179  0.1188 -0.2512 -0.3461
36521W        W45321   8.222   0.690  25.904 -0.2165 -0.0542 -0.0593
36522W        W45322   2.466   2.639  23.106  0.0188 -0.0337  0.0880
36523W        W45323   6.913   4.034  31.924  0.2726 -0.1349 -0.0344
36524W        W45324  15.578   3.070  25.346 -0.4096 -0.0631  0.0519
36525W        W45325   9.717   3.282   8.528  0.0497 -0.1669 -0.2056
36526W        W45326  14.894   2.531   2.734  0.1169 -0.0104  0.0916
36527W        W45327   1.693   1.319   6.231 -0.1778  0.1893  0.0785
36528W        W45328   8.284   6.633  11.412  0.0480 -0.1509  0.2706
36529W        W45329  12.790   0.118   6.384 -0.3021 -0.1808  0.0927
36530W        W45330   7.299   3.507  17.723  0.1142  0.0870 -0.2559
36531W        W45331  24.236   1.424   1.822  0.0679 -0.2792 -0.1306
36532W        W45332   7.924   7.670   7.391  0.0092 -0.0881  0.1433
36533W        W45333  17.574   4.399  17.419  0.2832  0.1133 -0.2745
36534W        W45334   2.003   6.673  11.412 -0.2548  0.2652  0.2075
36535W        W45335  18.934   7.822  20.937 -0.3456 -0.1073 -0.2451
36536W        W45336  21.011   0.201  24.706 -0.0907  0.2016  0.2627
36537W        W45337  13.578   6.436   0.385  0.0325  0.3271 -0.0076
36538W        W45338   6.597   2.224  26.140 -0.1093 -0.0696 -0.0201
36539W        W45339  12.115   0.601   9.002 -0.0578 -0.2122  0.2098
36540W        W45340  23.832   4.704  16.649  0.0042  0.0112  0.0489
36541W        W45341  22.887   0.167   2.817 -0.2182  0.2821 -0.2143
36542W        W45342  24.359   2.472   0.492 -0.0774 -0.0767  0.2594
36543W        W45343  24.803   7.096  32.263 -0.3787 -0.1802 -0.2634
36544W        W45344  10.427   7.497  24.302  0.1232  0.1109 -0.1835
36545W        W45345  13.347   3.767  11.958 -0.2612 -0.0367 -0.0419
36546W        W45346  22.898   2.014  23.377 -0.1195 -0.0572 -0.5240
36547W        W45347  22.397   6.304  19.260 -0.1756 -0.2094  0.1109
36548W        W45348  23.101   6.328  27.870  0.1766  0.0422 -0.2961
36549W        W45349   6.154   6.421  10.415 -0.0065  0.1678 -0.0878
36550W        W45350   7.356   4.152  22.826 -0.1681 -0.0670 -0.0754
36551W        W45351  13.530   2.002   0.239 -0.2937  0.0440  0.3033
36552W        W45352  18.939   0.208   8.173 -0.2376 -0.2395  0.1539
36553W        W45353  10.588   2.261   6.896 -0.2194 -0.1128 -0.1316
36554W        W45354   3.795   0.965   7.675  0.0737  0.1082  0.4004
36555W        W45355  22.434   7.577  15.867  0.1017  0.1851  0.3415
36556W        W45356   1.891   4.346  29.737  0.2040 -0.2532 -0.1615
36557W        W45357  18.432   7.359  17.088  0.2646 -0.0094  0.1519
36558W        W45358  23.848   4.989   1.118 -0.2668  0.2640 -0.0632
36559W        W45359  19.992   7.001  20.584 -0.0878 -0.0588 -0.0133
36560W        W45360  11.216   6.473   8.723 -0.0380 -0.1116 -0.1985
36561W        W45361   6.916   3.655  13.457  0.1537 -0.1035  0.0682
36562W        W45362  15.596   7.677  31.777  0.1837  0.2581  0.0316
36563W        W45363  11.365   3.553  16.725  0.1888 -0.0037 -0.4987
36564W        W45364  19.950   0.182  18.076  0.0669  0.1000  0.1381
36565W        W45365  10.489   7.577  14.091  0.2990  0.1013  0.1078
36566W        W45366   2.625   6.665  10.767 -0.5091 -0.0362 -0.0476
36567W        W45367  18.406   7.771  22.969  0.2683 -0.2964  0.1626
36568W        W45368  13.190   5.311  24.539  0.0316  0.1816 -0.1372
36569W        W45369   0.462   4.235  25.608 -0.0773  0.0532  0.1490
36570W        W45370  23.976   5.223  27.953 -0.0983 -0.0658  0.1520
36571W        W45371  14.433   0.541   9.949 -0.1810 -0.1456 -0.2016
36572W        W45372  19.929   3.120  29.082 -0.1553 -0.2723  0.1808
36573W        W45373   8.405   5.613   0.972  0.2725  0.1860 -0.0120
36574W        W45374  19.389   1.531  17.107  0.1742 -0.0602  0.2909
36575W        W45375   6.364   6.678  28.423 -0.4813 -0.0618  0.0432
36576W        W45376  22.995   2.625   4.488  0.0737  0.0939  0.0654
36577W        W45377   8.229   2.544   7.080  0.0041 -0.1327  0.1627
36578W        W45378  18.518   2.257   6.591 -0.3217 -0.1330  0.1784
36579W        W45379  11.590   6.112  30.688  0.1481  0.0647  0.1146
36580W        W45380  11.205   5.171   0.428 -0.1510  0.1528 -0.2271
36581W        W45381   5.388   0.066   0.303  0.0514  0.1316  0.1465
36582W        W45382   7.595   6.408   4.576  0.0810 -0.0842 -0.1751
36583W        W45383  24.889   1.398  27.612 -0.1150 -0.2153  0.6425
36584W        W45384  19.937   1.048  25.780 -0.0445  0.0942  0.1402
36585W        W45385   6.042   7.120   7.655  0.0332 -0.0330 -0.1467
36586W        W45386  11.614   5.462  16.319 -0.3026 -0.1870  0.0832
36587W        W45387   9.434   2.821   9.883 -0.0511 -0.2507 -0.0187
36588W        W45388  12.703   7.740  29.350 -0.0387 -0.1979 -0.1023
36589W        W45389   6.179   6.945  11.864  0.2062 -0.1821 -0.0308
36590W        W45390  10.366   0.957  23.122 -0.1604  0.1150 -0.0618
36591W        W45391  19.175   1.592  30.502 -0.1200 -0.0382  0.0924
36592W        W45392   4.449   0.975  15.374  0.1809 -0.0149 -0.0950
36593W        W45393   2.987   4.622   5.014  0.0898  0.1403  0.3592
36594W        W45394   7.965   6.327   6.410  0.1908 -0.0973 -0.0390
36595W        W45395   4.474   0.999  31.009  0.1936 -0.1628 -0.1824
36596W        W45396   2.014   0.665   0.144  0.0871 -0.0535 -0.0729
36597W        W45397   3.137   6.853   1.057 -0.0537  0.1201 -0.4426
36598W        W45398  23.008   0.068  18.587 -0.3295  0.2351  0.0356
36599W        W45399   0.371   6.234  29.741  0.1032 -0.3594  0.0642
36600W        W45400   6.592   2.614  12.557 -0.0388  0.0047  0.1957
36601W        W45401  19.498   7.236   2.729  0.0441 -0.3569  0.1353
36602W        W45402   5.910   4.990  27.360 -0.0022  0.2011 -0.1773
36603W        W45403   2.519   3.616   1.961  0.1464  0.1795  0.0493
36604W        W45404  18.286   5.430  19.528  0.0326  0.0877 -0.3429
36605W        W45405  12.119   3.037  28.898  0.1636 -0.0690 -0.0066
36606W        W45406   1.781   0.288  22.860 -0.1843  0.3324  0.0296
36607W        W45407  13.924   0.603  30.746 -0.0007  0.1674  0.0412
36608W        W45408  23.625   7.094   9.338  0.1154  0.0932  0.0599
36609W        W45409  22.791   6.289  28.616 -0.1235  0.0809  0.2068
36610W        W45410   8.297   4.744   9.541 -0.1043  0.0464  0.0318
36611W        W45411  10.835   2.161   9.109  0.0654  0.2503  0.0230
36612W        W45412   7.221   2.388   8.047 -0.0125 -0.0374 -0.1788
36613W        W45413  14.567   3.901   8.212 -0.0137 -0.1148 -0.1546
36614W        W45414  14.234   4.456  21.454 -0.5448  0.3127 -0.0067
36615W        W45415   5.534   3.800  27.527  0.0280 -0.0987 -0.2471
36616W        W45416   4.710   7.074   1.832 -0.0850 -0.0232  0.1274
36617W        W45417  10.412   5.347  25.957  0.0055  0.1222  0.0240
36618W        W45418   3.387   6.485  27.037  0.0656 -0.0975 -0.0321
36619W        W45419   4.774   7.507   6.047 -0.0034 -0.2306  0.0477
36620W        W45420   6.647   4.228  15.880 -0.1776  0.1299 -0.1076
36621W        W45421   0.637   0.779   9.448 -0.2239  0.1804  0.0482
36622W        W45422   6.221   6.007  26.645 -0.1538 -0.2819 -0.2561
36623W        W45423   8.601   5.355   3.380 -0.2366  0.2464  0.1610
36624W        W45424   5.065   5.984   3.911  0.0297 -0.2198  0.1294
36625W        W45425   6.959   5.795  17.616 -0.0511 -0.1847 -0.2389
36626W        W45426  14.249   5.514   7.655  0.0902  0.1179 -0.0949
36627W        W45427   0.164   6.808   0.426 -0.2413  0.1157  0.0281
36628W        W45428  14.013   0.981   8.784  0.3618 -0.1315  0.2115
36629W        W45429   0.881   0.435  27.243 -0.0059  0.0208 -0.0238
36630W        W45430   8.974   6.765  14.548 -0.5998 -0.0775  0.2330
36631W        W45431   1.469   6.051   3.917 -0.3493  0.0743 -0.1735
36632W        W45432  14.274   4.987   6.539 -0.1099 -0.1024 -0.0147
36633W        W45433  10.988   6.269  28.333  0.2298 -0.2046  0.0241
36634W        W45434   4.646   7.184  23.047  0.0177 -0.1954  0.1700
36635W        W45435  17.437   4.006  17.844  0.3686 -0.5470 -0.1508
36636W        W45436  23.791   0.488  22.912  0.1417 -0.1305  0.0090
36637W        W45437  16.250   6.998   6.099  0.1908  0.0085 -0.2040
36638W        W45438  17.370   2.427   2.586 -0.2699 -0.0240  0.2685
36639W        W45439  20.897   6.754  20.849  0.1653  0.2680  0.2097
36640W        W45440  14.829   7.238  10.459 -0.0348 -0.0400 -0.1678
36641W        W45441  10.742   7.766  25.212  0.0324 -0.2615 -0.2140
36642W        W45442  19.058   5.733   2.111  0.1564  0.0419 -0.1650
36643W        W45443  11.265   3.392  29.672 -0.2052 -0.2622  0.2222
36644W        W45444  23.682   2.159   0.955 -0.0670 -0.2974 -0.1439
36645W        W45445  20.437   5.894   0.070  0.3587 -0.0015  0.0834
36646W        W45446  17.008   1.559   2.309  0.0184 -0.0265 -0.3183
36647W        W45447  17.459   6.195   9.161 -0.2297 -0.0807  0.2141
36648W        W45448  14.214   4.249  12.815 -0.0044  0.0901  0.0439
36649W        W45449  23.400   5.090  15.056 -0.0185 -0.0332 -0.0332
36650W        W45450  10.963   7.072  14.360  0.1149 -0.0767  0.2513
36651W        W45451   4.055   4.649  21.480 -0.1257 -0.0993  0.1721
36652W        W45452   9.502   1.263  15.701  0.2523  0.0255  0.1089
36653W        W45453  13.246   4.006  23.686  0.2650 -0.0563  0.3193
36654W        W45454   2.705   3.193   9.146  0.0497 -0.1872  0.1312
36655W        W45455  20.004   5.132  28.329  0.0215  0.2415 -0.1516
36656W        W45456  10.073   7.673  16.591 -0.0848  0.1525 -0.1371
36657W        W45457  11.312   2.874  11.996  0.1759  0.3153  0.1139
36658W        W45458  15.651   2.051   0.012 -0.0323 -0.4529 -0.0649
36659W        W45459  15.543   7.072   1.531  0.1273  0.2594 -0.0571
36660W        W45460  15.165   0.339  21.855 -0.0240 -0.2419 -0.5702
36661W        W45461  18.798   0.777  27.240  0.1408 -0.0314  0.1128
36662W        W45462  10.817   3.869  17.430 -0.0518  0.1394  0.1962
36663W        W45463  20.229   6.640  28.665 -0.5101  0.2264 -0.0986
36664W        W45464  16.268   7.521   6.033  0.1369  0.3988 -0.1486
36665W        W45465  14.930   7.157   8.619 -0.1238 -0.0827 -0.0818
36666W        W45466   9.424   3.303  18.133  0.0313  0.4069  0.1174
36667W        W45467  24.546   5.134  26.495 -0.0723 -0.0304 -0.0748
36668W        W45468  11.483   1.910  22.520 -0.2381  0.0470 -0.2344
36669W        W45469  16.116   6.647   0.511  0.2020 -0.5113  0.0137
36670W        W45470  24.950   5.418  25.305 -0.2359 -0.1656 -0.2395
36671W        W45471  18.772   3.856  10.033 -0.0825 -0.1094  0.0886
36672W        W45472  23.310   7.636  23.673 -0.1543  0.2519 -0.0411
36673W        W45473  15.885   6.073  11.213 -0.3151 -0.2336 -0.0798
36674W        W45474  17.136   2.503  27.467 -0.1077  0.0381 -0.1705
36675W        W45475  15.497   4.455  29.030  0.2761  0.4767  0.2211
36676W        W45476  19.667   5.039  19.940 -0.0609  0.2840 -0.1484
36677W        W45477  25.027   3.137  18.204 -0.0252 -0.1551  0.0958
36678W        W45478   4.891   2.028  14.889  0.1868 -0.0533 -0.1392
36679W        W45479   7.698   7.696  10.889 -0.4417 -0.1556 -0.1610
36680W        W45480  12.479   5.036  12.569  0.2379  0.0336 -0.0519
36681W        W45481  13.890   1.218  12.500 -0.0460 -0.0441  0.0546
36682W        W45482   2.657   0.686  32.250  0.0551 -0.3572  0.0284
36683W        W45483  10.831   5.415  29.638  0.1268 -0.0352  0.0431
36684W        W45484   5.446   3.458  25.817 -0.2096  0.0720  0.1082
36685W        W45485  20.040   6.617  26.972  0.0277 -0.0075 -0.2386
36686W        W45486   2.054   6.080   6.912  0.0794  0.0635 -0.2446
36687W        W45487   2.802   2.895  21.585  0.1626  0.0202  0.0601
36688W        W45488  20.318   6.357  22.114  0.2072 -0.2042  0.1533
36689W        W45489   5.209   7.576   6.563 -0.2897  0.0003  0.1759
36690W        W45490  14.248   5.162   1.954  0.0430  0.0129 -0.1282
36691W        W45491   4.618   4.187  29.354 -0.2323 -0.1410 -0.0174
36692W        W45492   9.504   4.314  13.221 -0.0463  0.0721 -0.1913
36693W        W45493   7.295   6.556  22.064 -0.2206  0.2404  0.1488
36694W        W45494  14.356   4.875  26.389 -0.0397 -0.0759  0.1325
36695W        W45495  12.200   5.238  26.790 -0.0012  0.0059 -0.0337
36696W        W45496  12.196   7.310  26.563  0.1637  0.3530  0.0554
36697W        W45497  10.478   7.270  26.040  0.1393  0.1775 -0.2346
36698W        W45498  11.756   7.021  30.667 -0.2830 -0.0268  0.0372
36699W        W45499   8.683   5.729  12.514  0.2413 -0.0966 -0.2690
36700W        W45500   9.339   2.363  28.370 -0.0496 -0.0590 -0.0774
36701W        W45501  18.244   7.469  25.880  0.0305 -0.4337 -0.0944
36702W        W45502   8.500   7.783   8.549  0.2149  0.0687 -0.1187
36703W        W45503   9.706   7.174   5.431 -0.0898  0.0363  0.0281
36704W        W45504   9.873   4.091  32.434 -0.2909 -0.1199 -0.0560
36705W        W45505  16.936   0.829  23.226 -0.4001 -0.0322 -0.0925
36706W        W45506  20.845   1.095  23.981  0.1389  0.2015  0.0012
36707W        W45507   8.720   4.847  16.645  0.2518  0.0918  0.0892
36708W        W45508   5.106   1.781   9.641 -0.0172  0.1340  0.0297
36709W        W45509  15.827   4.675  32.035 -0.2932 -0.0459 -0.1866
36710W        W45510  14.091   4.365  32.083  0.3269  0.2183  0.0371
36711W        W45511  18.772   4.136  26.323 -0.2232 -0.1713  0.1040
36712W        W45512  14.580   0.507  31.005 -0.0951  0.0513 -0.0744
36713W        W45513  24.051   5.729  24.147  0.4277  0.1809  0.0525
36714W        W45514  21.387   7.141  27.127 -0.0566  0.0516 -0.1029
36715W        W45515   6.368   4.383  16.246 -0.0210 -0.0651  0.0845
36716W        W45516   1.188   4.615  26.735  0.1864  0.2099  0.1571
36717W        W45517   7.223   7.332  10.009 -0.1561 -0.1967  0.0254
36718W        W45518  12.615   2.959  11.243 -0.1171  0.1710  0.1190
36719W        W45519   4.456   1.161   2.287 -0.1056 -0.2323 -0.1280
36720W        W45520   0.207   0.703  23.529 -0.0304  0.4643  0.0591
36721W        W45521  22.730   2.963   2.815  0.1526 -0.2553  0.1127
36722W        W45522  21.119   1.830  22.535 -0.2691 -0.0577  0.1985
36723W        W45523  14.261   2.776  26.799  0.0166  0.0315 -0.0380
36724W        W45524   3.945   1.030   2.090 -0.1501  0.0433 -0.0065
36725W        W45525  16.950   7.614   1.230 -0.2824  0.1814  0.1748
36726W        W45526   8.697   4.134  30.043 -0.0499  0.0167 -0.1185
36727W        W45527   3.095   1.831  24.980  0.1375 -0.4400 -0.3903
36728W        W45528  21.893   4.716   1.365  0.0909 -0.0850 -0.2002
36729W        W45529  13.955   3.136  24.883 -0.0586 -0.1400 -0.0167
36730W        W45530  13.765   5.944   0.447 -0.0714  0.1551 -0.0024
36731W        W45531  22.860   7.662  26.809 -0.1710 -0.0364  0.1061
36732W        W45532   8.771   5.230   1.393  0.2721 -0.2915 -0.0574
36733W        W45533   2.796   1.738  10.181  0.1184 -0.0094  0.0568
36734W        W45534  24.985   7.793   3.678 -0.0777 -0.1067 -0.3086
36735W        W45535  19.060   4.471  27.677 -0.0081  0.3356  0.3301
36736W        W45536   6.479   5.006   8.351  0.1566 -0.1186  0.2872
36737W        W45537  15.840   4.540   1.485 -0.3216 -0.1075  0.3032
36738W        W45538   7.659   6.987  22.493 -0.2882  0.0947  0.0106
36739W        W45539   9.209   2.865  13.709 -0.3206  0.0746 -0.3724
36740W        W45540   7.469   3.311   5.848 -0.3608  0.2099 -0.1373
36741W        W45541   8.239   6.430  10.612  0.0104  0.2557  0.0010
36742W        W45542  21.731   6.703   4.536 -0.0936 -0.0398 -0.1605
36743W        W45543  20.491   1.975   1.026 -0.0762  0.1113  0.1549
36744W        W45544   3.197   0.658   4.855  0.0498  0.1753 -0.0206
36745W        W45545  18.318   7.180  19.570  0.1459 -0.0091  0.1763
36746W        W45546   7.578   4.767  23.401  0.0415  0.2091  0.3724
36747W        W45547  23.879   2.916   9.150  0.1333  0.2250  0.2166
36748W        W45548  15.574   2.848  10.650 -0.0544  0.1480 -0.0007
36749W        W45549   0.712   3.315  25.723  0.3178 -0.4659  0.2971
36750W        W45550   2.694   2.138   7.289 -0.0780 -0.0262  0.0492
36751W        W45551  14.099   1.822  25.115 -0.4316 -0.2560  0.2113
36752W        W45552   0.470   1.264  21.391 -0.0434  0.0008  0.1045
36753W        W45553   2.839   1.915   4.131  0.1517 -0.1615 -0.3459
36754W        W45554  21.300   6.709  15.464  0.0867 -0.0901  0.1713
36755W        W45555  21.841   3.527  22.141  0.2154 -0.1018  0.5103
36756W        W45556  17.300   0.279  21.667  0.0793 -0.1631  0.1240
36757W        W45557  16.319   0.168  31.832  0.1761 -0.1463  0.0229
36758W        W45558   2.716   5.281  20.997 -0.0002  0.0405 -0.0110
36759W        W45559   7.282   7.226  30.565  0.2638 -0.0490  0.3346
36760W        W45560   8.665   3.137   5.057  0.1370  0.1425 -0.0141
36761W        W45561  20.714   7.629   1.763 -0.4665  0.2479  0.0833
36762W        W45562  16.814   5.380  30.522  0.1788  0.0197  0.1079
36763W        W45563  12.366   5.568  24.469  0.1257  0.1502  0.2846
36764W        W45564   8.370   0.972  26.502  0.0860  0.0358 -0.1188
36765W        W45565  18.205   3.341  23.590 -0.0995 -0.0172 -0.0235
36766W        W45566  12.382   0.229  12.642 -0.1472  0.3329  0.0904
36767W        W45567  12.963   1.787  10.593 -0.0560  0.0079 -0.1776
36768W        W45568  18.800   7.376  16.487  0.3414 -0.3282  0.2365
36769W        W45569   4.881   0.743  27.314 -0.3091 -0.0513  0.1841
36770W        W45570   1.445   3.154  18.890 -0.0050  0.1486 -0.1951
36771W        W45571  11.088   4.935  26.927  0.3226  0.0437  0.0223
36772W        W45572  22.236   6.002   5.091  0.1427  0.1702  0.2680
36773W        W45573  15.448   6.131   6.344  0.3182  0.2638 -0.3326
36774W        W45574  10.347   1.247   5.079  0.0132 -0.2816  0.0544
36775W        W45575  18.744   3.939  21.313 -0.1252  0.0066 -0.0776
36776W        W45576   8.711   0.273   7.865 -0.0681  0.1736 -0.3074
36777W        W45577  20.505   6.275  17.393  0.0501  0.1950  0.2951
36778W        W45578   6.390   0.426  14.691 -0.0089 -0.0269 -0.2091
36779W        W45579  10.278   4.675  14.229  0.1985  0.3087 -0.2419
36780W        W45580   2.628   7.504  29.306  0.2200 -0.0420 -0.1923
36781W        W45581  16.714   1.832   7.103 -0.1668  0.0364 -0.3010
36782W        W45582  11.956   0.593   5.256  0.3085  0.2414 -0.2280
36783W        W45583  22.382   4.191  22.929 -0.1570  0.0904  0.2486
36784W        W45584  10.444   0.039  11.203 -0.1939  0.0442  0.0080
36785W        W45585   8.992   0.208   3.842  0.0853  0.1926  0.1256
36786W        W45586  12.159   6.034   9.669 -0.2684  0.0668 -0.1382
36787W        W45587   0.120   3.554   6.729 -0.1056  0.0350  0.2856
36788W        W45588  13.833   4.783  31.830 -0.1635  0.0485  0.1508
36789W        W45589   8.014   7.026  29.976 -0.1601  0.0646 -0.2533
36790W        W45590  23.020   2.172  26.947  0.3062 -0.0594 -0.1019
36791W        W45591   5.783   3.147   6.391 -0.2684 -0.0557  0.0237
36792W        W45592  11.248   0.162  22.477 -0.0950 -0.1048  0.0232
36793W        W45593   9.440   7.228  22.656 -0.4403 -0.1440 -0.0541
36794W        W45594   4.936   4.258   2.502 -0.2834 -0.2876 -0.2093
36795W        W45595  14.627   0.206  21.665  0.3995  0.0414 -0.0876
36796W        W45596  18.122   2.595   5.587  0.1668  0.2023 -0.0780
36797W        W45597  25.040   6.711   9.091 -0.0431 -0.0160 -0.3512
36798W        W45598   5.479   7.426   0.077  0.3796  0.0353  0.0699
36799W        W45599   5.386   3.319  12.780 -0.2549 -0.2314  0.0154
36800W        W45600  16.195   3.044   3.720 -0.0669 -0.3093 -0.5566
36801W        W45601  24.555   6.611   3.174  0.2301 -0.0343  0.1715
36802W        W45602   4.888   0.691  27.838  0.3603 -0.1815 -0.0959
36803W        W45603  20.843   3.435   7.924  0.0145 -0.0291  0.0265
36804W        W45604  16.618   5.120  22.023 -0.0418 -0.0463 -0.0070
36805W        W45605  12.464   1.688  29.789 -0.1690  0.2912 -0.0264
36806W        W45606   7.018   1.713   2.819 -0.0798  0.1827  0.0930
36807W        W45607   4.039   0.559  23.346  0.1022  0.1428 -0.1393
36808W        W45608   0.953   6.899   0.240  0.1186 -0.3460 -0.0187
36809W        W45609   3.399   1.737  22.168  0.3678 -0.0180 -0.0141
36810W        W45610  24.182   2.216  29.143 -0.1912 -0.1831  0.0470
36811W        W45611  24.281   4.300  17.869 -0.1083 -0.1204  0.1941
36812W        W45612  10.987   7.172   1.834  0.2116  0.0635  0.3738
36813W        W45613  10.864   6.307   1.499 -0.0171 -0.0103  0.0166
36814W        W45614   7.142   3.584  12.459 -0.1701  0.1163  0.3216
36815W        W45615   2.993   6.029  24.694 -0.0680  0.0293 -0.0875
36816W        W45616  10.927   7.777   1.246 -0.0414 -0.1299  0.2529
36817W        W45617   9.567   2.105   2.136 -0.1312  0.1313  0.4040
36818W        W45618  20.015   4.935  22.212  0.1606 -0.0572  0.2336
36819W        W45619   8.140   1.447   1.121  0.0950  0.0257  0.0404
36820W        W45620   8.680   2.980  23.037 -0.4754 -0.0565 -0.0512
36821W        W45621   2.278   6.787  28.101 -0.0005  0.3907 -0.1539
36822W        W45622  21.064   7.403  17.618 -0.1290 -0.2064  0.1454
36823W        W45623  21.362   2.404  27.376  0.0227  0.1427  0.2292
36824W        W45624  15.017   5.473  30.046  0.0628  0.2629 -0.1053
36825W        W45625  19.216   5.209  29.817  0.2406 -0.1481 -0.2812
36826W        W45626  13.897   6.046   8.132 -0.0090  0.0729  0.3000
36827W        W45627   9.254   3.044  31.221 -0.0120 -0.0416 -0.0838
36828W        W45628  10.659   0.923  17.643  0.1793  0.2280 -0.2585
36829W        W45629   5.700   2.544  22.662  0.3384 -0.0391  0.0954
36830W        W45630  21.355   4.834  32.548 -0.0569  0.0409  0.3456
36831W        W45631  20.660   2.018  26.338 -0.0878 -0.1740  0.0828
36832W        W45632   0.488   7.794  23.718 -0.1576  0.0377  0.2265
36833W        W45633   0.389   5.678   3.323 -0.2394  0.3479 -0.2633
36834W        W45634  15.551   3.961  21.082 -0.0414  0.0391 -0.0094
36835W        W45635  19.022   4.782  22.948 -0.1983 -0.1833 -0.2820
36836W        W45636  10.055   5.763   1.064 -0.5236  0.2064 -0.2627
36837W        W45637  10.358   4.826  10.393 -0.2304 -0.0594  0.0707
36838W        W45638   1.088   5.853  19.524  0.1882 -0.0928 -0.0429
36839W        W45639  20.091   0.136  19.465  0.1994 -0.0416  0.1105
36840W        W45640  19.504   2.962  31.227  0.1961  0.2661 -0.1825
36841W        W45641  21.579   5.430  15.736 -0.0456 -0.2616  0.2255
36842W        W45642  24.216   1.807  26.268 -0.1813  0.4392 -0.0027
36843W        W45643   6.165   4.653   6.163 -0.2207  0.1688  0.0162
36844W        W45644  14.811   5.083  26.408 -0.1210 -0.1269 -0.0802
36845W        W45645   7.590   6.497  13.918 -0.0035  0.0435 -0.2707
36846W        W45646  24.375   5.530  19.785 -0.0315  0.0738  0.1600
36847W        W45647   4.597   2.612   6.364 -0.0335 -0.3187 -0.0662
36848W        W45648   4.294   6.312  25.279  0.0603 -0.1526  0.3949
36849W        W45649  18.955   0.808  31.353 -0.0574  0.0299 -0.2123
36850W        W45650  18.766   5.438  27.593  0.3030 -0.0868  0.2053
36851W        W45651  11.870   2.395  11.380 -0.0624  0.1369  0.1230
36852W        W45652   7.195   0.341  29.348  0.2582  0.0226  0.1423
36853W        W45653  11.746   5.254   7.863  0.0976 -0.0595  0.0744
36854W        W45654   6.298   3.996   7.956 -0.1415 -0.1419  0.0365
36855W        W45655  17.955   0.668  20.322  0.1860 -0.1190  0.4566
36856W        W45656   1.225   6.813   5.103 -0.0959  0.1130  0.3928
36857W        W45657  19.161   6.935  19.295  0.2327 -0.0118 -0.0046
36858W        W45658  15.258   6.670  26.789 -0.1717  0.0557 -0.2041
36859W        W45659   4.556   5.897  31.611 -0.1573  0.1910  0.0417
36860W        W45660  16.243   0.590  27.316 -0.1151 -0.0560 -0.1117
36861W        W45661  10.276   7.011   2.705 -0.1610 -0.0556  0.2246
36862W        W45662  20.634   4.685  32.224  0.1280 -0.1991 -0.1264
36863W        W45663  15.176   7.370  11.537 -0.2837  0.1182  0.0786
36864W        W45664   0.819   5.483  32.037 -0.0912 -0.1537 -0.2627
36865W        W45665  17.900   1.687  30.340  0.2036  0.1401 -0.0628
36866W        W45666  17.679   5.775  27.995  0.1021 -0.1249  0.2745
36867W        W45667  23.206   2.423  25.371  0.1017  0.0220  0.2176
36868W        W45668  11.614   0.904   8.185 -0.1660 -0.0162 -0.2445
36869W        W45669  16.278   5.471   2.462 -0.2556 -0.1247 -0.0254
36870W        W45670  20.447   6.339   2.130 -0.1822  0.1353  0.1966
36871W        W45671  24.659   1.699  10.514  0.0163 -0.0636 -0.2880
36872W        W45672  17.937   1.290  26.579  0.1969  0.1106 -0.0864
36873W        W45673  24.536   5.910  28.075 -0.0393 -0.1603  0.0088
36874W        W45674  14.417   0.284  30.044  0.0855 -0.0169  0.2143
36875W        W45675  24.419   1.736   2.493 -0.1018 -0.1822  0.2014
36876W        W45676   6.466   4.020  12.783  0.0774 -0.0588  0.1801
36877W        W45677  23.803   5.206  24.103 -0.2085 -0.0221 -0.2186
36878W        W45678  17.857   6.494   1.116  0.3260 -0.1848 -0.1522
36879W        W45679  17.908   4.186   6.779  0.0157 -0.0947  0.2348
36880W        W45680   0.981   4.119  30.392  0.0862 -0.1655 -0.2198
36881W        W45681  17.040   5.096   9.413  0.1002  0.2666  0.2202
36882W        W45682  12.301   6.082  28.835  0.2579  0.2516  0.1075
36883W        W45683   3.572   7.809   8.612  0.2161 -0.0353 -0.1119
36884W        W45684  22.886   5.880  17.810 -0.2611  0.0343  0.2027
36885W        W45685   9.496   0.148  17.539 -0.2169  0.0398  0.3873
36886W        W45686  12.805   3.561   0.270 -0.0329 -0.4309  0.0540
36887W        W45687   2.454   7.085   2.725 -0.1079 -0.1536 -0.3580
36888W        W45688   0.830   1.800  20.731  0.1050 -0.1363  0.3099
36889W        W45689  23.776   3.272  32.170 -0.0231  0.0593  0.2881
36890W        W45690  24.735   6.548   9.464 -0.1230  0.2842  0.0783
36891W        W45691  19.275   1.504  18.977  0.3743 -0.2395 -0.0259
36892W        W45692   2.547   4.001   7.638  0.1809  0.0538 -0.4818
36893W        W45693  15.929   2.366  29.097  0.1987 -0.0424 -0.1943
36894W        W45694   9.791   6.155  27.998 -0.1083 -0.2502  0.0459
36895W        W45695  14.507   3.199   0.565 -0.0445 -0.3619 -0.0725
36896W        W45696  19.432   3.834  23.682  0.3452 -0.1174 -0.2379
36897W        W45697   3.001   0.967  32.020  0.1549 -0.3234  0.0445
36898W        W45698   3.534   2.760  22.220 -0.0224 -0.1151  0.0132
36899W        W45699  22.570   0.739   1.109 -0.1646 -0.2208 -0.0590
36900W        W45700  22.764   1.425   2.864 -0.0613 -0.0796 -0.1350
36901W        W45701  10.097   0.770  17.237  0.3158  0.1368  0.0424
36902W        W45702  15.267   7.386  22.730  0.1584 -0.2656  0.0905
36903W        W45703  25.001   2.286   4.159 -0.0622  0.2547  0.1695
36904W        W45704   5.443   1.958  26.641 -0.0022 -0.1084  0.0116
36905W        W45705   1.493   3.558   4.131 -0.0910  0.1632  0.1337
36906W        W45706  12.882   1.642  23.814 -0.1323 -0.3379 -0.1106
36907W        W45707  14.609   3.364  10.550  0.1759  0.0690 -0.0733
36908W        W45708   4.005   6.855  30.880 -0.0647  0.1227 -0.3588
36909W        W45709   7.940   7.652  26.631 -0.3120 -0.1373  0.1214
36910W        W45710  17.376   7.681  18.859  0.1616  0.3143 -0.0175
36911W        W45711  13.936   5.672   8.899  0.3250 -0.0319 -0.3423
36912W        W45712  14.175   3.602  24.797  0.0407 -0.2317 -0.1562
36913W        W45713  13.047   6.619  26.733  0.2482 -0.1913 -0.2279
36914W        W45714   3.823   1.039   9.453 -0.1091 -0.1954 -0.0155
36915W        W45715  24.887   6.616   6.709  0.0289  0.0396  0.1411
36916W        W45716   1.315   1.315  18.971  0.0887 -0.1471 -0.0582
36917W        W45717  17.557   0.310   7.823 -0.1327 -0.0534 -0.2513
36918W        W45718   0.852   2.239  25.042 -0.0036 -0.2919 -0.1199
36919W        W45719  22.642   4.643  30.269 -0.2792 -0.2475  0.0875
36920W        W45720  15.265   7.161  12.011  0.0742  0.1473 -0.2462
36921W        W45721  23.987   7.150   1.082 -0.0575 -0.0447  0.2003
36922W        W45722  21.057   2.393  30.621  0.1865  0.0171 -0.2121
36923W        W45723   5.137   7.274   1.874 -0.0768  0.1520  0.2480
36924W        W45724  15.865   2.728   8.137 -0.0706 -0.1203  0.1020
36925W        W45725  11.567   5.090  26.899 -0.1287  0.2764  0.1370
36926W        W45726   9.546   4.937   6.014  0.0846 -0.0937 -0.0253
36927W        W45727   6.567   4.021   4.408 -0.2486  0.0106 -0.2527
36928W        W45728  24.715   2.453  19.981 -0.0452  0.0815  0.2677
36929W        W45729  11.566   0.045   3.796  0.0834  0.2609 -0.1452
36930W        W45730  16.967   1.832   6.681  0.3069  0.3976  0.0483
36931W        W45731  17.090   2.609   1.305 -0.3786 -0.3082 -0.2903
36932W        W45732  14.095   3.142  23.935  0.1741 -0.0258  0.0573
36933W        W45733  20.023   4.729  31.084 -0.0154  0.2437  0.1615
36934W        W45734   3.581   4.406  12.792  0.1235 -0.1366 -0.1994
36935W        W45735   8.060   4.443  24.808  0.1108 -0.1601  0.1709
36936W        W45736  13.595   2.988   5.720  0.2508 -0.0571  0.2204
36937W        W45737  13.721   5.019   5.122  0.1619 -0.0036  0.0754
36938W        W45738  11.139   6.616  14.344 -0.0129 -0.0258  0.2795
36939W        W45739  10.088   5.333  16.639  0.1456 -0.0755 -0.4542
36940W        W45740  21.456   0.526  22.774  0.1138 -0.1741 -0.0417
36941W        W45741   7.263   5.250   8.298  0.1492  0.1116 -0.0335
36942W        W45742  18.593   3.669   1.964 -0.0731  0.0397  0.0923
36943W        W45743   0.168   1.752  26.775  0.0657 -0.0635  0.0986
36944W        W45744   6.837   0.680   6.272  0.1161 -0.0389 -0.0699
36945W        W45745  13.903   7.591   4.073 -0.3053  0.0421  0.0530
36946W        W45746   6.962   6.226  14.581  0.0791  0.1595 -0.1829
36947W        W45747   6.340   6.205  13.173  0.3671  0.1884  0.1324
36948W        W45748   0.717   0.426   1.138 -0.0481  0.1374  0.2670
36949W        W45749   6.449   5.730  32.678  0.1614 -0.0281 -0.3024
36950W        W45750   9.759   5.724  17.139 -0.2030 -0.0918  0.1180
36951W        W45751  13.068   4.000  29.809 -0.0946 -0.0948 -0.0997
36952W        W45752  19.548   6.071  21.097 -0.2453  0.2004 -0.0965
36953W        W45753   4.405   4.565  13.443 -0.0440 -0.0847  0.0697
36954W        W45754   7.510   3.709  13.402  0.2332 -0.2257 -0.0618
36955W        W45755   5.410   0.970  23.702 -0.1032 -0.1518 -0.0962
36956W        W45756   6.271   4.925  13.973  0.1083  0.2246  0.0169
36957W        W45757  17.543   0.252   4.231  0.0176 -0.3430 -0.0391
36958W        W45758  17.628   2.293   7.953 -0.0297  0.1013  0.0495
36959W        W45759  18.257   6.145  31.091  0.1898  0.1346  0.0797
36960W        W45760  17.044   6.911  11.573 -0.0925  0.2128  0.0950
36961W        W45761   5.756   5.842   4.664 -0.2454 -0.2926 -0.0737
36962W        W45762  17.513   7.217  24.796  0.0455  0.1662  0.2235
36963W        W45763  16.863   5.965   6.846 -0.0770  0.0483 -0.0287
36964W        W45764   7.044   3.700  16.554 -0.1329  0.0659  0.5495
36965W        W45765  21.583   6.584   8.526 -0.1327  0.4686 -0.1310
36966W        W45766  18.796   2.045   1.047  0.2143 -0.1538  0.1912
36967W        W45767   6.427   5.741  10.223  0.0829  0.0359  0.0779
36968W        W45768   5.847   7.430  29.804 -0.0343 -0.0886 -0.0095
36969W        W45769   5.682   0.949   5.914  0.2109  0.1091  0.0317
36970W        W45770   6.931   2.912  18.905  0.2242 -0.0686 -0.1397
36971W        W45771  14.547   5.819   6.811 -0.0173 -0.0114 -0.0778
36972W        W45772  10.485   7.342  11.311  0.2293  0.4754 -0.1688
36973W        W45773  21.347   6.578   1.235 -0.1544 -0.0170 -0.1780
36974W        W45774   3.291   3.217  22.393 -0.1514  0.0570  0.2924
36975W        W45775  14.565   3.412   2.111 -0.0470  0.0299 -0.3109
36976W        W45776  19.156   5.552   2.623  0.0283  0.0209  0.2344
36977W        W45777  17.169   2.204   4.887 -0.0099  0.1678  0.1089
36978W        W45778   5.502   6.476  30.518  0.1604 -0.0253  0.0936
36979W        W45779  22.747   0.470  30.166 -0.0746 -0.0468  0.0728
36980W        W45780  13.746   2.807  32.491 -0.2221  0.2934 -0.1780
36981W        W45781   5.115   0.916  12.412 -0.1457 -0.4344  0.0749
36982W        W45782  17.526   2.663  27.715  0.0116  0.0193 -0.0442
36983W        W45783   6.623   3.179   1.614 -0.1093  0.0137  0.0676
36984W        W45784  21.738   3.285   3.649  0.2833  0.0089  0.2371
36985W        W45785   6.009   2.939  26.392  0.4201 -0.0969 -0.0133
36986W        W45786  24.481   4.996   9.280 -0.1702  0.0255 -0.0942
36987W        W45787   3.087   3.001  26.231  0.1577  0.0294 -0.2768
36988W        W45788  16.660   4.089  19.656  0.1572  0.1250  0.2251
36989W        W45789   7.783   4.443  16.243  0.1034  0.0981 -0.1741
36990W        W45790  11.660   6.673   1.656 -0.2392 -0.2507  0.1984
36991W        W45791  10.051   4.824   7.025  0.0966 -0.1814 -0.0900
36992W        W45792  15.707   4.229   7.552  0.0685 -0.0469  0.0459
36993W        W45793  11.227   7.766  30.207 -0.0310 -0.1694  0.1527
36994W        W45794   4.585   6.868   6.751 -0.1375 -0.1304 -0.0023
36995W        W45795  20.064   0.087   5.943  0.0548 -0.1359 -0.0088
36996W        W45796  19.204   4.527   0.427 -0.4276 -0.1764 -0.2733
36997W        W45797  21.594   0.961  15.469 -0.0620 -0.1088 -0.0476
36998W        W45798  15.598   0.491   7.191 -0.1153 -0.0444 -0.1264
36999W        W45799  14.983   3.146   9.618 -0.1676  0.1344  0.1310
37000W        W45800   8.159   2.831  29.654 -0.2145 -0.4536 -0.0704
37001W        W45801  10.271   1.090  15.184 -0.4663  0.1426  0.1674
37002W        W45802  21.062   1.846   7.497  0.2982 -0.1129 -0.3130
37003W        W45803  13.403   1.903  13.866 -0.1974  0.1208 -0.1365
37004W        W45804   4.767   6.083  23.902 -0.0377 -0.1296 -0.1560
37005W        W45805   7.794   3.390  24.611 -0.0190  0.2330  0.0896
37006W        W45806  14.845   6.764  12.120  0.0177  0.0949  0.1394
37007W        W45807  12.445   5.749  11.273  0.0711 -0.1180 -0.0930
37008W        W45808  24.422   2.185  23.375 -0.0672  0.2545  0.2112
37009W        W45809  14.090   4.483  27.241  0.0962  0.3631  0.1854
37010W        W45810   7.414   7.709   9.587 -0.1938 -0.1517  0.2844
37011W        W45811   6.599   4.070  13.366 -0.0756  0.0758  0.2756
37012W        W45812  18.994   2.466   8.003 -0.1290  0.2602 -0.3482
37013W        W45813  24.359   7.695  32.305  0.0423  0.0685 -0.4385
37014W        W45814   4.686   0.603   7.230 -0.1942 -0.3483  0.2342
37015W        W45815  16.261   3.041  30.745  0.2090 -0.1654 -0.3503
37016W        W45816  23.728   0.765   5.121  0.1762  0.2936  0.4314
37017W        W45817   8.451   1.994  32.226 -0.0088 -0.2202  0.0960
37018W        W45818  22.791   0.166  22.699 -0.1010 -0.0583  0.0164
37019W        W45819   7.261   0.911  13.771  0.0967 -0.0628  0.0208
37020W        W45820  11.257   0.321  32.371 -0.1838 -0.1404  0.0428
37021W        W45821   5.634   3.082  30.144  0.2653 -0.0926 -0.2290
37022W        W45822  11.240   3.373  26.038 -0.0065  0.0741  0.1647
37023W        W45823  15.184   0.632   6.250  0.0194 -0.1477 -0.3634
37024W        W45824   8.878   6.648  29.643  0.0439  0.0306  0.0853
37025W        W45825   5.533   0.327  31.638  0.2655  0.1186  0.0927
37026W        W45826  15.002   6.612   2.847 -0.0682 -0.1321  0.2920
37027W        W45827  17.459   2.420  31.329 -0.1795 -0.0154  0.3502
37028W        W45828  16.407   2.356  24.060  0.1031  0.0936 -0.2359
37029W        W45829  14.327   6.699   6.664  0.2792 -0.2623  0.0648
37030W        W45830  17.064   1.945   9.295  0.0836 -0.3225  0.2012
37031W        W45831  15.792   0.323   2.895 -0.2012 -0.3278  0.2608
37032W        W45832   6.899   1.315  30.970 -0.0938  0.1500  0.1709
37033W        W45833  12.707   6.036   4.686 -0.2150  0.0870 -0.1449
37034W        W45834  24.773   7.044  17.027  0.2811 -0.1656  0.0391
37035W        W45835   9.053   0.959   5.816  0.0030 -0.0553  0.0795
37036W        W45836  11.540   5.164  27.451 -0.1813  0.0325  0.0039
37037W        W45837  20.445   2.252  23.282  0.2065  0.0343  0.2752
37038W        W45838   7.276   2.115   2.301 -0.1755 -0.2858 -0.0959
37039W        W45839   7.296   4.847  31.339 -0.1011  0.0379 -0.2226
37040W        W45840  19.177   3.130  27.167  0.1004  0.0862  0.0087
37041W        W45841  19.576   7.575  24.784  0.3949  0.1887 -0.1973
37042W        W45842  19.155   7.670  23.439 -0.3084  0.0017 -0.1595
37043W        W45843  14.075   6.931   1.303  0.1052  0.1494 -0.1929
37044W        W45844  10.263   5.111  30.048  0.0263 -0.0096 -0.0590
37045W        W45845   8.094   7.632  17.830  0.1439 -0.1585 -0.1194
37046W        W45846   2.566   0.857  23.502 -0.2466 -0.0369  0.0873
37047W        W45847  19.091   1.876   7.758 -0.2386 -0.0811 -0.2399
37048W        W45848  15.826   0.248  28.862  0.1152  0.0257  0.1423
37049W        W45849   9.132   6.932  26.535 -0.2743  0.1202  0.0991
37050W        W45850  18.008   2.895  16.381 -0.2486  0.1165  0.1683
37051W        W45851   7.280   0.079   8.129  0.1496  0.0938  0.2681
37052W        W45852   9.747   0.703  16.104 -0.1108 -0.1563 -0.0739
37053W        W45853   4.769   3.524  22.678 -0.0851 -0.0465 -0.4332
37054W        W45854  15.050   5.791  25.850  0.2749  0.4212 -0.0957
37055W        W45855   0.249   4.745  18.508 -0.0780  0.0649 -0.1127
37056W        W45856  23.914   0.752  27.339  0.2711 -0.0148  0.0089
37057W        W45857   8.273   3.169  24.633  0.1915  0.0334 -0.0066
37058W        W45858   4.679   5.608  22.410  0.0978  0.1264  0.0168
37059W        W45859  25.015   7.615  10.509  0.1599 -0.0408 -0.0387
37060W        W45860  12.188   3.962  29.379 -0.0359  0.0334 -0.2781
37061W        W45861  21.592   5.683   3.252  0.4005 -0.1930  0.2398
37062W        W45862  22.140   0.036  31.964 -0.0409  0.0626  0.1247
37063W        W45863  15.892   6.207   6.550 -0.0838  0.0202 -0.0723
37064W        W45864   8.140   3.388  29.871 -0.0980  0.3318  0.0535
37065W        W45865  19.476   3.412   3.361 -0.2019 -0.3805 -0.1564
37066W        W45866   6.482   2.681  13.467 -0.0218  0.0590  0.1362
37067W        W45867  23.807   2.077   9.712 -0.0985 -0.3022  0.1347
37068W        W45868  20.691   5.938   2.322 -0.0558  0.0541  0.1654
37069W        W45869   1.786   0.546   8.347  0.3515  0.1155  0.1617
37070W        W45870  16.317   0.847   2.285  0.5472  0.0411 -0.3130
37071W        W45871   1.620   3.128  30.448 -0.0898  0.1286  0.1535
37072W        W45872   7.859   6.594   2.165  0.1574  0.2027 -0.1694
37073W        W45873  24.044   4.263   9.010  0.1633 -0.0039  0.5318
37074W        W45874  13.456   2.780  21.830 -0.1382  0.1571  0.0888
37075W        W45875   9.874   2.383  12.387  0.1317 -0.0956  0.2035
37076W        W45876   1.602   0.917   3.060  0.1758 -0.4796 -0.2133
37077W        W45877  18.038   6.871  23.003  0.1979 -0.3227 -0.1540
37078W        W45878  21.378   6.033  16.838  0.2098 -0.0239  0.1509
37079W        W45879   5.005   3.705   4.104  0.1244  0.0642  0.1023
37080W        W45880   6.590   3.269  14.337  0.0532  0.1055 -0.0192
37081W        W45881   6.297   1.123   1.698 -0.3408  0.0779 -0.2139
37082W        W45882   3.889   7.812  22.701 -0.1159 -0.2015 -0.0820
37083W        W45883  10.694   6.746  30.810  0.1772 -0.0491 -0.1405
37084W        W45884  24.604   7.127  18.890 -0.0929 -0.0677 -0.1723
37085W        W45885   7.905   2.152   8.932 -0.0752 -0.0482  0.2833
37086W        W45886  23.952   5.168  18.053  0.0935 -0.3182 -0.1435
37087W        W45887   8.820   0.716  28.369  0.0350  0.3551  0.1003
37088W        W45888  11.839   3.971   5.060  0.0356  0.2068 -0.0861
37089W        W45889   7.593   0.059  11.879 -0.0478 -0.2987 -0.1910
37090W        W45890  16.685   4.832   4.131  0.1507  0.1800  0.5750
37091W        W45891   9.360   4.225   7.115 -0.2100  0.0674 -0.2727
37092W        W45892   6.672   2.634  14.288  0.1903 -0.2439  0.0606
37093W        W45893  15.150   3.240   2.287 -0.1053  0.1342  0.2000
37094W        W45894   2.759   1.137   8.136 -0.2465 -0.0545 -0.2161
37095W        W45895   7.226   5.305  31.576 -0.2181  0.0174  0.1988
37096W        W45896   9.221   7.815  11.019 -0.4049  0.0792  0.2251
37097W        W45897   0.181   4.575  24.514 -0.2347 -0.2318  0.1051
37098W        W45898  12.520   1.230  14.800 -0.4983 -0.4022 -0.1077
37099W        W45899  19.105   5.604   4.378 -0.1471 -0.0224 -0.1341
37100W        W45900   4.004   6.916   4.811  0.3050 -0.1454 -0.2023
37101W        W45901  14.139   4.761  21.878  0.1090  0.1707 -0.0005
37102W        W45902   8.967   2.042  32.477 -0.0503 -0.1305 -0.2061
37103W        W45903   0.353   0.917   2.519  0.3024 -0.3294 -0.1484
37104W        W45904   8.647   7.559   9.969  0.0934 -0.0461 -0.1375
37105W        W45905  19.019   4.688  31.626  0.1647  0.0603 -0.2548
37106W        W45906  10.384   5.197   5.740 -0.1095  0.1062 -0.0065
37107W        W45907   0.001   0.983   5.288  0.0890 -0.0193 -0.0575
37108W        W45908   2.695   4.248  28.959 -0.1065 -0.1861 -0.0577
37109W        W45909   7.406   5.164  23.148  0.0017 -0.0618 -0.1248
37110W        W45910  10.056   1.694  13.574  0.0199 -0.1819 -0.0493
37111W        W45911  24.273   7.399  24.944 -0.0766 -0.1554 -0.0831
37112W        W45912  13.126   3.806   8.467  0.0595  0.0022 -0.0242
37113W        W45913  22.333   7.407   8.712 -0.0287  0.0498 -0.2364
37114W        W45914  21.057   3.673  19.309  0.0513 -0.3341  0.0391
37115W        W45915   4.955   7.512  27.860 -0.0382 -0.0858  0.1280
37116W        W45916  21.329   3.757   7.743  0.2008  0.0736 -0.0569
37117W        W45917   8.166   1.875   0.430 -0.0397 -0.0250 -0.2966
37118W        W45918   2.307   6.347  26.317 -0.2376  0.2745 -0.0885
37119W        W45919   0.238   3.842   8.175  0.0389  0.0561  0.1047
37120W        W45920  10.187   6.131  31.874  0.1333 -0.1044 -0.0303
37121W        W45921  18.425   3.655  28.468  0.1147 -0.3853 -0.4104
37122W        W45922   0.703   5.489   3.759  0.0907 -0.2608  0.3589
37123W        W45923   5.700   2.276  11.807  0.1956 -0.0552  0.0317
37124W        W45924   1.325   5.044   9.858  0.1545  0.1644 -0.0511
37125W        W45925   5.462   5.628   9.970  0.1152 -0.0679 -0.0745
37126W        W45926  11.305   3.001  24.728  0.0878 -0.4003 -0.1683
37127W        W45927   6.736   2.274  24.398  0.2023 -0.5026  0.1435
37128W        W45928  22.470   0.829  18.506  0.0198  0.0657  0.2187
37129W        W45929   3.891   2.296   7.821 -0.1288  0.0891  0.2332
37130W        W45930  12.058   2.208  10.504  0.0043  0.0629  0.1213
37131W        W45931   1.152   5.659   8.128 -0.0145  0.0934  0.2501
37132W        W45932  21.135   1.185  29.858 -0.1179 -0.2517  0.0723
37133W        W45933  10.614   0.120   4.122  0.1704  0.1253  0.0462
37134W        W45934   0.847   3.193  21.023  0.1623  0.0024  0.2485
37135W        W45935  12.306   1.528  22.667  0.6444 -0.2690 -0.1045
37136W        W45936   4.992   0.384  23.507 -0.2559 -0.0558  0.2300
37137W        W45937  15.887   7.217  22.652 -0.0831 -0.1132  0.0802
37138W        W45938  11.206   4.850  12.028 -0.1533 -0.1124 -0.0647
37139W        W45939  10.459   3.128  13.378 -0.1275  0.2384  0.1497
37140W        W45940  10.712   5.055   6.650 -0.2752 -0.2136 -0.2522
37141W        W45941  24.150   2.105  22.108  0.1000 -0.1245  0.0813
37142W        W45942   1.849   5.681  28.489  0.0413 -0.2182  0.0691
37143W        W45943  19.590   3.943   4.769  0.0171 -0.2807 -0.2710
37144W        W45944  15.041   5.769   3.861  0.1150  0.0836 -0.1913
37145W        W45945   9.602   0.243  14.322 -0.1649  0.0400  0.0081
37146W        W45946  22.662   4.981  23.412  0.1404 -0.0443  0.1236
37147W        W45947  13.906   7.588  24.923  0.1731 -0.1268 -0.2237
37148W        W45948  20.253   6.704  31.263  0.1980  0.0769 -0.0563
37149W        W45949   5.518   4.376   7.385  0.0129 -0.1179  0.0720
37150W        W45950   6.405   6.480  28.874 -0.1912 -0.1648 -0.1928
37151W        W45951  14.306   5.727  24.359  0.1888  0.3212 -0.1264
37152W        W45952  20.633   0.266   9.227  0.2259 -0.0175  0.3175
37153W        W45953  16.755   3.858   7.971  0.2024 -0.1987  0.0617
37154W        W45954  16.024   6.480  10.620 -0.1611 -0.0354 -0.1933
37155W        W45955  14.132   0.387   7.225  0.1194 -0.1478 -0.1395
37156W        W45956  16.612   0.014   1.781 -0.2115 -0.0767 -0.0620
37157W        W45957  16.468   1.561   3.089  0.1178 -0.1986  0.1067
37158W        W45958   7.059   3.695  31.029  0.0416 -0.3257  0.0157
37159W        W45959  10.306   0.140  25.132  0.2144  0.3905 -0.0198
37160W        W45960  10.977   7.207  32.261  0.0063 -0.1236  0.1162
37161W        W45961  10.001   4.936  32.216  0.0258  0.2297  0.0988
37162W        W45962  24.464   5.192   7.458 -0.3100  0.0717 -0.3378
37163W        W45963   3.268   7.264  22.422  0.0815 -0.1404 -0.0093
37164W        W45964   9.912   4.343  24.772 -0.0555 -0.0127  0.0104
37165W        W45965  23.993   0.472   8.769  0.2327  0.0696 -0.0734
37166W        W45966  17.079   3.628  23.970 -0.1543  0.2682 -0.0839
37167W        W45967  13.836   6.374  22.766  0.2600 -0.1187 -0.1154
37168W        W45968   0.231   5.848   0.081  0.0863 -0.3605  0.2390
37169W        W45969  24.574   6.449  27.679 -0.1153 -0.1329  0.1175
37170W        W45970   0.092   0.403  27.996 -0.3084 -0.1433  0.0012
37171W        W45971   4.273   2.820  24.261 -0.0626 -0.0999 -0.3286
37172W        W45972  21.829   3.596  26.649  0.0335 -0.0861  0.1812
37173W        W45973   7.521   0.937  25.590  0.0482 -0.0635 -0.2247
37174W        W45974   4.798   5.008   5.205 -0.1052  0.1926  0.0614
37175W        W45975  16.440   1.152  20.504  0.0862 -0.0948 -0.0757
37176W        W45976   6.866   2.622  12.043 -0.1688 -0.1748  0.1218
37177W        W45977  22.813   4.458   3.096  0.0165  0.0242  0.2391
37178W        W45978   4.303   6.353  30.802  0.1987  0.1196  0.0064
37179W        W45979  11.023   2.025   5.173  0.2304  0.0242 -0.0350
37180W        W45980   0.519   3.432  30.118  0.1456 -0.2018 -0.0127
37181W        W45981  18.181   7.370  23.074 -0.1911  0.2003  0.1935
37182W        W45982   2.058   4.855  25.450 -0.1282 -0.2776  0.1225
37183W        W45983  10.337   7.512   3.886 -0.4422  0.2495  0.2599
37184W        W45984  17.867   0.439  17.548  0.1346 -0.0124  0.0707
37185W        W45985  14.870   3.956   0.760  0.2538 -0.1636  0.1249
37186W        W45986  19.888   3.535  26.258 -0.0478 -0.1082  0.1950
37187W        W45987   2.549   6.041   3.285 -0.0204  0.1760 -0.0344
37188W        W45988  23.965   4.928  21.223 -0.0174 -0.1273 -0.0834
37189W        W45989  21.838   6.405  23.195  0.0651  0.0074  0.0156
37190W        W45990   9.407   4.503  10.630 -0.0170  0.0272 -0.3722
37191W        W45991  18.215   6.206   8.058  0.1433  0.2663 -0.0611
37192W        W45992  21.227   2.184   8.421 -0.0011  0.0268  0.1971
37193W        W45993   0.174   6.431  20.385 -0.0704  0.1453 -0.1961
37194W        W45994   4.746   6.743  23.247 -0.1579  0.0450 -0.0904
37195W        W45995   6.366   0.259   5.266 -0.0276  0.2661 -0.3764
37196W        W45996  24.329   6.645  14.982  0.4259 -0.1674  0.0390
37197W        W45997  10.038   0.635  28.566  0.1705  0.0090  0.0876
37198W        W45998   9.724   2.812  23.759 -0.0709 -0.1721 -0.2531
37199W        W45999  10.945   3.300  24.926  0.1236 -0.1788 -0.1819
37200W        W46000   3.300   5.103  28.414 -0.1954  0.4593  0.0280
37201W        W46001  12.642   7.110   9.146 -0.1795 -0.1968  0.1888
37202W        W46002  11.134   3.979  30.605  0.0485  0.2156  0.0798
37203W        W46003  11.534   4.303  29.786 -0.1486  0.2327  0.1064
37204W        W46004  15.337   0.450  20.135 -0.1506  0.0322  0.0925
37205W        W46005  23.210   3.081  28.524  0.0231 -0.0054  0.1330
37206W        W46006   5.338   4.905   7.329 -0.1529 -0.0176  0.1612
37207W        W46007  14.818   2.904  22.251  0.0199 -0.0645  0.1158
37208W        W46008  20.049   0.335  13.862 -0.4287  0.1368  0.1303
37209W        W46009   1.736   5.607  30.124 -0.1530  0.1981  0.1545
37210W        W46010   2.469   1.619  32.261 -0.2554 -0.0374 -0.1752
37211W        W46011  11.147   6.424  13.890 -0.0832  0.1960  0.0959
37212W        W46012  11.780   2.858  30.839 -0.0736  0.0807 -0.3903
37213W        W46013   8.107   4.707  11.693  0.1373 -0.1214  0.0722
37214W        W46014   5.466   4.761  25.532 -0.1075  0.2277  0.1205
37215W        W46015  16.375   5.239   6.489  0.3199 -0.2547 -0.3511
37216W        W46016   6.324   5.105  28.075  0.0354 -0.1132  0.2115
37217W        W46017   7.094   2.044  10.029  0.4237 -0.0523  0.0074
37218W        W46018   8.353   2.011   0.948  0.0529  0.3032 -0.0981
37219W        W46019   4.861   6.310  12.726 -0.4167  0.1095 -0.1106
37220W        W46020   5.232   5.998  14.810 -0.1860 -0.2930 -0.0127
37221W        W46021  19.013   4.313   4.120  0.0758  0.2447  0.0847
37222W        W46022  11.172   5.941  12.941  0.1570 -0.0898  0.1182
37223W        W46023  16.208   6.656  23.369 -0.2731 -0.0888  0.0221
37224W        W46024   1.110   3.048  28.387  0.0932  0.1292 -0.1040
37225W        W46025  11.543   5.962  24.097 -0.0823 -0.0941  0.0469
37226W        W46026   5.712   1.885  28.664 -0.2778  0.0167  0.1259
37227W        W46027   4.569   6.527  24.041  0.0374 -0.0889  0.0447
37228W        W46028  11.776   4.343  27.463 -0.4472  0.0713 -0.2443
37229W        W46029  21.175   4.472  27.107  0.1569 -0.0003  0.1774
37230W        W46030  14.005   7.685   9.791  0.0040  0.0201 -0.0658
37231W        W46031  12.478   6.445  14.277 -0.2890  0.1974  0.0582
37232W        W46032  24.617   6.261   4.587 -0.0627  0.2227 -0.0997
37233W        W46033  14.596   0.567  32.621 -0.1261  0.4460  0.0488
37234W        W46034  21.960   0.037   2.439  0.1056  0.0707  0.2316
37235W        W46035   0.446   3.421   1.918  0.0267 -0.1748  0.0137
37236W        W46036   7.177   4.108  13.322  0.0462  0.2975 -0.1667
37237W        W46037  22.649   6.168  15.717  0.1302 -0.0416  0.1175
37238W        W46038  21.322   6.225   5.899  0.3696  0.1467 -0.1009
37239W        W46039  17.821   4.458  32.145  0.1703 -0.1477 -0.0240
37240W        W46040   5.670   2.045  11.080  0.3244  0.0301  0.1923
37241W        W46041   5.340   6.095  13.489 -0.1261  0.1936  0.0999
37242W        W46042   5.845   0.923  30.453 -0.1701 -0.2879 -0.3218
37243W        W46043   4.858   4.175  12.569 -0.1104 -0.0412  0.2273
37244W        W46044  12.303   0.143   6.434  0.1167  0.1433  0.0141
37245W        W46045  13.558   6.672   5.390 -0.2085  0.0385 -0.0084
37246W        W46046  14.935   2.349   9.384  0.1572 -0.0937 -0.1443
37247W        W46047  13.555   0.277   5.077 -0.1033  0.1553  0.2833
37248W        W46048   0.939   4.199   7.145  0.0956  0.3199 -0.0028
37249W        W46049  11.292   6.092  13.433  0.0153  0.0195  0.0561
37250W        W46050  11.864   4.712  13.210 -0.2567  0.0134 -0.2186
37251W        W46051  17.193   0.608  10.933 -0.2063 -0.3071  0.0656
37252W        W46052  18.953   0.231   5.290  0.1499 -0.3513  0.3214
37253W        W46053  18.714   1.739  26.609  0.1098  0.0259  0.3732
37254W        W46054   4.118   7.232  23.735  0.1482  0.1726 -0.1483
37255W        W46055  16.029   4.523  10.812  0.1385  0.1926 -0.2149
37256W        W46056   2.075   3.608   5.499 -0.0501  0.0974 -0.2012
37257W        W46057  21.633   1.089   2.580  0.0495 -0.4020  0.1653
37258W        W46058   0.431   2.201   5.719 -0.3619  0.1675 -0.1621
37259W        W46059   7.654   5.241   5.176 -0.1383 -0.3291  0.0326
37260W        W46060  20.839   3.451  30.354  0.2545 -0.0894  0.3293
37261W        W46061   4.418   1.151  30.361 -0.1406 -0.1056  0.1556
37262W        W46062   2.610   7.287   0.670 -0.0720  0.0101  0.2411
37263W        W46063  21.259   2.063  32.307  0.1491 -0.0148 -0.4613
37264W        W46064   7.292   3.999  23.356  0.3299 -0.1228  0.0945
37265W        W46065   8.878   7.212  30.409 -0.3048  0.2116  0.0993
37266W        W46066   9.436   5.721   9.143 -0.4703 -0.2818 -0.1881
37267W        W46067  18.329   4.531   1.047  0.0875  0.3179  0.1311
37268W        W46068  21.766   1.667   3.438  0.1623  0.1475 -0.1658
37269W        W46069   7.334   3.094  23.149 -0.1568 -0.1895  0.0471
37270W        W46070  10.001   5.341  18.279  0.3321 -0.1167  0.0994
37271W        W46071  13.543   6.967  30.487 -0.1376 -0.0438 -0.1304
37272W        W46072   5.825   5.162   7.273 -0.2106 -0.1233 -0.1420
37273W        W46073  21.718   1.270  21.407  0.1012 -0.1317  0.1772
37274W        W46074  15.102   6.172   2.214 -0.4983  0.0037  0.1581
37275W        W46075   8.448   3.761   4.293  0.1676 -0.1177  0.1451
37276W        W46076  21.749   1.105  31.770  0.0606  0.1226 -0.0603
37277W        W46077   3.841   4.182  26.715  0.0154  0.0462  0.0887
37278W        W46078  18.084   0.980   3.805  0.0636  0.0649  0.1621
37279W        W46079  21.039   6.018   7.606 -0.1772  0.0087  0.1745
37280W        W46080   8.351   0.054  13.248 -0.0734  0.2117 -0.2117
37281W        W46081  21.010   6.018  30.589  0.2254  0.2272  0.1529
37282W        W46082   5.813   5.654  30.299 -0.0469  0.0339 -0.1462
37283W        W46083   2.902   6.506  11.325 -0.3389 -0.2781 -0.1424
37284W        W46084   0.739   5.046  24.185 -0.1184 -0.1378  0.0478
37285W        W46085  13.742   3.917   2.419  0.0167 -0.1040  0.1545
37286W        W46086  15.620   5.883  30.510 -0.0197  0.1833  0.2796
37287W        W46087   7.754   1.062  29.030  0.1785  0.1455  0.3304
37288W        W46088  12.703   0.874  15.756  0.0050 -0.2399  0.3743
37289W        W46089   6.352   1.994  11.107  0.0525 -0.1396 -0.1208
37290W        W46090   7.159   5.774  17.195 -0.3054 -0.0216 -0.1113
37291W        W46091  20.183   4.700   3.408 -0.0828  0.0638 -0.0849
37292W        W46092  12.586   7.527   7.156 -0.0944 -0.1743 -0.0268
37293W        W46093   7.173   5.948  16.338 -0.2390  0.4149 -0.0768
37294W        W46094  13.680   3.639   9.487  0.1144 -0.0381  0.0133
37295W        W46095  14.692   0.719  11.004 -0.2826  0.0315  0.0009
37296W        W46096   7.222   3.988  31.445 -0.1832 -0.3268  0.1096
37297W        W46097  15.008   6.093  20.919  0.1378  0.1457  0.0362
37298W        W46098  10.904   0.267  25.969 -0.3933  0.0602  0.0874
37299W        W46099   4.312   1.326  27.802  0.1125  0.1272  0.2407
37300W        W46100  14.472   6.192  28.957  0.0025 -0.1504  0.2135
37301W        W46101   9.536   0.694  25.610  0.1410  0.1039  0.2055
37302W        W46102   6.285   1.163  29.151 -0.1176 -0.0873  0.1673
37303W        W46103   1.499   6.637   8.875 -0.0858 -0.0676  0.0706
37304W        W46104  16.656   7.279  23.707 -0.1357 -0.1516 -0.2690
37305W        W46105  21.772   7.194  21.544  0.1256 -0.0432  0.1107
37306W        W46106  17.784   3.955  27.741  0.1081  0.0111  0.2469
37307W        W46107  17.996   7.425  11.152  0.1967  0.0280 -0.3005
37308W        W46108  18.531   2.301   4.477 -0.0262 -0.2028  0.4625
37309W        W46109   1.716   7.618   8.884 -0.4137 -0.0613  0.0943
37310W        W46110  19.876   7.586  28.212 -0.0728  0.0244  0.0603
37311W        W46111   6.746   2.108   0.163 -0.0022 -0.0833 -0.1405
37312W        W46112  20.847   7.447  27.876 -0.1075  0.1974 -0.1380
37313W        W46113  15.565   5.909  11.574  0.1410  0.2447  0.2257
37314W        W46114  17.057   5.337  31.950  0.2055 -0.0509  0.0024
37315W        W46115   5.114   6.500   0.026 -0.1188 -0.0289 -0.0486
37316W        W46116   8.707   3.329   8.619 -0.0158  0.0393  0.2039
37317W        W46117   4.363   6.784  14.182  0.4798  0.0540  0.0386
37318W        W46118  12.195   1.277  30.791  0.0099  0.2449 -0.1070
37319W        W46119  24.452   5.805  18.199 -0.3802 -0.0920  0.2057
37320W        W46120  17.611   2.580   4.300 -0.3187 -0.0907 -0.2707
37321W        W46121  19.107   1.233  25.748 -0.2213  0.1154  0.2569
37322W        W46122  24.013   6.615   5.085  0.3857  0.1656 -0.2009
37323W        W46123   8.130   2.161  10.505 -0.0951 -0.0041 -0.0461
37324W        W46124  12.528   4.666  25.391 -0.0143  0.3404 -0.1596
37325W        W46125   8.031   1.358   0.592 -0.1816  0.1334 -0.0360
37326W        W46126  15.589   2.438   6.633 -0.0395 -0.1696  0.2078
37327W        W46127  24.276   7.771   3.713  0.3804  0.0861  0.0197
37328W        W46128  23.254   5.666   6.912 -0.0701  0.0467 -0.3262
37329W        W46129  23.474   7.522  16.213  0.2384 -0.1560 -0.2355
37330W        W46130  17.938   3.581   9.815  0.1982 -0.1536  0.0524
37331W        W46131  20.638   2.149   9.340  0.1075  0.1024 -0.1706
37332W        W46132  14.293   6.915  23.557 -0.0135 -0.3064  0.3358
37333W        W46133  22.519   4.520   8.442 -0.3915 -0.3346 -0.4977
37334W        W46134   4.268   5.918   2.168 -0.0455  0.1312  0.0507
37335W        W46135   4.902   1.458   7.028 -0.0807  0.2960 -0.1776
37336W        W46136  22.080   2.941  27.762 -0.3386  0.0777  0.1455
37337W        W46137  13.471   3.262  21.699  0.2867  0.1130  0.0159
37338W        W46138  23.784   3.567  30.739 -0.0387  0.1366 -0.0303
37339W        W46139  10.188   4.416   8.652 -0.1818 -0.1407  0.1155
37340W        W46140   2.729   2.584  27.830  0.1434  0.1817  0.1114
37341W        W46141   2.364   0.623  27.164 -0.1706  0.1582 -0.1918
37342W        W46142  13.288   3.963  25.386  0.3142  0.1399 -0.3272
37343W        W46143  14.971   7.637   5.056 -0.0260  0.2060 -0.0863
37344W        W46144  11.244   4.169  27.506  0.0928 -0.2737 -0.0710
37345W        W46145  15.123   0.713  21.470  0.0957  0.0137 -0.3185
37346W        W46146   3.151   2.558   1.547  0.3536  0.1545  0.3519
37347W        W46147   1.295   0.492   6.860 -0.2799 -0.2129 -0.3246
37348W        W46148   8.121   2.005  25.162  0.2269 -0.1056  0.0151
37349W        W46149  10.315   5.591  27.568  0.0289  0.1116 -0.2382
37350W        W46150  13.006   0.168  14.816 -0.0448 -0.1096 -0.0359
37351W        W46151   7.575   3.912  12.386 -0.0305 -0.1590 -0.2411
37352W        W46152  16.422   2.393  21.761 -0.0398 -0.3634  0.0563
37353W        W46153  21.544   4.931  23.686  0.0180 -0.1773 -0.2699
37354W        W46154   2.858   6.051  27.165  0.2419 -0.2924  0.0285
37355W        W46155  23.054   2.177   1.028 -0.1228 -0.6688  0.0323
37356W        W46156  18.294   7.197  31.391  0.0648  0.1649  0.0510
37357W        W46157  18.238   2.219  20.498 -0.1585 -0.2242  0.2868
37358W        W46158  22.595   2.862  29.118  0.1839  0.2013  0.1174
37359W        W46159  14.866   1.129   8.551 -0.0825  0.1364 -0.0516
37360W        W46160  22.720   6.547   2.686  0.0356 -0.1344  0.1684
37361W        W46161  17.423   3.582   7.331  0.0918  0.0864 -0.1610
37362W        W46162  16.117   0.250  26.950 -0.2185  0.3513 -0.0831
37363W        W46163  18.536   5.545  16.652  0.2014  0.0521  0.2565
37364W        W46164  18.421   0.000  28.178 -0.1008  0.3245  0.1500
37365W        W46165  18.263   3.243  27.717  0.1381  0.0886 -0.3089
37366W        W46166   4.080   5.964  23.430 -0.1278 -0.0984 -0.1526
37367W        W46167   8.640   1.981   0.178  0.0567  0.0123 -0.0298
37368W        W46168  22.196   2.032  27.341 -0.1064 -0.0186  0.0478
37369W        W46169  11.222   2.216   7.385 -0.1197  0.1684 -0.1180
37370W        W46170  14.306   6.915  26.258  0.0030  0.0140 -0.0366
37371W        W46171  13.036   2.680  11.014  0.0948 -0.0735 -0.0766
37372W        W46172   9.584   5.263  28.081 -0.0089 -0.0350  0.0010
37373W        W46173  23.782   5.749  20.067 -0.1086  0.2561  0.2036
37374W        W46174   5.034   6.216  32.315  0.3364 -0.0495  0.0014
37375W        W46175   3.472   1.498  32.683  0.1903 -0.1260 -0.2302
37376W        W46176   8.132   6.153  17.914 -0.1424 -0.0664 -0.1299
37377W        W46177   7.964   1.747   1.546  0.1533  0.1393  0.1136
37378W        W46178  16.089   5.731  19.127 -0.1623 -0.1756 -0.1021
37379W        W46179  14.661   6.176  22.909  0.1832 -0.0917  0.4298
37380W        W46180  16.684   5.313   5.258  0.0344 -0.3844 -0.2322
37381W        W46181   8.904   1.098   6.704 -0.1104  0.2552  0.0858
37382W        W46182  10.167   1.175  13.357 -0.0871  0.2146  0.1888
37383W        W46183   2.328   1.739  25.255  0.1626  0.4140  0.2028
37384W        W46184  20.347   1.766  18.688  0.1532 -0.1499  0.0992
37385W        W46185  15.258   2.832  13.543  0.1875 -0.2518 -0.4508
37386W        W46186  18.804   4.067  16.524  0.0779  0.0668  0.2337
37387W        W46187   3.210   0.400  26.383 -0.0115  0.1563  0.0712
37388W        W46188  16.519   5.663  23.608 -0.0644 -0.1202 -0.0734
37389W        W46189   0.341   0.375   4.147 -0.1159 -0.0421 -0.0034
37390W        W46190  15.376   2.962  29.657  0.0512  0.1567 -0.1706
37391W        W46191  13.274   2.500  30.617  0.1648  0.1267 -0.1906
37392W        W46192  12.245   1.940   5.088 -0.0640 -0.2558  0.1768
37393W        W46193  18.729   1.442  30.645 -0.2070  0.1058 -0.2378
37394W        W46194  20.612   6.089  19.832  0.0436 -0.1286  0.0989
37395W        W46195  14.640   3.776   4.228 -0.0848 -0.0149  0.1293
37396W        W46196  12.927   6.468   2.791  0.2435 -0.1187  0.1337
37397W        W46197  22.554   4.635  29.319  0.2475  0.0985 -0.2342
37398W        W46198  12.792   7.247   1.328 -0.1470  0.0702  0.0491
37399W        W46199  16.667   3.644  19.907 -0.1529 -0.1958 -0.0797
37400W        W46200   8.391   0.989  10.664 -0.1003 -0.3023 -0.1111
37401W        W46201   7.905   2.867   1.937  0.3280  0.1302  0.0718
37402W        W46202  18.229   0.783  17.404  0.1706  0.0056  0.3350
37403W        W46203  20.805   0.464  18.301 -0.1455  0.1817 -0.0669
37404W        W46204  23.520   6.964  21.806 -0.0192 -0.0656 -0.1450
37405W        W46205  19.022   5.396   6.462  0.1908  0.0571 -0.0470
37406W        W46206   7.117   6.863  12.059 -0.3940  0.0083  0.0163
37407W        W46207  15.213   7.100  20.966 -0.0859 -0.1239 -0.1929
37408W        W46208   5.125   2.206   9.396 -0.0558 -0.2827  0.1971
37409W        W46209  22.809   1.255   9.126  0.1748 -0.1148  0.2224
37410W        W46210  19.551   2.274  21.266  0.0769 -0.0498  0.1799
37411W        W46211  12.509   7.098  22.270 -0.3770  0.2892 -0.1380
37412W        W46212  19.838   1.802   6.667  0.1765 -0.1641 -0.0673
37413W        W46213  21.282   5.169   9.438 -0.0743 -0.1710  0.2026
37414W        W46214  13.576   0.190  10.929 -0.2761 -0.1654 -0.0090
37415W        W46215  16.237   5.501  22.041  0.0362 -0.1266  0.0999
37416W        W46216   0.054   5.773   6.393 -0.1520  0.0483 -0.1819
37417W        W46217  10.975   7.099  12.446  0.0656  0.1523  0.2289
37418W        W46218   8.848   5.316  14.728  0.0394 -0.2205 -0.2119
37419W        W46219  16.401   2.239  30.242  0.0600 -0.2998  0.2618
37420W        W46220   9.945   1.930   8.507  0.1234 -0.0867  0.1840
37421W        W46221  15.647   1.569  23.575 -0.2474 -0.0651 -0.0551
37422W        W46222  19.703   7.136   7.633  0.0091  0.3713  0.2737
37423W        W46223  16.642   6.513  28.268 -0.0804 -0.1515 -0.1385
37424W        W46224  21.681   6.769  18.151  0.1328 -0.3708  0.1207
37425W        W46225   9.300   0.070   3.474  0.0642  0.0908 -0.0755
37426W        W46226   7.005   2.003  16.335  0.0175  0.0577  0.3974
37427W        W46227  23.537   0.306  28.533 -0.1063  0.1855  0.1636
37428W        W46228  20.446   7.512  26.071  0.0445 -0.1613  0.2678
37429W        W46229   8.110   5.007  27.602  0.1548  0.0623  0.2457
37430W        W46230  18.060   7.316   3.169 -0.0373  0.6334  0.0153
37431W        W46231  16.256   7.331  24.007 -0.0814  0.1592  0.1258
37432W        W46232  22.462   2.495  28.746 -0.1758 -0.1653  0.2491
37433W        W46233   9.368   0.632  27.464  0.0587 -0.1092 -0.1141
37434W        W46234   7.201   3.487  27.247  0.0502 -0.0318  0.1968
37435W        W46235  18.352   1.260   9.680  0.1363 -0.1597 -0.0652
37436W        W46236   2.331   7.596  27.933 -0.1584 -0.3124  0.1593
37437W        W46237   7.454   1.946   1.413 -0.0458 -0.2340  0.1576
37438W        W46238  10.256   6.017   0.605 -0.3779  0.0583 -0.1342
37439W        W46239  15.932   2.627   9.083  0.0740  0.0866 -0.2402
37440W        W46240   0.117   1.367  29.457  0.0372 -0.0771  0.1254
37441W        W46241   7.232   6.142  29.324  0.1050  0.1877 -0.0726
37442W        W46242  19.515   0.988  19.304  0.1221  0.1270 -0.0348
37443W        W46243   1.534   3.549  20.851  0.0498 -0.0206 -0.3543
37444W        W46244   5.570   6.099  11.482 -0.2137 -0.0035 -0.0335
37445W        W46245   0.749   5.528   6.115  0.0528 -0.1738  0.4333
37446W        W46246   2.342   5.683  11.756  0.0510  0.0143 -0.1411
37447W        W46247  20.730   1.622  32.424 -0.1271  0.0838 -0.1706
37448W        W46248   4.695   4.785  32.043  0.1177  0.1626 -0.1514
37449W        W46249  14.167   5.403  25.055  0.0320 -0.2983 -0.0040
37450W        W46250   6.950   4.929  16.043  0.1782  0.1535  0.0937
37451W        W46251   3.718   3.468  30.666 -0.3532  0.0389  0.5236
37452W        W46252  23.137   6.567  31.938 -0.2470  0.2226  0.0024
37453W        W46253  15.671   5.024  10.328  0.2317  0.3107  0.0329
37454W        W46254   3.913   4.954  31.463 -0.2613 -0.1231  0.2907
37455W        W46255   0.909   6.739   7.714  0.0923 -0.1119  0.0076
37456W        W46256  15.622   0.378  24.610  0.2482  0.0402  0.1200
37457W        W46257  22.125   1.266  17.350  0.0623  0.2890  0.1456
37458W        W46258   2.130   1.897   9.451  0.1207 -0.2570  0.2127
37459W        W46259  12.834   1.367   5.163  0.0420 -0.0397  0.0590
37460W        W46260  20.109   7.741  25.759  0.2681 -0.3321  0.2228
37461W        W46261   7.403   6.533   3.996 -0.2869  0.4618 -0.1014
37462W        W46262   0.915   7.121   6.982 -0.1205  0.0305  0.0953
37463W        W46263  10.514   4.794  10.984  0.1938  0.1314 -0.0153
37464W        W46264  17.478   3.796  10.746 -0.0819  0.0979  0.0780
37465W        W46265  13.498   6.457  26.596  0.2378 -0.4994  0.1768
37466W        W46266   5.222   7.666  27.078  0.2906  0.0252 -0.1957
37467W        W46267   0.529   0.720  26.112 -0.0925  0.1902  0.1993
37468W        W46268   6.015   0.675   9.582 -0.0858  0.2673 -0.2583
37469W        W46269  14.789   0.463  25.024 -0.0470 -0.2743 -0.0929
37470W        W46270   5.517   0.640  27.264  0.0445  0.0613  0.3162
37471W        W46271   8.022   5.817  23.291 -0.3081 -0.0300 -0.2183
37472W        W46272  15.811   6.679   5.567 -0.1291 -0.1945 -0.0617
37473W        W46273  11.274   0.329  16.718  0.1454  0.1933 -0.0578
37474W        W46274   2.548   2.860  20.691  0.4383 -0.1330 -0.2184
37475W        W46275  19.802   1.230  24.103  0.2038  0.2885  0.2405
37476W        W46276   3.867   5.532   6.753  0.0980  0.0346  0.2016
37477W        W46277   2.766   7.061  10.556 -0.3097 -0.2704 -0.1131
37478W        W46278   2.259   6.596   4.143  0.0671  0.0209  0.0837
37479W        W46279  11.525   2.616  24.983 -0.0081  0.0116 -0.1265
37480W        W46280  16.123   3.560  30.678 -0.2073  0.0796  0.2439
37481W        W46281   8.481   5.098  17.027  0.1625 -0.1684 -0.2528
37482W        W46282  22.508   7.225  26.649  0.1669 -0.2925 -0.0505
37483W        W46283  24.302   6.255  10.281  0.0225  0.1426  0.0768
37484W        W46284  12.021   3.285   5.469 -0.0953 -0.3405 -0.1238
37485W        W46285  20.107   3.003  31.339  0.1084  0.2586 -0.0583
37486W        W46286  23.935   6.827  25.231 -0.0133  0.1148  0.0060
37487W        W46287  24.160   5.132   4.389  0.0672  0.1825  0.0745
37488W        W46288   8.434   2.264  18.769 -0.0608  0.3105  0.1549
37489W        W46289   5.014   0.318  12.266  0.2019  0.1886  0.1536
37490W        W46290   5.313   5.628   8.492  0.2350 -0.1135 -0.3688
37491W        W46291  12.973   5.447  28.379  0.1149 -0.1902  0.1042
37492W        W46292  19.574   5.894  20.598 -0.2075  0.1719  0.2299
37493W        W46293   4.047   2.805  30.001 -0.0962  0.2652  0.1094
37494W        W46294  21.575   4.051   7.040 -0.1159  0.2549  0.1892
37495W        W46295  10.812   7.788  13.705  0.3982 -0.2422 -0.1702
37496W        W46296   0.423   7.349  25.880  0.1057 -0.3040 -0.3031
37497W        W46297  15.665   6.943   5.963 -0.0858 -0.0054  0.2290
37498W        W46298  10.213   2.657  12.092 -0.0233  0.0853  0.1370
37499W        W46299   1.891   0.246  23.427 -0.0288  0.0926 -0.1839
37500W        W46300  23.577   7.801  22.652 -0.0047 -0.1151 -0.2334
37501W        W46301  21.182   4.560  14.018 -0.2851 -0.0263  0.0587
37502W        W46302   7.469   0.508   8.255  0.0564  0.0388  0.0232
37503W        W46303  15.741   2.376  10.073 -0.3245 -0.0912 -0.1976
37504W        W46304  15.203   3.972   5.382 -0.1117  0.0915 -0.1116
37505W        W46305   0.999   6.562  21.857  0.0209  0.1654 -0.1407
37506W        W46306   1.857   1.780   7.553  0.1289 -0.0796 -0.0516
37507W        W46307  20.308   7.553  30.676  0.0524  0.2649 -0.0502
37508W        W46308   3.383   6.330   5.030 -0.0438  0.2276  0.0548
37509W        W46309  18.754   4.140   2.780 -0.0621  0.0384  0.0679
37510W        W46310  17.901   4.817   1.740 -0.0201  0.3250 -0.1255
37511W        W46311  17.764   4.428   9.395 -0.0535 -0.0432  0.1054
37512W        W46312  15.913   2.194   3.537 -0.1210 -0.0982 -0.0563
37513W        W46313   3.066   1.080  26.657  0.0016  0.1795  0.1855
37514W        W46314  20.558   6.757  26.253  0.0377  0.0119  0.0732
37515W        W46315   2.663   4.173  30.906  0.1789  0.1076 -0.1721
37516W        W46316  22.704   0.806  16.685  0.1348  0.0050  0.1338
37517W        W46317   5.792   0.711  29.391  0.0573  0.2039 -0.0670
37518W        W46318  20.723   4.984  18.595 -0.1721  0.0457  0.1141
37519W        W46319   7.428   3.563  29.964 -0.0146 -0.1269  0.2684
37520W        W46320   0.047   5.079  18.090 -0.0986  0.0685  0.1716
37521W        W46321  20.239   7.631  21.988  0.3227  0.1011  0.0523
37522W        W46322   2.020   5.044   2.272  0.0224 -0.0748 -0.2412
37523W        W46323   3.708   6.340  31.646  0.0800  0.1093 -0.0541
37524W        W46324  15.410   2.065  26.966 -0.0810  0.1881  0.0692
37525W        W46325  18.193   4.259   4.613 -0.0855 -0.0164  0.0664
37526W        W46326   5.067   3.652  16.562 -0.0268  0.2615  0.1101
37527W        W46327   0.104   3.408  23.786 -0.0760  0.1660 -0.4928
37528W        W46328   8.170   0.832   3.446  0.0470 -0.1761 -0.3743
37529W        W46329   0.972   6.803  26.064  0.3398  0.1414 -0.2738
37530W        W46330  18.114   5.601   1.276 -0.0816 -0.3690  0.1426
37531W        W46331  23.883   5.177   5.001 -0.0809 -0.0007  0.0552
37532W        W46332   1.161   1.392  29.825  0.0425 -0.0773  0.0695
37533W        W46333   6.951   0.266   1.773  0.2302  0.1754 -0.3055
37534W        W46334   3.318   5.182   2.804  0.1672  0.0684  0.1357
37535W        W46335  18.645   3.808   0.594 -0.1631  0.5250 -0.2922
37536W        W46336   9.075   2.891  15.161 -0.1801  0.1207  0.1403
37537W        W46337  19.250   6.908  26.602  0.0750  0.1066  0.1804
37538W        W46338   8.063   1.642   3.037 -0.0262  0.0880  0.1122
37539W        W46339   7.171   5.254   0.073 -0.0501  0.2307 -0.1990
37540W        W46340   9.364   0.659  14.468  0.0653  0.0510  0.1030
37541W        W46341   3.352   7.497   2.206  0.2017  0.0666  0.2358
37542W        W46342   9.000   6.819  24.658 -0.1014 -0.0219  0.0717
37543W        W46343   0.147   4.242  19.725  0.2131 -0.0347 -0.2686
37544W        W46344   1.334   7.199  22.654 -0.1500  0.4729 -0.2069
37545W        W46345   4.339   6.512   7.520 -0.0145 -0.0292 -0.2821
37546W        W46346   0.994   6.248  12.025 -0.0838 -0.1189 -0.0075
37547W        W46347  10.687   3.235  28.523 -0.1327  0.0375 -0.1741
37548W        W46348   4.544   4.214  12.015  0.0189 -0.2087  0.0366
37549W        W46349   3.175   0.421  13.294  0.0117  0.0883 -0.2756
37550W        W46350  21.623   1.072  16.374  0.1642 -0.2226 -0.1460
37551W        W46351  21.495   4.434  22.339  0.0682  0.2011 -0.0151
37552W        W46352   5.036   2.573  13.523  0.1170  0.0220 -0.2107
37553W        W46353   9.963   0.029  24.272 -0.0689 -0.2669 -0.0362
37554W        W46354  13.610   1.750  11.075 -0.0838 -0.0651  0.0329
37555W        W46355  18.731   1.977   5.857  0.1555 -0.1075 -0.0212
37556W        W46356  24.483   7.674  10.499  0.0037  0.1257  0.1600
37557W        W46357   6.114   7.172  27.666  0.1273 -0.1451 -0.1598
37558W        W46358   0.838   7.018  32.461  0.2878  0.0490  0.1476
37559W        W46359  14.225   6.195   5.207  0.0616 -0.1298 -0.0496
37560W        W46360   0.852   0.536   2.691  0.0400  0.0219 -0.1667
37561W        W46361  13.748   6.090   6.390 -0.1792 -0.0846  0.0492
37562W        W46362   4.788   3.924   1.025  0.4123  0.1458 -0.1498
37563W        W46363   8.428   6.787   9.449  0.4161  0.4601  0.2127
37564W        W46364   1.660   0.031  29.888 -0.0185  0.0634  0.2099
37565W        W46365  14.922   1.942  28.528  0.0466 -0.0410 -0.0069
37566W        W46366  18.724   2.655  21.739 -0.3054 -0.2886  0.0697
37567W        W46367  15.736   3.904  30.826 -0.3087  0.0008 -0.0334
37568W        W46368   1.392   2.468  21.834 -0.0759 -0.1063 -0.1212
37569W        W46369  13.378   6.238  27.915 -0.0937 -0.0527 -0.0981
37570W        W46370   2.044   0.083  10.257 -0.0290  0.1450  0.2565
37571W        W46371  12.534   2.745  30.240  0.1407 -0.3273 -0.2711
37572W        W46372  22.233   6.526  28.327 -0.5523 -0.1999 -0.1642
37573W        W46373   1.572   2.277  28.530  0.2346  0.1410  0.0746
37574W        W46374  24.142   2.526   5.063  0.1107 -0.2449  0.1607
37575W        W46375  17.719   1.056  23.775  0.1132 -0.1773  0.2078
37576W        W46376  17.619   2.624  30.338  0.2222  0.2397 -0.2105
37577W        W46377   2.453   2.500   7.673  0.2424  0.0736  0.0318
37578W        W46378  19.289   5.583   5.330 -0.2048 -0.0124 -0.2244
37579W        W46379  11.795   0.793  29.152 -0.0705  0.1047 -0.0583
37580W        W46380   3.074   3.071  31.303  0.1649  0.0775 -0.3816
37581W        W46381   4.619   2.102  12.931 -0.0413  0.1534 -0.3106
37582W        W46382  12.332   4.957  13.083  0.1663  0.4455  0.3273
37583W        W46383   3.175   4.040   8.990  0.0002 -0.1337 -0.0696
37584W        W46384   3.108   5.384  21.341  0.1661 -0.2377 -0.0045
37585W        W46385  10.865   3.092  15.561  0.0710 -0.0114  0.4836
37586W        W46386   2.204   0.091   8.405 -0.0761 -0.2366  0.1147
37587W        W46387   0.108   4.208   9.574  0.0928  0.1332  0.1647
37588W        W46388  19.655   6.373  18.494 -0.2770 -0.0403  0.0315
37589W        W46389   2.343   6.846   3.656 -0.0083 -0.3692 -0.2550
37590W        W46390   4.551   3.741   3.129 -0.0766 -0.1534 -0.2312
37591W        W46391   5.259   2.693   1.267  0.0959  0.0621  0.1416
37592W        W46392  16.619   1.061   1.089  0.2610 -0.2027  0.0904
37593W        W46393   7.077   6.507  26.657 -0.2664  0.0067 -0.0267
37594W        W46394  22.530   2.856   0.426 -0.1979 -0.0359  0.1850
37595W        W46395  23.109   7.322  19.238 -0.2330 -0.3590 -0.2106
37596W        W46396  19.818   2.508  19.985  0.1151 -0.0748 -0.0137
37597W        W46397  25.028   7.796   9.993 -0.2178 -0.1579 -0.0255
37598W        W46398  11.709   5.689   7.018 -0.0233 -0.5576 -0.3904
37599W        W46399  24.795   4.413   2.548  0.0123 -0.0601 -0.0495
37600W        W46400  19.179   1.375  16.656 -0.3623  0.1229  0.1220
37601W        W46401   5.761   7.717   2.990  0.0981 -0.0698 -0.0740
37602W        W46402  22.937   7.183  15.107 -0.0794 -0.1152  0.4344
37603W        W46403   8.492   3.202  27.027  0.1013 -0.1983  0.2853
37604W        W46404  24.349   0.220  24.569 -0.0833  0.0529 -0.4289
37605W        W46405   5.755   1.126  25.518 -0.3155 -0.3842  0.0252
37606W        W46406   9.020   5.812  26.228 -0.0394  0.2277 -0.0265
37607W        W46407  24.222   6.014  29.666 -0.0282  0.0112  0.0059
37608W        W46408  15.729   4.829   8.961 -0.3375  0.2280  0.2805
37609W        W46409  10.315   1.556   7.753  0.0342 -0.1532 -0.2615
37610W        W46410   0.852   2.819   5.669 -0.1166 -0.0306  0.3125
37611W        W46411  19.169   7.355  15.707 -0.0786 -0.2964  0.1416
37612W        W46412   2.911   6.817   3.677 -0.2031  0.1916 -0.1014
37613W        W46413  23.118   1.415   4.229 -0.2532 -0.1485  0.0762
37614W        W46414   5.494   2.719  13.560  0.0203 -0.3113  0.0593
37615W        W46415  20.991   6.936  22.233 -0.0179 -0.1200 -0.0213
37616W        W46416   7.253   1.315   8.621 -0.0385  0.0020 -0.2391
37617W        W46417  12.376   2.706  27.861  0.2550 -0.1948  0.0347
37618W        W46418  13.185   3.687  29.446 -0.0414 -0.0591 -0.1394
37619W        W46419  15.452   5.157  24.043  0.1054  0.2557  0.0423
37620W        W46420   1.918   6.638  24.124 -0.0915 -0.0533 -0.1124
37621W        W46421   1.926   0.707  31.828  0.2703  0.1448  0.0348
37622W        W46422  22.800   6.097  24.136 -0.2476  0.0228 -0.2147
37623W        W46423  19.098   2.440  30.183 -0.0350 -0.0409 -0.3101
37624W        W46424  15.653   2.764  22.219  0.2086 -0.0117 -0.1895
37625W        W46425  21.136   1.357  30.348 -0.1283  0.0529  0.1398
37626W        W46426   0.764   1.179  25.263 -0.0981  0.1321  0.0543
37627W        W46427  11.345   5.203   1.172  0.1729  0.0937 -0.0225
37628W        W46428  17.829   5.410  19.338  0.1667  0.1660  0.0387
37629W        W46429  17.989   6.814  15.689 -0.2728  0.3690 -0.0051
37630W        W46430  18.507   3.716  20.675  0.1761 -0.0417  0.1738
37631W        W46431  17.345   2.124   4.403 -0.0896 -0.1711 -0.0409
37632W        W46432  19.072   0.936  18.154  0.2439  0.1052  0.0209
37633W        W46433   3.815   3.686   0.063 -0.0376  0.0498  0.0383
37634W        W46434   4.620   6.343  28.828  0.0675 -0.0903 -0.0202
37635W        W46435  10.218   2.046  15.976  0.1262 -0.2554 -0.3965
37636W        W46436  10.049   1.351  16.499 -0.1393 -0.4042 -0.0294
37637W        W46437   6.060   3.002  25.842  0.0235 -0.0728  0.1726
37638W        W46438   9.724   0.767  10.592  0.0165  0.0091  0.1286
37639W        W46439  24.964   1.289   2.678  0.0217 -0.2397  0.2658
37640W        W46440   5.539   1.281  12.341  0.2770  0.0057 -0.0687
37641W        W46441   4.753   7.172   8.183 -0.0714  0.0670 -0.0233
37642W        W46442   0.397   6.821  25.826 -0.0829  0.0365  0.0132
37643W        W46443  18.109   1.130  20.211 -0.1526 -0.3094  0.1412
37644W        W46444   8.822   4.697  17.149 -0.1110 -0.1373  0.0367
37645W        W46445   4.668   7.051  26.629  0.3052 -0.0081 -0.2526
37646W        W46446   2.636   1.219   5.589  0.1224  0.0727 -0.3685
37647W        W46447   2.594   0.125  22.778  0.1919 -0.1981 -0.1850
37648W        W46448   3.045   1.768  25.896 -0.0959  0.0053 -0.3025
37649W        W46449   8.459   6.496  16.060 -0.1397  0.0576  0.0026
37650W        W46450   3.070   3.901  10.205  0.0677 -0.3221 -0.1895
37651W        W46451  13.279   0.879  14.367 -0.0732 -0.0558  0.2650
37652W        W46452   5.039   5.430   5.939 -0.0210 -0.0198  0.0421
37653W        W46453   1.491   7.655  22.732 -0.2234  0.1676 -0.0107
37654W        W46454  23.096   7.417   8.791 -0.0449 -0.4209 -0.1481
37655W        W46455  23.775   7.658  19.211 -0.0654  0.0961 -0.3099
37656W        W46456   8.627   0.936  31.504 -0.4170  0.0514  0.1833
37657W        W46457  17.222   6.109  28.797 -0.2948  0.0894  0.1437
37658W        W46458   1.581   3.785  26.625 -0.0137 -0.2586  0.2334
37659W        W46459  14.553   7.508   7.190  0.0000 -0.2579 -0.0971
37660W        W46460   2.759   7.270  26.171  0.0588 -0.0178 -0.3040
37661W        W46461  22.396   6.770  19.496 -0.0634 -0.2149 -0.2415
37662W        W46462  20.313   3.781  15.464  0.0039 -0.1674 -0.0652
37663W        W46463  11.803   5.050   6.608 -0.0309 -0.1548 -0.1976
37664W        W46464  17.044   5.224   4.094  0.1710  0.2369 -0.0360
37665W        W46465   8.569   1.486   6.633  0.1043  0.1366  0.2444
37666W        W46466   0.688   5.916   1.186 -0.0734  0.1187 -0.1689
37667W        W46467   0.822   3.725  30.606  0.1432  0.1812 -0.0159
37668W        W46468  15.410   0.732   2.800  0.1849 -0.0951  0.2198
37669W        W46469   3.529   4.339  22.454  0.1512 -0.0164 -0.0660
37670W        W46470   1.308   6.132  21.922  0.0171  0.0617  0.1672
37671W        W46471  13.584   7.114  22.344 -0.1892  0.0365  0.2046
37672W        W46472   0.274   5.896  27.615 -0.0020 -0.0213 -0.0392
37673W        W46473   0.162   5.265  21.070  0.0996 -0.2379 -0.1783
37674W        W46474  15.351   0.372   3.163 -0.2180 -0.3540  0.3777
37675W        W46475  14.035   6.587  27.273  0.0276  0.2888 -0.1610
37676W        W46476  12.887   4.891   8.332  0.2045 -0.0470 -0.0839
37677W        W46477   3.647   5.243   8.628  0.1458 -0.1148  0.0520
37678W        W46478   5.321   3.994   0.966  0.0894 -0.0606  0.0542
37679W        W46479  19.190   4.741   1.442 -0.1045  0.1711  0.0881
37680W        W46480  19.250   7.755   5.144 -0.1713 -0.3552 -0.0463
37681W        W46481   8.297   6.944  27.188 -0.0480 -0.2169 -0.2019
37682W        W46482  13.096   2.996   0.944  0.2052  0.0409  0.2309
37683W        W46483  17.140   2.939  26.747  0.1565 -0.0671 -0.0162
37684W        W46484  22.542   1.433   6.268  0.0673  0.1230  0.1092
37685W        W46485   0.947   2.142   8.553 -0.2553 -0.1437 -0.1204
37686W        W46486   0.499   3.969   3.958  0.1875 -0.0214  0.0371
37687W        W46487   5.699   7.340   3.931  0.2449  0.1665  0.0557
37688W        W46488  22.118   2.836  29.246 -0.1022 -0.0800  0.0190
37689W        W46489  17.862   2.961  28.006  0.1812  0.1930 -0.2561
37690W        W46490  16.327   1.720  19.939  0.0238  0.2908  0.1393
37691W        W46491  24.501   3.374  29.237 -0.1035  0.1116 -0.1101
37692W        W46492  21.036   0.497  26.035  0.0606  0.0342 -0.1586
37693W        W46493  11.075   6.757   8.207 -0.0175 -0.1424 -0.1488
37694W        W46494  11.716   6.332  10.473  0.0902  0.0887  0.2205
37695W        W46495  17.637   1.086  15.889  0.2634 -0.4739 -0.1966
37696W        W46496  16.023   6.987  32.322  0.2693 -0.3154 -0.0219
37697W        W46497  15.473   3.064  31.486  0.0400 -0.0161  0.1023
37698W        W46498  20.002   4.632  26.999 -0.0275 -0.0554  0.0981
37699W        W46499  14.531   7.199  21.365 -0.1187 -0.2509 -0.1178
37700W        W46500  18.731   7.679  28.951 -0.1577  0.1672  0.1908
37701W        W46501  21.376   6.393   2.201  0.1901  0.1954 -0.2315
37702W        W46502  12.732   0.330   9.365  0.1301 -0.0073 -0.2208
37703W        W46503  15.687   7.695  24.502  0.3617  0.2021  0.0332
37704W        W46504  11.081   4.125  15.090  0.3792  0.0697  0.0381
37705W        W46505   5.825   1.880   6.351  0.0404 -0.2183 -0.1897
37706W        W46506   1.280   0.059  28.958  0.0909  0.0921 -0.2917
37707W        W46507   8.512   3.050  15.700 -0.0520  0.2306  0.0190
37708W        W46508  17.090   0.731  21.812 -0.4804  0.0083 -0.1777
37709W        W46509  16.358   1.295  31.241  0.0882 -0.0463 -0.2100
37710W        W46510   9.182   5.839   4.163 -0.3393 -0.0883 -0.2605
37711W        W46511  19.823   7.080  25.042  0.3062  0.1982 -0.0358
37712W        W46512   3.496   6.150  13.144  0.1589 -0.1613 -0.1281
37713W        W46513  24.023   0.898   9.564 -0.0991  0.3260  0.0369
37714W        W46514  10.589   6.371  28.993 -0.0314  0.0070  0.0052
37715W        W46515   2.187   4.898  10.035  0.0882 -0.2869 -0.0484
37716W        W46516   2.414   5.922   0.435  0.0364 -0.1826 -0.1713
37717W        W46517  12.550   2.061   1.940 -0.1540 -0.1976  0.1186
37718W        W46518  24.703   6.657  23.117 -0.0048  0.0263  0.1650
37719W        W46519  15.416   1.998  23.226 -0.1588 -0.1805 -0.1176
37720W        W46520   3.126   6.566  10.820 -0.1379  0.2370  0.0261
37721W        W46521   2.249   2.028  32.150  0.2114  0.2704  0.1882
37722W        W46522  10.991   5.818   5.209  0.2240 -0.0301 -0.0897
37723W        W46523   6.093   6.171   9.633 -0.1396  0.0921  0.3185
37724W        W46524  16.387   4.357   2.407  0.2752  0.0638  0.2220
37725W        W46525  10.378   4.424  23.305 -0.2048 -0.1453  0.0028
37726W        W46526   8.256   6.550  10.112  0.1923 -0.3290  0.1135
37727W        W46527   5.442   0.743   7.299  0.1798  0.3038  0.0241
37728W        W46528  21.893   5.694   7.795 -0.2459 -0.1460 -0.0650
37729W        W46529   9.846   3.036  27.671 -0.0746 -0.1772  0.2360
37730W        W46530  24.838   2.168  19.479 -0.0421  0.0957 -0.3743
37731W        W46531   6.637   1.356  14.365 -0.2227 -0.2500 -0.0600
37732W        W46532   4.611   4.441   1.183  0.1861  0.0727  0.1170
37733W        W46533   2.108   5.902  22.271 -0.0234  0.1613  0.0548
37734W        W46534  17.424   4.096  32.024  0.0083  0.0243  0.0240
37735W        W46535   3.166   7.516  25.179 -0.0208 -0.0335 -0.1960
37736W        W46536  17.463   6.929  20.377 -0.0123  0.2347 -0.1172
37737W        W46537   6.224   0.422   1.062 -0.2716 -0.2704 -0.1491
37738W        W46538   2.248   7.652  31.257  0.6725 -0.1385 -0.1329
37739W        W46539   8.436   6.073  15.856  0.1485  0.0714  0.1225
37740W        W46540   0.629   2.627   8.001 -0.0193 -0.1546  0.2971
37741W        W46541   8.962   4.879  26.635  0.0705  0.1302  0.2614
37742W        W46542   0.021   0.556  18.803  0.1805 -0.1089  0.1036
37743W        W46543   4.541   7.085   3.526 -0.2131  0.0816 -0.0138
37744W        W46544   0.355   2.210  21.980 -0.0896  0.1994 -0.0584
37745W        W46545  14.879   4.355  25.971 -0.1274 -0.0989 -0.0126
37746W        W46546   6.343   3.590  14.064 -0.2566  0.0145  0.0157
37747W        W46547  14.019   5.024  28.983 -0.0994  0.2179  0.1848
37748W        W46548  17.881   0.883  28.022  0.1288  0.3158 -0.1951
37749W        W46549  12.764   1.859   1.439  0.2524 -0.0594 -0.0698
37750W        W46550  11.089   2.166   2.767  0.1334 -0.1414  0.1431
37751W        W46551  23.326   5.538   7.936  0.0311  0.1979  0.0238
37752W        W46552   1.715   1.676   9.043  0.1107 -0.0174  0.0050
37753W        W46553   5.005   0.248   8.880  0.1584 -0.0665  0.2112
37754W        W46554  13.145   1.123  32.266 -0.5750 -0.1855  0.0036
37755W        W46555  24.051   7.702  27.378  0.2115  0.1836  0.1250
37756W        W46556   9.296   0.566   3.625 -0.2689 -0.0253  0.0159
37757W        W46557  23.952   5.553  22.683  0.1317  0.0666 -0.0643
37758W        W46558  23.144   6.545   5.006 -0.2304 -0.2593 -0.1766
37759W        W46559  20.212   0.641  19.500  0.1960 -0.0538 -0.0085
37760W        W46560  13.717   2.570  28.531 -0.1516  0.0639  0.4590
37761W        W46561  13.460   7.519  22.024  0.0056 -0.1264  0.1456
37762W        W46562  21.734   4.624  28.721 -0.0402 -0.0197  0.0111
37763W        W46563  18.260   5.809  32.105  0.0115  0.2603 -0.0177
37764W        W46564   9.562   6.142  22.873  0.0210 -0.0136 -0.0732
37765W        W46565  24.317   0.728  23.735  0.0949 -0.1759  0.0806
37766W        W46566  20.454   7.052  22.004  0.0340  0.1178 -0.0980
37767W        W46567  16.720   2.046  25.690 -0.1186  0.0885  0.2378
37768W        W46568  22.130   4.538   5.936 -0.2039 -0.0131 -0.3936
37769W        W46569  13.108   5.767   1.925  0.1447  0.0423 -0.0658
37770W        W46570  14.295   2.921  29.751  0.0299  0.0806 -0.1191
37771W        W46571  20.710   4.204   6.112  0.3200  0.0427 -0.1937
37772W        W46572   8.396   6.366  28.173 -0.2248  0.0684  0.1050
37773W        W46573   3.371   3.665   6.495  0.0963 -0.2332  0.0160
37774W        W46574  21.272   6.078   3.422  0.0395 -0.0113 -0.3520
37775W        W46575  17.808   0.926  16.688 -0.3294 -0.0125  0.1083
37776W        W46576  22.011   3.199  23.091  0.0233  0.0947  0.1294
37777W        W46577  13.654   3.368   2.539 -0.2216  0.1535  0.1257
37778W        W46578   0.296   1.622  23.114 -0.1200  0.0922  0.0665
37779W        W46579   7.684   5.941  22.389 -0.4014  0.0217 -0.1742
37780W        W46580  23.259   3.695  23.947  0.0904 -0.1544  0.0663
37781W        W46581   1.804   2.842  22.116  0.0622 -0.0622  0.2070
37782W        W46582   3.724   0.759  28.200  0.3918  0.0427  0.0941
37783W        W46583   0.419   0.725   8.491 -0.0202  0.1364 -0.1644
37784W        W46584  18.148   4.932  30.682 -0.2595  0.3803 -0.0434
37785W        W46585  12.752   1.589  26.444  0.1665 -0.3024 -0.1868
37786W        W46586   9.528   3.632  24.002 -0.0342 -0.1053  0.0292
37787W        W46587  19.987   2.590  22.709 -0.5140  0.3491 -0.1825
37788W        W46588   3.411   1.285  30.067 -0.1033 -0.0784 -0.1928
37789W        W46589  20.636   7.449   4.448  0.3606  0.0479  0.1412
37790W        W46590   0.012   3.231   7.593 -0.1012 -0.1777 -0.1740
37791W        W46591   2.080   1.020   6.457  0.3884  0.0504 -0.0093
37792W        W46592  24.479   0.080  26.737  0.0153 -0.0800  0.4144
37793W        W46593  14.423   4.624   3.476 -0.0896  0.0510 -0.3637
37794W        W46594   5.519   3.523  23.124  0.0010 -0.0500 -0.2553
37795W        W46595   8.841   1.923  29.731 -0.0736 -0.1901  0.0924
37796W        W46596   1.527   7.784   4.963  0.1559 -0.0873  0.0020
37797W        W46597  17.581   6.218   9.644  0.0458  0.0356  0.0761
37798W        W46598   0.907   1.085   6.150  0.0474 -0.0306 -0.0182
37799W        W46599  20.213   2.679  20.359 -0.1613  0.0507 -0.0734
37800W        W46600  17.503   6.216  17.299 -0.1889  0.0808  0.0033
37801W        W46601  19.612   0.104   9.436  0.4525 -0.1675 -0.4315
37802W        W46602  21.154   2.985   3.957 -0.4929  0.0754 -0.0272
37803W        W46603   9.758   1.702  32.600  0.0761  0.3510 -0.0394
37804W        W46604  24.154   5.257   9.008  0.1235  0.3037 -0.2409
37805W        W46605  14.621   4.251  27.668  0.0213 -0.0775  0.0692
37806W        W46606   6.795   4.324  29.589  0.0681 -0.0479 -0.2502
37807W        W46607  17.691   2.814   5.677  0.0488 -0.3046 -0.3059
37808W        W46608   6.955   6.190  12.498  0.2837  0.1470 -0.0725
37809W        W46609  24.717   5.381  21.060  0.0853  0.6138  0.0335
37810W        W46610   2.419   5.352  24.756  0.0319  0.0282 -0.1269
37811W        W46611   6.333   7.573  28.795 -0.1662 -0.0696 -0.1579
37812W        W46612   3.828   0.184  14.015  0.0931 -0.0266 -0.1392
37813W        W46613  20.297   2.056  23.816 -0.0838 -0.1686  0.3839
37814W        W46614  17.305   7.611  28.007  0.0058  0.1527  0.1402
37815W        W46615  21.680   5.978  19.454  0.1156 -0.1420  0.1038
37816W        W46616  18.899   2.655  17.228 -0.0063  0.2186 -0.0409
37817W        W46617  14.223   5.011   7.800  0.2933  0.2177  0.0941
37818W        W46618  24.465   1.293   9.750  0.1678  0.0694 -0.1468
37819W        W46619  10.484   4.311  16.511  0.3035 -0.0169 -0.2533
37820W        W46620   0.111   6.488  26.062 -0.0526  0.1952 -0.0531
37821W        W46621  15.522   0.940   3.869 -0.1600  0.0922  0.1746
37822W        W46622  12.594   0.721   2.687  0.0204  0.0179  0.0917
37823W        W46623  15.351   4.540   3.135  0.0785 -0.0305 -0.1403
37824W        W46624  20.885   7.674  25.165 -0.2353 -0.1057  0.0092
37825W        W46625   4.198   1.633  23.664 -0.2546 -0.0971 -0.5472
37826W        W46626  13.916   1.533   6.340  0.1620  0.1529 -0.0809
37827W        W46627  22.310   4.399  18.309 -0.2098  0.0063 -0.0993
37828W        W46628   5.373   3.420  26.939 -0.0796  0.2448 -0.1779
37829W        W46629  18.235   2.604  21.777 -0.2044 -0.1109 -0.1727
37830W        W46630  10.552   7.107  14.119 -0.0024  0.3510 -0.1483
37831W        W46631   3.382   7.707  26.540  0.4492  0.0056 -0.1107
37832W        W46632  18.964   1.470  19.772  0.1176  0.0329 -0.4213
37833W        W46633   8.265   2.965   1.099 -0.2830  0.0765 -0.2292
37834W        W46634  18.367   1.706  21.437 -0.2188 -0.1081  0.0372
37835W        W46635  17.844   3.426  30.295 -0.0539 -0.1592 -0.1532
37836W        W46636  19.393   5.842  28.503 -0.1829  0.1225  0.1176
37837W        W46637   2.645   5.948  30.937  0.1380  0.2044 -0.0752
37838W        W46638  15.495   2.056  10.945  0.0379  0.1422  0.3034
37839W        W46639  24.293   0.081  28.427  0.1641  0.2764  0.0356
37840W        W46640   3.339   4.010   9.448  0.0437 -0.0085 -0.3533
37841W        W46641  23.190   6.423  18.847  0.2803  0.0958  0.2290
37842W        W46642   9.932   4.699  26.748 -0.2519 -0.0561 -0.1185
37843W        W46643  10.025   4.574  12.332  0.5458 -0.1273 -0.0577
37844W        W46644  16.787   2.442   9.841  0.2468 -0.4248 -0.0071
37845W        W46645   3.728   2.482  26.700 -0.0570  0.0102 -0.0297
37846W        W46646   6.558   6.945   6.999 -0.0956 -0.0659 -0.1673
37847W        W46647   9.670   6.326  25.694  0.1362 -0.0782  0.0106
37848W        W46648   5.883   0.294  15.260  0.1465  0.2205  0.1822
37849W        W46649   9.673   0.484   0.294  0.0046  0.2310  0.1370
37850W        W46650  24.349   5.768  21.651 -0.0541 -0.3172  0.2806
37851W        W46651   7.704   1.649  28.222  0.0002 -0.1450 -0.1400
37852W        W46652   9.240   3.953  31.788 -0.1913 -0.0124  0.1019
37853W        W46653  24.467   7.678  30.146 -0.1170  0.1774  0.0560
37854W        W46654  23.653   5.554  22.269  0.2663 -0.0885 -0.1118
37855W        W46655  20.171   0.678  15.647  0.0432 -0.1819 -0.1602
37856W        W46656   3.107   2.209  20.386  0.0941 -0.0112 -0.0580
37857W        W46657  20.370   0.328  18.431  0.0099  0.3942 -0.0365
37858W        W46658   2.178   5.692   4.923 -0.0737 -0.0662 -0.1734
37859W        W46659  24.771   7.114  21.586  0.1642 -0.1969  0.1253
37860W        W46660   2.481   2.790   5.283 -0.1026 -0.1106 -0.2415
37861W        W46661  24.165   7.347   3.978 -0.1710 -0.4308 -0.1474
37862W        W46662   4.961   2.971  13.228 -0.0192 -0.2240  0.0127
37863W        W46663   8.731   4.568   0.438 -0.2163  0.0768 -0.2041
37864W        W46664  18.711   3.032  32.115 -0.1624 -0.3395 -0.1552
37865W        W46665  15.516   3.041  20.567  0.4596 -0.1120  0.0183
37866W        W46666  24.748   0.218  10.347  0.1945 -0.1845 -0.1479
37867W        W46667  12.943   4.618  31.874 -0.0366 -0.0015  0.3956
37868W        W46668  19.920   3.344  29.555  0.1151 -0.0203 -0.0344
37869W        W46669  17.477   2.996  18.803  0.0023 -0.3655 -0.0385
37870W        W46670  20.030   1.495  30.468  0.1333 -0.2052  0.1281
37871W        W46671   9.664   5.543   7.700 -0.3031 -0.0034 -0.1222
37872W        W46672   6.587   2.768  31.051  0.1963  0.0319  0.1018
37873W        W46673  13.453   0.766  23.054 -0.1694 -0.0612  0.0347
37874W        W46674   0.392   3.712  25.937  0.0532 -0.2359  0.0832
37875W        W46675   4.858   0.859   0.274 -0.1527 -0.0890 -0.4963
37876W        W46676  11.908   6.795   8.128 -0.0149 -0.2303 -0.1878
37877W        W46677   9.171   4.351  16.144 -0.1491  0.2269  0.0040
37878W        W46678   6.358   3.939   3.835 -0.0211 -0.0116  0.0453
37879W        W46679   2.177   4.299  22.138 -0.0883  0.0071 -0.3129
37880W        W46680  13.387   7.247  28.089  0.2621 -0.0874  0.0095
37881W        W46681   4.272   7.551  22.429  0.1584 -0.2487  0.1696
37882W        W46682  16.478   1.880  21.546  0.3469 -0.1599 -0.3180
37883W        W46683  22.181   7.740  20.465  0.1127 -0.0431 -0.0252
37884W        W46684  14.037   3.266  22.954 -0.0631  0.0446 -0.2600
37885W        W46685  18.784   3.939  29.263  0.0617 -0.0119  0.1128
37886W        W46686  14.958   6.485  28.375 -0.1507  0.0256  0.1209
37887W        W46687  11.798   5.512  11.983 -0.1582 -0.1116  0.0182
37888W        W46688   3.424   6.934  28.962  0.0942 -0.1459 -0.0679
37889W        W46689  20.431   0.748  21.806  0.0518  0.1023 -0.0554
37890W        W46690   3.045   2.040   2.520  0.1808 -0.0337 -0.0183
37891W        W46691  12.886   3.761   5.675 -0.1618  0.0855 -0.1338
37892W        W46692  15.045   5.061  30.345 -0.0263  0.3934 -0.1068
37893W        W46693   9.291   2.880  28.537  0.1587 -0.2291 -0.0315
37894W        W46694   3.673   4.765  25.402  0.2471 -0.1750 -0.1103
37895W        W46695   6.216   3.138  16.781  0.3489 -0.0367  0.0811
37896W        W46696  13.446   4.406  20.676 -0.0358 -0.2428 -0.0394
37897W        W46697  20.142   4.685  29.772 -0.2748 -0.0732  0.0333
37898W        W46698  15.941   1.044  10.855  0.0831 -0.2133  0.0558
37899W        W46699  12.255   6.934   2.948  0.2070 -0.0151 -0.0402
37900W        W46700   9.590   0.442  28.665  0.1365  0.3582  0.3139
37901W        W46701   9.043   4.975  28.035 -0.0713  0.1128 -0.1560
37902W        W46702  18.293   2.048   0.777  0.1950  0.3290 -0.0549
37903W        W46703   7.555   7.801   0.582 -0.3618 -0.0478 -0.2356
37904W        W46704   6.797   2.743   0.226 -0.1561 -0.0695 -0.0304
37905W        W46705   1.506   3.239   2.600 -0.2751  0.2198 -0.1130
37906W        W46706   3.704   4.703  11.786  0.2369  0.5218  0.0268
37907W        W46707   4.117   3.122  29.618 -0.3051 -0.0627  0.0106
37908W        W46708  19.322   4.332  23.704 -0.0353  0.0403  0.0492
37909W        W46709   2.745   2.327   3.321  0.1023  0.2634  0.1608
37910W        W46710  15.908   3.542  28.978  0.0492 -0.0287  0.2041
37911W        W46711  22.685   0.468  10.506  0.0893 -0.1606 -0.1566
37912W        W46712  16.882   2.446  24.250  0.1037  0.2676 -0.1819
37913W        W46713   9.809   3.050   1.786  0.1931  0.2232  0.0201
37914W        W46714  16.948   6.289  20.249  0.1452 -0.0770  0.1892
37915W        W46715  24.178   2.801  30.881  0.0466 -0.4583 -0.0624
37916W        W46716  20.644   0.823  15.931  0.1988 -0.0218  0.0208
37917W        W46717  15.471   1.605  31.319 -0.1407  0.0716 -0.1347
37918W        W46718  11.986   5.196   5.333  0.3023 -0.0521 -0.2129
37919W        W46719   4.063   0.025   8.451 -0.2834  0.1047  0.5114
37920W        W46720  17.071   4.659  29.425  0.3159  0.1743 -0.1507
37921W        W46721   1.578   3.356  20.172  0.0413  0.2997 -0.2509
37922W        W46722   9.566   2.108  29.645 -0.1008  0.0157 -0.0214
37923W        W46723   0.604   4.467   0.297 -0.1888 -0.1734  0.0755
37924W        W46724  20.433   3.685   8.195 -0.0250  0.3230 -0.3940
37925W        W46725   0.227   2.906  16.409  0.1619  0.0241  0.0011
37926W        W46726   4.045   6.612  28.123 -0.2089 -0.1637  0.1823
37927W        W46727  20.835   2.842  17.279 -0.3208  0.0336 -0.1665
37928W        W46728   4.814   1.706  21.781 -0.5005  0.2498 -0.0292
37929W        W46729   2.730   4.251   1.361  0.0624 -0.1058 -0.1912
37930W        W46730   2.898   4.224  21.147  0.0497 -0.4075  0.0381
37931W        W46731   6.720   3.206  27.092 -0.0039  0.2413  0.0878
37932W        W46732   9.933   2.725   0.947  0.0012 -0.0147 -0.0140
37933W        W46733   5.375   2.866   5.480 -0.1282 -0.0720  0.0306
37934W        W46734   3.707   5.708   7.619 -0.0658  0.3254 -0.1884
37935W        W46735  10.374   5.110  15.937 -0.0384 -0.0529 -0.2275
37936W        W46736  22.599   4.007   1.942 -0.3010 -0.2941  0.1140
37937W        W46737   3.038   6.254  12.396 -0.1238  0.0464  0.1571
37938W        W46738  14.371   6.538   3.869  0.0528  0.0022 -0.0213
37939W        W46739  23.551   2.638  29.891 -0.0265 -0.1340  0.0896
37940W        W46740  18.740   3.946   8.306 -0.1812 -0.0503 -0.2220
37941W        W46741   6.831   0.137   5.569  0.0313  0.2295 -0.0258
37942W        W46742   8.457   6.211   7.620  0.1979 -0.0136  0.2629
37943W        W46743  10.781   3.815  24.968 -0.3953 -0.0702 -0.0350
37944W        W46744  12.129   5.202  12.223 -0.0315  0.0189 -0.1005
37945W        W46745  21.837   3.823   9.924 -0.1879  0.0849  0.1123
37946W        W46746  12.313   3.160  31.649 -0.1425 -0.2143 -0.1456
37947W        W46747   9.827   0.307  12.346 -0.0268 -0.0687 -0.0916
37948W        W46748  12.153   1.631   7.775 -0.0365  0.0451  0.0379
37949W        W46749  10.418   4.139   3.934 -0.0830 -0.1433 -0.3740
37950W        W46750   9.690   4.035  10.437  0.0286 -0.0440  0.1254
37951W        W46751   4.301   4.628  23.925  0.0525  0.1131  0.0891
37952W        W46752   8.408   4.936  14.194  0.2242  0.3114 -0.3118
37953W        W46753   6.186   6.512   7.674 -0.1047 -0.1368 -0.0908
37954W        W46754  19.916   2.631  27.388  0.0174  0.0625  0.2762
37955W        W46755  10.088   2.639   4.143  0.0475 -0.1278 -0.1049
37956W        W46756  21.469   6.536  30.755 -0.0504 -0.2861  0.2882
37957W        W46757   6.819   3.546  32.152  0.0278  0.2707  0.2129
37958W        W46758  11.926   6.436  31.335 -0.0139 -0.1304  0.0435
37959W        W46759  22.612   6.164  27.924  0.1729 -0.1645 -0.0436
37960W        W46760   1.522   6.368  24.114  0.3241  0.0084  0.0446
37961W        W46761  18.034   2.102  21.342 -0.1749  0.1233  0.2022
37962W        W46762   5.673   2.197  24.361 -0.2810  0.0462 -0.1059
37963W        W46763   9.617   6.790   7.771 -0.1686 -0.0782 -0.0840
37964W        W46764   5.733   1.419  15.595 -0.0023 -0.1023  0.1339
37965W        W46765   1.941   0.289  19.450 -0.0751 -0.0830 -0.0622
37966W        W46766  21.618   1.503  24.662  0.0261 -0.0810  0.0413
37967W        W46767   5.927   0.523   5.111  0.2019 -0.1101 -0.1364
37968W        W46768   8.803   0.214  18.720 -0.0195 -0.1943  0.1938
37969W        W46769  22.821   7.659  16.741  0.1731 -0.0747  0.0915
37970W        W46770   2.215   1.505   7.724  0.0658 -0.1793 -0.0541
37971W        W46771  20.852   1.835  25.085 -0.2365  0.0693 -0.0461
37972W        W46772  23.551   6.250   9.609 -0.0334  0.0729 -0.3343
37973W        W46773  22.039   3.878  18.266  0.0157 -0.0755  0.0270
37974W        W46774   3.626   7.709   5.458  0.0103 -0.1096 -0.0629
37975W        W46775  15.012   5.141  25.243  0.0063  0.0854  0.3033
37976W        W46776  14.167   3.710   4.665  0.2021 -0.2128 -0.0480
37977W        W46777  18.453   2.409  30.921 -0.0955  0.1053 -0.2735
37978W        W46778  14.204   5.914  24.859  0.0417 -0.0911  0.0551
37979W        W46779  12.686   6.594  24.255 -0.2806  0.1883  0.1140
37980W        W46780   7.270   0.838  15.303  0.2101  0.0546 -0.4456
37981W        W46781   6.417   2.547   4.603 -0.1768  0.0599 -0.3089
37982W        W46782  17.126   2.665   0.281  0.1941  0.3923  0.1679
37983W        W46783  11.249   6.441  13.079 -0.0986  0.0522  0.1415
37984W        W46784   9.208   5.024   8.865 -0.4693  0.2187  0.0077
37985W        W46785   0.782   4.194   8.895 -0.1580  0.1160  0.0690
37986W        W46786   9.694   5.365  29.257  0.1460 -0.2546 -0.3082
37987W        W46787  20.379   5.822  23.410 -0.0338 -0.0619  0.0445
37988W        W46788   5.237   7.683  21.905  0.0852 -0.3317  0.0225
37989W        W46789  24.281   2.055  27.264 -0.0227 -0.2627 -0.2079
37990W        W46790   7.409   4.382  14.661 -0.0156 -0.1580  0.1062
37991W        W46791   6.981   2.416  10.465 -0.0041  0.0382  0.0101
37992W        W46792  20.156   3.021  25.329 -0.0006 -0.1527  0.0166
37993W        W46793  16.705   6.626  11.275 -0.2209  0.0054 -0.1547
37994W        W46794  25.033   1.470  30.533  0.0169 -0.1576 -0.1165
37995W        W46795  21.968   6.407  22.080 -0.0336 -0.0108  0.1486
37996W        W46796  20.862   0.705   4.691  0.0279  0.0951 -0.1540
37997W        W46797  18.146   3.692  32.705  0.0664  0.1075  0.1437
37998W        W46798  22.689   0.551  26.224 -0.0126 -0.1024  0.0836
37999W        W46799  12.552   3.313  27.935  0.3471  0.1825  0.1651
38000W        W46800  15.423   2.562   2.598 -0.1422  0.0275 -0.0361
38001W        W46801  13.429   0.631  13.022 -0.5178 -0.1322  0.2086
38002W        W46802  23.385   6.218   6.124  0.0805 -0.1387  0.0951
38003W        W46803   0.415   1.218   8.363  0.3361  0.1057 -0.2779
38004W        W46804   7.104   3.292   3.978 -0.2345  0.1205  0.2224
38005W        W46805   7.562   3.412  24.144 -0.2511  0.0148 -0.0237
38006W        W46806   6.357   1.067  23.824  0.2834  0.0172 -0.1585
38007W        W46807  14.235   0.576  24.116  0.0156  0.1460  0.1038
38008W        W46808  22.551   3.053  20.847 -0.0790  0.2290  0.1067
38009W        W46809  12.240   1.571  26.429  0.2011  0.0175  0.1496
38010W        W46810  12.729   3.583   7.651 -0.3630 -0.1780 -0.0264
38011W        W46811  18.225   4.632  10.288  0.1067 -0.2386  0.1218
38012W        W46812   2.251   1.764  27.542  0.3085  0.0242 -0.0907
38013W        W46813  19.895   4.572   1.995 -0.0787  0.0891  0.0825
38014W        W46814   3.593   6.491   5.459  0.0190  0.0192  0.2080
38015W        W46815  11.945   5.713  30.654  0.1898  0.1242  0.0330
38016W        W46816  19.947   0.380  24.374 -0.5488 -0.0535  0.1311
38017W        W46817   1.922   5.947  24.169  0.1198 -0.1898  0.3612
38018W        W46818   4.129   2.520   0.898 -0.1302 -0.4314 -0.2042
38019W        W46819  24.193   7.486   5.000  0.0270  0.3112 -0.2038
38020W        W46820   0.856   6.201  19.178 -0.0150  0.2506 -0.0886
38021W        W46821  19.960   5.018  32.344 -0.1224 -0.1206 -0.0130
38022W        W46822  12.943   2.723  28.958 -0.2187  0.0013 -0.0895
38023W        W46823   9.911   6.191   5.103  0.0740 -0.1752 -0.1617
38024W        W46824   3.171   5.918  29.662 -0.0635 -0.0949 -0.1103
38025W        W46825  24.278   5.092  26.974  0.3120  0.0491 -0.0659
38026W        W46826  13.765   5.651  22.126  0.2622 -0.0270  0.0240
38027W        W46827   0.686   6.820  20.863  0.1361  0.2726  0.0076
38028W        W46828  10.011   5.210  25.144  0.1775 -0.0930 -0.2118
38029W        W46829   7.077   7.707   3.598 -0.0616  0.2558 -0.0851
38030W        W46830  23.917   2.627   9.956  0.1819 -0.0581  0.2182
38031W        W46831   6.368   5.417  31.257  0.3059  0.1229  0.1825
38032W        W46832  10.505   7.310  15.264 -0.0629 -0.2125  0.0438
38033W        W46833  22.255   7.138  22.730 -0.0516 -0.0692 -0.1352
38034W        W46834   8.441   2.011   6.479 -0.2480 -0.0715 -0.2632
38035W        W46835   5.669   4.313  25.823  0.2779 -0.2189 -0.1100
38036W        W46836  19.468   6.316   8.439  0.1225 -0.1767  0.0863
38037W        W46837   8.183   7.589   6.433  0.2134  0.2042 -0.0033
38038W        W46838  11.260   6.677   5.749 -0.0866  0.1243  0.3558
38039W        W46839  18.439   0.109  24.443  0.1980  0.1063  0.1081
38040W        W46840  19.346   2.134   9.703  0.1947  0.1218  0.1313
38041W        W46841  18.824   7.011  31.279  0.2670 -0.0744 -0.2644
38042W        W46842   8.065   2.363  27.208 -0.1951 -0.3605  0.0329
38043W        W46843   1.883   1.094  21.054 -0.1473  0.0595  0.2350
38044W        W46844  12.647   5.623  25.936 -0.0680 -0.5761 -0.1467
38045W        W46845  15.461   3.838  10.824 -0.2527 -0.0598  0.3052
38046W        W46846  19.627   4.088   4.009  0.0701 -0.3694  0.1838
38047W        W46847  17.597   0.574  27.776  0.2273 -0.0825  0.0201
38048W        W46848   3.064   6.675  32.138  0.0595 -0.2029 -0.2975
38049W        W46849   5.990   2.198  25.197  0.1268  0.0382  0.1329
38050W        W46850  16.664   0.265   9.882 -0.0154 -0.1233 -0.0515
38051W        W46851   7.866   1.532   3.584  0.2488  0.1964 -0.0201
38052W        W46852   6.606   1.405  22.325  0.2143  0.0396 -0.1513
38053W        W46853  24.386   7.096   3.186 -0.1170  0.2078  0.2958
38054W        W46854  17.555   0.017   3.454  0.1061 -0.0987 -0.2382
38055W        W46855  10.281   5.647  15.685  0.1675 -0.4015 -0.1802
38056W        W46856  17.027   7.246  18.108 -0.1052 -0.3046  0.0524
38057W        W46857  22.807   3.354  30.218 -0.1289  0.1728 -0.0872
38058W        W46858   3.133   5.876   0.040 -0.0329 -0.1227  0.0976
38059W        W46859  13.883   2.717  27.895  0.1057  0.0139 -0.0493
38060W        W46860  23.486   2.540   2.728 -0.2534  0.0886 -0.1502
38061W        W46861   9.758   4.814  24.843  0.0555  0.1533 -0.0541
38062W        W46862  10.064   7.674   7.450  0.2921  0.1730  0.2027
38063W        W46863  22.984   5.486  16.266 -0.3731 -0.1227 -0.2104
38064W        W46864   9.273   1.230  28.678  0.0774 -0.1900 -0.0500
38065W        W46865  22.871   2.384  22.118  0.1384 -0.1402  0.1359
38066W        W46866   6.330   2.965   2.593  0.0255 -0.0492 -0.0247
38067W        W46867   7.108   4.288  27.900  0.0406  0.0625  0.0095
38068W        W46868  19.468   3.234   2.157  0.1836 -0.0425 -0.2353
38069W        W46869  11.902   2.549  24.082  0.0627  0.1277 -0.1183
38070W        W46870  22.058   4.748   7.038  0.0605  0.1134  0.0197
38071W        W46871  15.846   6.711  28.820 -0.1342 -0.0126  0.0957
38072W        W46872  18.605   2.810  24.246 -0.0490  0.0828  0.0723
38073W        W46873  18.845   3.210  24.523  0.1780 -0.0367  0.0045
38074W        W46874   3.248   1.540   7.972 -0.0107 -0.1719 -0.0076
38075W        W46875  19.631   2.351  30.450  0.1897  0.0879 -0.1432
38076W        W46876   3.583   1.183   0.400  0.0612 -0.0567  0.3766
38077W        W46877   5.800   5.932  17.026  0.0087 -0.0079 -0.0166
38078W        W46878  21.355   5.394   5.743  0.2114  0.0289  0.0699
38079W        W46879   3.742   0.853   5.740  0.0073 -0.1911  0.1151
38080W        W46880  17.851   5.030   9.493 -0.0084 -0.0666  0.3316
38081W        W46881  11.955   5.590  21.820  0.2005 -0.2200 -0.1633
38082W        W46882  15.909   2.847   6.686 -0.0853  0.0275  0.1220
38083W        W46883   7.285   4.052  17.714 -0.0332  0.1563  0.1683
38084W        W46884   8.896   6.128  31.657 -0.1566 -0.2688  0.0319
38085W        W46885  19.709   4.343  25.679 -0.1166  0.0907 -0.0041
38086W        W46886   7.511   2.768  17.930  0.3411  0.1135 -0.0833
38087W        W46887   3.429   1.060  23.870  0.1166  0.3970  0.0983
38088W        W46888  14.379   0.803   5.093  0.0696  0.0878 -0.1740
38089W        W46889  24.670   3.395  30.596  0.0541 -0.3956  0.1168
38090W        W46890   1.489   5.358  32.353  0.2587  0.0531 -0.1601
38091W        W46891   2.015   2.283   7.796 -0.0327 -0.1609  0.3711
38092W        W46892   3.510   1.557  28.617 -0.0699 -0.1013  0.2281
38093W        W46893  10.729   6.561  13.154 -0.1828 -0.1154  0.0019
38094W        W46894  14.718   7.791   7.591 -0.0163 -0.2102 -0.0733
38095W        W46895  11.402   7.485   9.361 -0.2109 -0.3204 -0.0297
38096W        W46896  15.611   7.207  21.734  0.1136 -0.3037 -0.1750
38097W        W46897   5.037   1.443  12.498 -0.1255 -0.0513  0.2166
38098W        W46898  24.356   3.525  24.154 -0.2474  0.1181  0.0064
38099W        W46899   3.768   3.960  25.764 -0.1611  0.1385  0.1727
38100W        W46900   5.983   5.152   8.483 -0.0161 -0.1362  0.1730
38101W        W46901  11.619   0.955  15.558  0.0624  0.0775  0.3644
38102W        W46902  20.740   5.200   8.108 -0.2070  0.1676 -0.1182
38103W        W46903  24.653   3.359   4.307 -0.0602  0.0325  0.0036
38104W        W46904  16.339   2.063   1.778 -0.0795  0.1744  0.0502
38105W        W46905  11.237   0.068   9.623  0.1030 -0.1161 -0.0235
38106W        W46906  24.217   1.763  23.641 -0.1144 -0.3119  0.1991
38107W        W46907   8.764   0.276  17.671 -0.0437 -0.0536  0.2444
38108W        W46908  24.329   0.426  22.299 -0.1249 -0.0270 -0.0096
38109W        W46909   8.706   5.418  12.972 -0.2813 -0.0088  0.1577
38110W        W46910  12.966   1.603  31.834  0.2609 -0.0162 -0.1336
38111W        W46911   5.650   3.171  13.847 -0.0611 -0.0654 -0.1403
38112W        W46912  20.117   5.084  31.894 -0.1389 -0.2170 -0.0427
38113W        W46913  23.514   4.427  29.352 -0.1660 -0.1259  0.3129
38114W        W46914   8.800   2.079   9.335 -0.1590 -0.2644  0.0980
38115W        W46915   6.612   7.487   5.322 -0.2539  0.0031 -0.0565
38116W        W46916  10.636   7.282   5.278 -0.0000 -0.1500 -0.2279
38117W        W46917  24.359   7.532  22.703 -0.1839 -0.0871  0.1713
38118W        W46918  13.513   2.758   8.818  0.0683 -0.1178 -0.0858
38119W        W46919   0.369   3.988  20.981 -0.0484  0.1558  0.0243
38120W        W46920  20.034   3.228  17.499  0.3359  0.0257 -0.0683
38121W        W46921  14.493   6.891   7.190 -0.5591  0.0194 -0.2901
38122W        W46922  10.296   2.466  28.352  0.0568 -0.1172  0.0184
38123W        W46923   9.930   5.856   4.100 -0.0451  0.0799  0.0069
38124W        W46924   8.150   1.716   3.962 -0.0111 -0.0829  0.1146
38125W        W46925  21.765   0.633   0.026 -0.0235  0.0015 -0.2134
38126W        W46926   9.283   2.443   6.683 -0.1841  0.0356 -0.1133
38127W        W46927  13.431   0.159  24.891  0.2606 -0.1133 -0.0977
38128W        W46928  24.145   3.850  17.969  0.0575 -0.0469  0.1536
38129W        W46929   1.667   7.092   3.454  0.1681 -0.2614 -0.3357
38130W        W46930  13.697   5.150   4.665 -0.1317  0.0772  0.0633
38131W        W46931  19.473   3.200   8.312 -0.1971  0.0898  0.0703
38132W        W46932   3.055   7.019   2.047  0.1474  0.2332  0.1828
38133W        W46933  24.407   2.949  25.525 -0.1666 -0.2269  0.1649
38134W        W46934  13.888   6.239  26.876 -0.2316 -0.0261 -0.0823
38135W        W46935   6.963   7.620  30.777 -0.2544  0.0515  0.0639
38136W        W46936   3.752   0.050  29.238 -0.2176  0.1498  0.0298
38137W        W46937  11.014   3.988  15.679 -0.0704 -0.0908 -0.0794
38138W        W46938   7.690   3.755  32.660  0.0401 -0.1490  0.2026
38139W        W46939   7.136   1.388  23.643  0.2014  0.0706  0.1420
38140W        W46940  17.930   1.256   0.811 -0.4858  0.0935 -0.1693
38141W        W46941  11.559   4.771   6.259  0.1081 -0.0073 -0.0771
38142W        W46942  16.692   6.397  18.391 -0.0896  0.3074 -0.0368
38143W        W46943  24.804   3.284  31.298  0.1008  0.2455 -0.3734
38144W        W46944   6.121   4.342   9.593 -0.0228  0.4021  0.2127
38145W        W46945  23.509   6.256  22.498 -0.1303  0.1961  0.3088
38146W        W46946  11.661   6.577   2.254  0.0835 -0.3277 -0.2422
38147W        W46947  11.724   4.479  25.832 -0.3969 -0.3148  0.0220
38148W        W46948   7.036   4.462  12.729  0.0227 -0.1124 -0.1909
38149W        W46949  12.481   2.792  29.748 -0.2493  0.0727  0.0648
38150W        W46950  20.155   2.708  26.445 -0.1229 -0.1384  0.0073
38151W        W46951  20.518   2.096  25.880 -0.1441  0.1050 -0.0107
38152W        W46952  22.619   2.102  28.995  0.2341 -0.0047 -0.3625
38153W        W46953  19.987   2.641   7.574  0.1542  0.2890 -0.1863
38154W        W46954   3.939   2.558  31.710 -0.0298 -0.2599  0.3335
38155W        W46955  19.858   0.061  27.521  0.1444 -0.1337 -0.0883
38156W        W46956  17.896   1.616  26.126 -0.0448  0.1493 -0.1259
38157W        W46957  23.204   3.073  18.044  0.2336  0.0682 -0.0282
38158W        W46958  18.336   3.068   3.910  0.2142  0.0699  0.2176
38159W        W46959  15.764   7.810  23.334 -0.1683  0.0840  0.2159
38160W        W46960  14.812   3.702   7.374  0.1024 -0.1184  0.2001
38161W        W46961   3.658   5.015  28.060 -0.1613  0.1365  0.0279
38162W        W46962   7.246   4.624  22.897 -0.0193 -0.1539  0.1186
38163W        W46963  22.068   7.234   7.983  0.0111 -0.1705  0.1276
38164W        W46964  24.714   2.943  10.254  0.0130  0.0189 -0.3126
38165W        W46965   5.918   4.785  32.120  0.2595 -0.2738 -0.1042
38166W        W46966   8.894   3.948   6.610  0.1585  0.1328 -0.2928
38167W        W46967  13.935   2.052   7.785  0.0651 -0.0048  0.0916
38168W        W46968  13.398   0.077  26.526  0.1114 -0.0171  0.1344
38169W        W46969  23.763   2.373  22.343 -0.2091 -0.3392  0.1433
38170W        W46970   6.666   1.593   5.082 -0.0628  0.0152  0.1751
38171W        W46971   9.138   3.553  17.241  0.0116 -0.0690  0.1990
38172W        W46972   0.167   6.044  22.672  0.1418 -0.2640 -0.2930
38173W        W46973  13.804   3.329  28.875  0.0727  0.0052 -0.1909
38174W        W46974  20.898   4.718   1.302 -0.0087  0.2579  0.0970
38175W        W46975  21.761   4.023  26.414 -0.0975  0.2266  0.4272
38176W        W46976  24.652   4.567   4.858 -0.0354 -0.1329 -0.0262
38177W        W46977  13.579   3.272   7.549 -0.0820 -0.1252 -0.1626
38178W        W46978  23.756   3.481   6.752 -0.2572 -0.1009  0.2201
38179W        W46979   1.008   7.498  32.265  0.0106  0.1932  0.1283
38180W        W46980   6.339   0.411  25.275  0.0336  0.3737 -0.0671
38181W        W46981  15.473   2.000  22.428  0.1559 -0.0828  0.0281
38182W        W46982   3.546   2.975   4.960 -0.2632 -0.1489 -0.2161
38183W        W46983   5.931   1.523   6.994  0.1266  0.1257 -0.1905
38184W        W46984  12.726   5.896   2.599  0.3322  0.1244  0.2444
38185W        W46985  24.399   2.634   9.122  0.1059 -0.0861  0.0049
38186W        W46986  16.987   5.409  23.561  0.0521 -0.1362 -0.2879
38187W        W46987   1.096   2.262  28.745 -0.0338 -0.0155 -0.2724
38188W        W46988  15.360   5.216   6.079  0.1831  0.0083 -0.0184
38189W        W46989   1.085   4.877  24.994  0.1840 -0.1697 -0.1526
38190W        W46990  16.432   2.769   5.223  0.0604  0.2453  0.0275
38191W        W46991  22.090   7.692   2.868  0.0860  0.2093  0.0589
38192W        W46992   1.372   5.030   4.391  0.1540  0.0111  0.2454
38193W        W46993  16.586   6.381  26.648  0.1353  0.0751 -0.0949
38194W        W46994  22.682   3.037   1.218  0.0946  0.0700 -0.3032
38195W        W46995   9.391   7.075   1.137  0.2307  0.0384  0.1233
38196W        W46996   0.751   5.737  24.732  0.0342 -0.1145 -0.0330
38197W        W46997   8.658   5.652   6.803  0.0815 -0.2790 -0.0566
38198W        W46998  16.474   4.850  32.390 -0.3145 -0.2524  0.1598
38199W        W46999   6.659   1.719  12.920  0.1714 -0.1131  0.1971
38200W        W47000  12.418   1.883   1.078 -0.1030  0.0558  0.2411
38201W        W47001   4.325   7.383  27.461 -0.0749  0.2060  0.2564
38202W        W47002  14.506   0.953  11.885 -0.1589 -0.0044  0.0456
38203W        W47003  23.825   2.074  16.992 -0.1451 -0.1236  0.2748
38204W        W47004   8.981   5.262  12.589 -0.2755 -0.0946 -0.2937
38205W        W47005   9.697   5.738  28.274  0.1183  0.0253 -0.0757
38206W        W47006  14.380   0.676   8.908  0.1565 -0.1727 -0.1272
38207W        W47007   8.136   4.295  10.765 -0.0053  0.1014 -0.1151
38208W        W47008   4.125   3.326  32.000  0.0384 -0.0764 -0.1603
38209W        W47009  21.584   6.401   7.155 -0.0233 -0.3230  0.1281
38210W        W47010  21.389   0.083   8.764 -0.1246  0.1568 -0.1740
38211W        W47011  22.878   6.488  16.020  0.0462  0.1334  0.2937
38212W        W47012  22.564   0.807  21.318  0.1374 -0.1933 -0.0828
38213W        W47013  23.557   1.633  16.719 -0.2350 -0.3443  0.1023
38214W        W47014  21.569   4.894  15.544  0.3664  0.1283  0.1683
38215W        W47015  21.010   7.704  29.404 -0.1171  0.3734  0.0696
38216W        W47016   3.201   0.318   1.480  0.0631  0.0371 -0.0676
38217W        W47017  21.544   5.755  17.824 -0.0509 -0.2832 -0.1254
38218W        W47018  10.075   0.849  24.626 -0.1456  0.0259 -0.0528
38219W        W47019  11.181   1.177  32.052 -0.0255  0.0913  0.2983
38220W        W47020   0.239   6.898   6.589  0.1979 -0.0348  0.1223
38221W        W47021   3.981   3.185   9.552  0.0550  0.2085  0.1300
38222W        W47022   6.970   4.060  12.198  0.2569 -0.0096 -0.0892
38223W        W47023  16.600   0.793  30.066 -0.1609  0.1945 -0.2864
38224W        W47024   3.911   7.209   8.821  0.0713 -0.0812 -0.1225
38225W        W47025  14.407   6.221  32.493 -0.1349 -0.3081  0.1948
38226W        W47026   9.840   3.815  11.793 -0.0872 -0.0356  0.0154
38227W        W47027   6.909   5.927  10.203 -0.1642 -0.0697 -0.0258
38228W        W47028  15.416   5.822  12.500 -0.1983  0.0296  0.0678
38229W        W47029  23.259   6.861  29.610 -0.1412  0.1971 -0.0437
38230W        W47030  13.682   3.651  26.232 -0.1082 -0.2265 -0.0797
38231W        W47031  15.638   5.913  25.068  0.1711 -0.3589 -0.0359
38232W        W47032   9.958   5.248   8.607  0.1294  0.4095  0.1460
38233W        W47033  21.232   2.026  29.577  0.0014  0.1449 -0.0914
38234W        W47034  18.033   3.799   4.797  0.0971 -0.1781 -0.0231
38235W        W47035  13.081   5.780  13.862 -0.0530 -0.1572 -0.2325
38236W        W47036   0.182   7.303   5.068 -0.1554  0.1637 -0.2735
38237W        W47037  10.548   0.772   0.038 -0.2518 -0.3068  0.0562
38238W        W47038  13.149   7.005   7.113  0.1094 -0.2638  0.0102
38239W        W47039  13.543   7.745  27.671 -0.0767  0.1750  0.2078
38240W        W47040  14.338   7.007  20.892 -0.0898  0.0406 -0.1113
38241W        W47041   5.395   0.192  26.328 -0.5062 -0.0651 -0.1540
38242W        W47042   0.876   3.940  25.140 -0.0465  0.0884  0.1346
38243W        W47043  22.679   7.041   3.282 -0.3565 -0.2227  0.3464
38244W        W47044  17.821   3.379  29.801  0.0760 -0.1395  0.0494
38245W        W47045   7.346   0.941   3.856 -0.0262 -0.0964 -0.0672
38246W        W47046  13.412   4.617   5.182 -0.0357 -0.1919 -0.0486
38247W        W47047  21.485   4.631  20.212 -0.3357 -0.1393 -0.2632
38248W        W47048  19.813   2.236   5.022  0.4362 -0.0645 -0.0314
38249W        W47049   5.015   5.489  25.791  0.1178 -0.2075  0.0813
38250W        W47050   4.488   4.786   3.557 -0.5045  0.0366  0.0593
38251W        W47051  24.235   2.123   2.787  0.0400  0.1170  0.3155
38252W        W47052   7.290   5.855  14.300 -0.0096 -0.2012 -0.0890
38253W        W47053  17.958   2.232   0.403  0.0952  0.0372  0.1407
38254W        W47054  21.586   5.843   1.637  0.0552  0.2062  0.0450
38255W        W47055  11.730   4.603  30.154  0.2079 -0.0682  0.1090
38256W        W47056  17.200   4.771  22.458  0.0077 -0.3121 -0.2566
38257W        W47057   8.415   6.945  30.694 -0.2194 -0.3038 -0.0146
38258W        W47058  12.830   3.103   4.613  0.0433  0.3380 -0.1165
38259W        W47059  17.300   0.778  11.405  0.0321  0.4177  0.1612
38260W        W47060  22.651   1.354   4.058 -0.1027 -0.0344  0.0464
38261W        W47061  12.266   7.611  15.021  0.1891 -0.4236  0.0984
38262W        W47062  10.539   4.789  17.284  0.0160  0.0845  0.0983
38263W        W47063   1.586   3.232  24.231  0.0839  0.1914  0.4474
38264W        W47064  15.411   5.220  31.197 -0.1798  0.2369 -0.0702
38265W        W47065   1.986   3.657   8.549  0.0153 -0.0345  0.0802
38266W        W47066   6.884   6.391   5.397 -0.3298 -0.4511  0.1692
38267W        W47067  16.089   0.927  27.787 -0.2726 -0.1340  0.0025
38268W        W47068   1.520   1.271  24.758 -0.2207 -0.0704  0.1377
38269W        W47069  17.005   0.225  10.663  0.2960 -0.0085 -0.0903
38270W        W47070  15.322   5.436   1.165 -0.1178 -0.1594 -0.0528
38271W        W47071  24.761   6.177  26.184  0.0818  0.2850  0.5430
38272W        W47072   6.461   6.097  14.628 -0.1729  0.0054 -0.5385
38273W        W47073   2.471   5.657   2.962 -0.1457  0.1176 -0.0467
38274W        W47074   0.879   1.511  30.334  0.1789 -0.1526  0.1635
38275W        W47075  16.238   7.168   0.126  0.0506 -0.1054  0.0730
38276W        W47076   6.674   3.158  29.601  0.3366  0.0122 -0.1099
38277W        W47077   0.639   7.261  20.641 -0.1726 -0.2675 -0.5429
38278W        W47078  14.409   0.529  28.417  0.3025  0.0455  0.3016
38279W        W47079   2.393   3.323  20.441  0.2347 -0.0996  0.1236
38280W        W47080  13.310   7.087  10.287 -0.0603 -0.0223 -0.0203
38281W        W47081   9.252   1.122  12.867 -0.0655 -0.1983 -0.0556
38282W        W47082  14.432   6.687  24.833 -0.1718 -0.1657  0.1309
38283W        W47083   9.287   0.075  13.998  0.1657 -0.0331 -0.0568
38284W        W47084  24.960   4.285  24.197 -0.0185  0.1106 -0.0761
38285W        W47085  14.401   7.577  24.041  0.2295 -0.1652 -0.2270
38286W        W47086  16.537   4.211   5.496  0.2863 -0.1763  0.0773
38287W        W47087  24.298   7.095  21.905 -0.1840 -0.2246  0.1247
38288W        W47088   3.478   3.610   3.893  0.0549  0.0647 -0.1015
38289W        W47089  18.978   1.880   0.100  0.2384  0.1426  0.0769
38290W        W47090  23.133   3.889   8.929 -0.2244 -0.1689  0.0349
38291W        W47091   6.331   7.231  16.995  0.0268 -0.0088 -0.0890
38292W        W47092  21.537   3.026  22.943  0.0316 -0.1369 -0.2933
38293W        W47093  14.592   1.129  26.168  0.2772 -0.0511 -0.1178
38294W        W47094  15.398   3.096   8.045  0.0929  0.2795 -0.2590
38295W        W47095  17.967   7.552   3.589  0.1813  0.1769 -0.2432
38296W        W47096   6.162   5.290   3.340 -0.3323  0.0588  0.2805
38297W        W47097  10.213   3.581   5.062  0.2368  0.2879  0.0864
38298W        W47098   7.469   6.318  16.350  0.2301 -0.0046 -0.2561
38299W        W47099  24.343   3.102  31.294 -0.1683 -0.0718 -0.0880
38300W        W47100   9.759   5.707  18.074 -0.3105 -0.0992 -0.0388
38301W        W47101  12.261   5.559  25.279  0.0315 -0.1238 -0.3620
38302W        W47102   7.646   7.737   8.395 -0.0566 -0.1081  0.0739
38303W        W47103   5.973   6.010   1.855  0.2339 -0.1939 -0.0248
38304W        W47104   4.399   2.549  11.827 -0.2449  0.0640 -0.0148
38305W        W47105   9.322   4.253  29.473 -0.0640 -0.1765 -0.0447
38306W        W47106   3.439   2.936   1.374 -0.2627 -0.0013 -0.1425
38307W        W47107   9.354   0.534  16.523  0.1070 -0.0897 -0.0702
38308W        W47108   4.322   7.408  32.352  0.1226 -0.0806  0.0470
38309W        W47109   6.516   3.378  23.357 -0.1612  0.5935  0.2005
38310W        W47110  16.515   3.380  30.417 -0.1521 -0.0521 -0.2446
38311W        W47111  20.378   2.494   7.331 -0.0014  0.1127  0.0745
38312W        W47112   8.952   1.547  27.612  0.0245  0.0501  0.4294
38313W        W47113  24.124   7.442  18.268 -0.1230  0.2149  0.2232
38314W        W47114   0.238   1.763   0.030 -0.3193 -0.3138  0.1126
38315W        W47115  20.592   0.477   4.345  0.3385  0.2608  0.0491
38316W        W47116  19.161   3.593  14.079  0.1068  0.0183  0.0584
38317W        W47117  11.645   5.229  12.407  0.0269 -0.0091  0.5638
38318W        W47118  19.500   3.784  24.265 -0.0058 -0.1690  0.0506
38319W        W47119   5.810   1.742  27.310  0.1355 -0.4151  0.1893
38320W        W47120  22.115   1.042  16.511 -0.1199  0.0175  0.4108
38321W        W47121   2.904   5.582  23.083  0.2235  0.1709 -0.2722
38322W        W47122  20.519   7.524   5.080  0.0282 -0.0229 -0.1059
38323W        W47123   5.011   7.415  10.140  0.0638 -0.1712 -0.0555
38324W        W47124  24.479   2.106  27.767 -0.0125 -0.0335 -0.1211
38325W        W47125  22.548   1.490  19.548 -0.1256 -0.4485 -0.1420
38326W        W47126  24.601   1.061   3.033  0.0825 -0.0436 -0.3153
38327W        W47127  24.601   4.099   6.804  0.5039 -0.0993 -0.2488
38328W        W47128  14.991   0.702  10.588 -0.0817 -0.0380 -0.0889
38329W        W47129  21.894   0.168  29.789 -0.2137  0.2966 -0.0589
38330W        W47130   3.921   1.251  25.018  0.1227  0.1513  0.1251
38331W        W47131   6.276   3.224  30.780  0.2317 -0.0942 -0.3930
38332W        W47132  20.509   5.405  23.589  0.0729  0.1891 -0.2267
38333W        W47133   6.895   2.662  11.015 -0.1296  0.1374 -0.0740
38334W        W47134  16.593   0.994   2.750  0.2205 -0.2539  0.3932
38335W        W47135  11.558   1.700   6.609  0.0845  0.1835  0.0925
38336W        W47136   1.655   2.914   5.243 -0.0462  0.2333  0.0848
38337W        W47137  12.027   3.646  24.973 -0.0010  0.1648 -0.2673
38338W        W47138  16.718   3.362   2.932  0.0688  0.0986 -0.1595
38339W        W47139  16.724   4.972   2.773  0.2082 -0.1455 -0.0626
38340W        W47140   6.859   6.927  23.634 -0.3537 -0.1495 -0.0670
38341W        W47141   8.378   6.732  23.504 -0.2272  0.1282 -0.2249
38342W        W47142  18.278   7.659  10.816 -0.0816  0.0286  0.2334
38343W        W47143  11.351   4.406   2.890  0.1543 -0.0963 -0.1597
38344W        W47144   5.792   6.962  27.975  0.1508  0.0593  0.1322
38345W        W47145   3.711   1.238   6.001  0.2516 -0.1242 -0.3610
38346W        W47146  20.984   4.487  32.486 -0.0738  0.0856  0.2782
38347W        W47147   6.095   4.592  24.452 -0.1920  0.0610  0.2312
38348W        W47148   9.898   6.394   0.531 -0.1660 -0.1156  0.2515
38349W        W47149  24.807   3.513  19.128 -0.2149 -0.3275 -0.0338
38350W        W47150   1.244   5.797   3.283 -0.0617  0.0394 -0.0651
38351W        W47151  12.860   0.798  14.925  0.4484 -0.1589  0.2908
38352W        W47152   8.758   5.202  11.209  0.0102  0.0134 -0.2138
38353W        W47153  14.539   2.259   9.733  0.1594 -0.3068 -0.0767
38354W        W47154   6.660   2.892  23.655 -0.0522 -0.1547 -0.2004
38355W        W47155  21.430   7.757  30.450 -0.2978  0.1797 -0.0471
38356W        W47156  23.041   1.884  26.099 -0.1867  0.0463 -0.2313
38357W        W47157  23.178   2.311  28.183 -0.2924  0.2194  0.1494
38358W        W47158   2.029   7.407  23.647  0.0019  0.1136 -0.0806
38359W        W47159   4.216   3.457   6.027 -0.2796  0.1191  0.1310
38360W        W47160  19.263   2.965  19.144 -0.1069  0.0606  0.0862
38361W        W47161  20.203   4.036  27.596  0.0199  0.0551  0.1069
38362W        W47162  19.549   1.323  22.471 -0.0242 -0.2942  0.0522
38363W        W47163   2.839   0.931  28.476 -0.1112  0.1534 -0.1567
38364W        W47164  23.517   1.679   8.740  0.2028  0.1277  0.1370
38365W        W47165  21.387   2.818   4.389  0.2503  0.0007 -0.2500
38366W        W47166  10.022   1.544  13.069  0.1441 -0.2187  0.1062
38367W        W47167  11.370   2.492   9.720  0.0983 -0.1378 -0.0577
38368W        W47168  19.819   5.816  22.740  0.3155  0.2093 -0.2742
38369W        W47169  24.297   2.620  32.637  0.0904 -0.0871 -0.2071
38370W        W47170   3.710   0.978  13.043 -0.1181  0.1217  0.0482
38371W        W47171   1.083   1.381  22.438  0.0343  0.2290  0.1122
38372W        W47172  24.779   6.316  30.527 -0.0883  0.3565  0.1822
38373W        W47173  18.880   0.279   9.670 -0.1294  0.2191  0.2466
38374W        W47174  22.638   7.269  29.002 -0.3581 -0.0831 -0.0798
38375W        W47175  10.168   7.093  24.110 -0.1961 -0.0372 -0.0581
38376W        W47176  19.322   7.799   8.476  0.0899  0.0455  0.3462
38377W        W47177  14.616   5.026   5.939 -0.0221 -0.2181 -0.0682
38378W        W47178  11.456   7.222  16.903  0.0879  0.4472 -0.3562
38379W        W47179   0.382   7.489   3.665 -0.2094  0.0554 -0.3204
38380W        W47180   1.314   3.842   9.419  0.2682 -0.0026 -0.4641
38381W        W47181   2.966   4.770   3.636  0.0987  0.1351  0.3122
38382W        W47182  13.298   0.875   6.233 -0.2070 -0.0948 -0.1971
38383W        W47183  17.473   2.732  23.554  0.0777 -0.0752 -0.1581
38384W        W47184   8.251   5.055  29.091  0.0059 -0.0623 -0.1118
38385W        W47185  23.719   1.283  21.609 -0.0021  0.0522  0.3746
38386W        W47186  16.799   5.745  10.267  0.0832 -0.1503  0.0167
38387W        W47187   6.689   2.630   4.138  0.1520 -0.1186  0.0842
38388W        W47188  21.257   7.506   7.729  0.1268 -0.0346  0.0517
38389W        W47189  12.291   6.282   0.098 -0.2535 -0.2419  0.1445
38390W        W47190  23.069   6.986  31.661  0.0708  0.2827  0.0647
38391W        W47191  10.933   5.453  30.784  0.2290 -0.2850 -0.1421
38392W        W47192  19.495   4.549   2.431  0.0765  0.0472 -0.1787
38393W        W47193  18.346   6.288   1.461 -0.1207 -0.0654  0.1210
38394W        W47194  17.530   5.491  25.440 -0.2558  0.1519 -0.1659
38395W        W47195  20.796   2.994  28.825 -0.0742  0.1523  0.4223
38396W        W47196  24.958   1.383  31.777  0.1224 -0.1269  0.0617
38397W        W47197  12.472   2.546  14.797  0.0095 -0.0950  0.0740
38398W        W47198  17.246   5.955  17.654 -0.1380 -0.2258  0.2129
38399W        W47199   4.500   0.548  14.771  0.1541 -0.1469 -0.0577
38400W        W47200   2.946   7.011   8.924  0.1102 -0.0971  0.0012
38401W        W47201   4.150   1.304   9.899 -0.0515 -0.1189  0.0383
38402W        W47202  14.083   3.957  10.982  0.5229  0.0002 -0.5248
38403W        W47203  23.926   3.677  32.504 -0.1319  0.1244  0.4646
38404W        W47204   3.684   0.555  26.490  0.0301  0.2070  0.0893
38405W        W47205  12.010   1.419   2.602 -0.2700 -0.2472 -0.1431
38406W        W47206  11.790   0.285  25.422 -0.0802 -0.0784  0.3514
38407W        W47207  12.918   5.557   7.159 -0.0272 -0.1367  0.0217
38408W        W47208  13.520   4.565  13.297  0.2339  0.1948 -0.1650
38409W        W47209  12.595   2.755  21.315  0.1363 -0.1030  0.1417
38410W        W47210   7.302   5.560   9.030 -0.0116 -0.0913  0.0428
38411W        W47211  17.207   0.801   9.377 -0.0138  0.0287  0.0308
38412W        W47212  17.286   4.912  22.985 -0.1068 -0.1567  0.1087
38413W        W47213   7.133   3.354   7.497  0.0066  0.2720  0.2500
38414W        W47214  23.111   2.750  32.415  0.1763 -0.1427 -0.1629
38415W        W47215  23.089   1.953  24.962  0.1306 -0.4458  0.2304
38416W        W47216   6.180   5.061   6.442 -0.3246 -0.0568  0.0655
38417W        W47217  18.190   6.211  31.541  0.1057  0.1659 -0.1023
38418W        W47218  19.879   4.302  31.235  0.0045  0.0934  0.2146
38419W        W47219  18.324   2.118  10.605  0.1307 -0.0019  0.2310
38420W        W47220   1.816   6.101  30.136 -0.0961  0.0245  0.2638
38421W        W47221   6.688   0.513   0.802 -0.0162 -0.1966  0.1481
38422W        W47222  15.189   2.997   5.273 -0.1130  0.2876  0.0070
38423W        W47223  21.166   3.244   9.411  0.0708 -0.1187 -0.1014
38424W        W47224  20.923   3.920  16.063  0.1485 -0.0586 -0.1702
38425W        W47225   0.195   3.301   3.271 -0.0808  0.1210 -0.1227
38426W        W47226  16.516   5.555  28.286 -0.0107 -0.2014 -0.1548
38427W        W47227   9.355   4.001  23.665 -0.2613  0.1482  0.0916
38428W        W47228  18.618   6.269  19.431 -0.2303 -0.2578 -0.1617
38429W        W47229   8.000   1.361  14.273 -0.2627 -0.1979  0.0793
38430W        W47230   5.263   3.340   5.480 -0.1122  0.3391 -0.0744
38431W        W47231  18.694   7.330   1.275 -0.0906 -0.2234 -0.0872
38432W        W47232  13.019   3.229  10.355  0.2142 -0.2725  0.2350
38433W        W47233   3.600   0.993  28.669 -0.0872 -0.4240 -0.3668
38434W        W47234  20.942   6.392  25.103 -0.0928  0.1290 -0.0468
38435W        W47235  16.203   0.321   3.438 -0.0807 -0.0255 -0.2167
38436W        W47236  15.767   3.013   4.351  0.2795  0.5197  0.0403
38437W        W47237   1.349   0.276  24.578  0.1656 -0.0434  0.2460
38438W        W47238  19.388   1.760  18.587 -0.0918 -0.0418 -0.2550
38439W        W47239  11.559   2.737  11.586  0.1951 -0.1736  0.1152
38440W        W47240  21.024   5.738  27.737 -0.1633  0.0104  0.0298
38441W        W47241   9.135   5.270   2.657  0.3153 -0.0065 -0.1199
38442W        W47242  17.772   4.121  22.572  0.2725  0.2284 -0.0088
38443W        W47243  11.368   4.282  30.987  0.2395  0.0770  0.0276
38444W        W47244  14.849   4.107  24.285  0.0332  0.2048 -0.0073
38445W        W47245  22.674   4.990  10.039 -0.0480  0.0237  0.0154
38446W        W47246  15.173   3.130   4.789 -0.1540 -0.1059 -0.0984
38447W        W47247  21.137   6.798   5.444 -0.1964  0.1958  0.1184
38448W        W47248  24.035   1.904  27.897 -0.2163 -0.0154 -0.1133
38449W        W47249   6.345   1.550  11.383  0.0639  0.0927 -0.0151
38450W        W47250  23.523   1.012  27.140 -0.3033  0.0313 -0.1518
38451W        W47251  19.236   4.353  25.931  0.3123  0.0600  0.0869
38452W        W47252  15.033   3.327   1.817 -0.0377  0.1545 -0.0706
38453W        W47253  17.783   3.268  18.126  0.0727  0.0686 -0.1039
38454W        W47254  20.986   2.209  15.317  0.0390  0.0450  0.0043
38455W        W47255   6.312   4.588  15.761 -0.0206 -0.0289 -0.0942
38456W        W47256   9.023   6.441  24.270 -0.0579 -0.1922  0.1440
38457W        W47257  12.236   4.957  29.003  0.1493  0.1784 -0.3274
38458W        W47258   5.162   2.874  12.762  0.1808 -0.4511  0.2390
38459W        W47259  25.009   5.273  23.131 -0.0814 -0.0271  0.5179
38460W        W47260  17.634   5.015  17.977  0.0047 -0.1130  0.1571
38461W        W47261  22.008   2.021  16.166  0.0150  0.0914 -0.1620
38462W        W47262  16.356   5.165  30.806  0.3841  0.0272 -0.0395
38463W        W47263  10.203   0.632  30.836 -0.1579 -0.2169 -0.0525
38464W        W47264   8.490   6.697  16.840  0.1992 -0.1393  0.0242
38465W        W47265  24.266   3.263  30.813 -0.1384  0.0454  0.0866
38466W        W47266   5.561   3.955   4.135 -0.2080 -0.1360 -0.2081
38467W        W47267  11.657   1.411  25.926  0.1191 -0.1492  0.2360
38468W        W47268   4.637   5.809   5.058 -0.1133 -0.1446 -0.1697
38469W        W47269  15.803   6.574  31.469  0.1715  0.0655 -0.1355
38470W        W47270  10.087   0.359   1.720  0.2880  0.0246  0.0162
38471W        W47271   7.695   0.190  25.294  0.0708 -0.0208  0.0268
38472W        W47272   0.435   2.604  17.960  0.2370 -0.0140  0.0633
38473W        W47273  15.461   7.468   4.362  0.2222  0.1478  0.0844
38474W        W47274   0.978   5.391  20.888 -0.0835  0.2299 -0.4028
38475W        W47275  13.679   1.504  12.909 -0.1781  0.1981  0.0519
38476W        W47276  21.697   2.725   6.676  0.2082 -0.1673 -0.2238
38477W        W47277  16.482   3.152  18.705 -0.1080 -0.0622  0.3208
38478W        W47278   4.502   2.846  29.675  0.2738 -0.0445 -0.0623
38479W        W47279  20.995   4.133  14.765 -0.1986 -0.1722 -0.0353
38480W        W47280   4.730   2.166  29.395 -0.0364 -0.0843  0.0847
38481W        W47281  20.037   7.265  16.932  0.0044 -0.0606 -0.1897
38482W        W47282  19.966   6.510   2.983 -0.1217  0.1918  0.1492
38483W        W47283   4.888   0.084  24.146  0.1604 -0.0599  0.2052
38484W        W47284   8.226   2.364  14.136 -0.3139  0.2230 -0.0931
38485W        W47285   9.211   2.649  31.505  0.0320  0.2965 -0.0094
38486W        W47286  22.634   0.000   9.407  0.1675 -0.0629 -0.2490
38487W        W47287   2.428   4.476  11.896 -0.1587 -0.1072 -0.0222
38488W        W47288  22.808   5.515  26.823  0.2395 -0.0596  0.0685
38489W        W47289  11.340   6.804   2.543  0.1066  0.0858 -0.1522
38490W        W47290  11.687   1.911   9.102  0.2725 -0.0855  0.0917
38491W        W47291  23.212   7.706   4.113 -0.0617  0.0475 -0.2610
38492W        W47292  10.090   3.183   0.792 -0.1852  0.1111 -0.1013
38493W        W47293  13.845   4.429  22.159 -0.3533  0.0115  0.0222
38494W        W47294  16.288   0.579  22.728 -0.1334  0.3335  0.1749
38495W        W47295  14.291   3.025  11.364  0.0506 -0.2335 -0.0054
38496W        W47296   3.719   4.735   0.335  0.2355  0.1554 -0.3294
38497W        W47297  10.985   2.845   5.208  0.3582 -0.1268 -0.2572
38498W        W47298  22.800   3.093  26.812  0.1634  0.2967 -0.1236
38499W        W47299  20.551   5.231  27.371 -0.1610  0.2768  0.1525
38500W        W47300  23.826   2.302  32.695 -0.5684  0.0678  0.0719
38501W        W47301  22.775   4.337  25.867  0.1230  0.0692  0.1046
38502W        W47302  17.624   6.993  31.630  0.1157  0.2382 -0.0764
38503W        W47303   5.077   4.704   6.953  0.0471 -0.1888  0.3360
38504W        W47304   5.223   0.135  10.889  0.0051  0.1489 -0.2261
38505W        W47305   4.501   1.505   9.298 -0.1154  0.0385 -0.0519
38506W        W47306   3.594   3.243  21.586  0.1888 -0.0071  0.1113
38507W        W47307  14.802   5.323  23.399  0.3430 -0.1444 -0.0648
38508W        W47308   1.717   3.832  20.361 -0.1352 -0.1456  0.0272
38509W        W47309   9.179   0.893  26.965 -0.1526 -0.2769 -0.1122
38510W        W47310  16.943   5.455   3.657 -0.3797  0.1099  0.2767
38511W        W47311  17.022   2.581   2.925  0.1008  0.2551  0.3826
38512W        W47312   7.127   7.192  14.551  0.0678 -0.1422  0.1369
38513W        W47313   2.180   5.694   6.207  0.0078 -0.0202 -0.0680
38514W        W47314   1.346   3.944  18.840 -0.2110 -0.1619  0.2204
38515W        W47315  22.315   6.975   6.431  0.3119 -0.0577 -0.1103
38516W        W47316   6.052   0.881   2.863  0.0015  0.2082  0.1617
38517W        W47317   5.140   5.606   4.187 -0.0315  0.0886 -0.2409
38518W        W47318  10.449   1.276  30.015  0.0209 -0.1824  0.1004
38519W        W47319  23.518   3.143  18.491 -0.0318 -0.0739  0.1368
38520W        W47320   1.985   5.535  28.007  0.1093 -0.3662  0.1858
38521W        W47321  20.243   1.836  28.249  0.3790 -0.1343 -0.3883
38522W        W47322  18.771   7.300   5.165 -0.1351 -0.0061  0.0568
38523W        W47323  10.776   0.877  15.220 -0.1507  0.1808 -0.0276
38524W        W47324  17.288   4.986   0.573 -0.0779  0.0808 -0.1355
38525W        W47325  16.206   7.544  25.031  0.0871 -0.4120  0.1386
38526W        W47326   6.199   6.936  22.905  0.0939 -0.0596  0.0873
38527W        W47327   8.175   1.879  18.627 -0.4402 -0.2734 -0.0402
38528W        W47328  21.167   6.143   1.616 -0.1247  0.1048 -0.1642
38529W        W47329   3.601   6.344   7.226  0.0243  0.0260 -0.0786
38530W        W47330   4.409   7.543  23.362 -0.2507  0.3227  0.0198
38531W        W47331   7.806   2.827  26.423  0.2867  0.0121 -0.0966
38532W        W47332   9.273   7.185  25.257 -0.1799 -0.0887 -0.1886
38533W        W47333  16.775   3.331  27.420  0.0682  0.1232  0.0877
38534W        W47334  20.368   2.860   1.412 -0.1676  0.3590 -0.1393
38535W        W47335  14.526   1.782  31.700  0.1116  0.1063 -0.0666
38536W        W47336  10.192   4.741  25.088 -0.0275  0.0898 -0.1698
38537W        W47337   3.052   2.208   1.089 -0.2545  0.1665  0.0199
38538W        W47338  21.581   0.301   3.791 -0.0737 -0.1443 -0.0511
38539W        W47339   7.843   2.961  16.643 -0.0544 -0.2056 -0.0840
38540W        W47340  21.773   0.239  16.126  0.0435 -0.0425 -0.0373
38541W        W47341   3.417   1.640  11.910  0.2030 -0.2623  0.2192
38542W        W47342  19.286   1.564   9.659  0.1078  0.2092  0.1949
38543W        W47343   9.246   5.284  30.176 -0.1005  0.2445 -0.0840
38544W        W47344   4.855   4.531  28.560  0.3293  0.2772 -0.0497
38545W        W47345   8.465   6.570  12.754 -0.0816  0.2372  0.1402
38546W        W47346   1.239   1.120  21.932  0.0573 -0.1328 -0.0457
38547W        W47347  15.297   3.089  22.267 -0.1004  0.2004 -0.0534
38548W        W47348   4.945   5.467   0.104  0.0607 -0.2350 -0.0796
38549W        W47349  20.636   5.447   4.430  0.0420 -0.2418  0.0333
38550W        W47350  11.510   0.888  11.888 -0.0173  0.0249  0.1065
38551W        W47351   4.509   7.792  27.756 -0.3665  0.0487 -0.0477
38552W        W47352  23.395   4.845   6.803  0.3112  0.0042 -0.0023
38553W        W47353  22.655   0.489  28.022  0.0801 -0.0310  0.0725
38554W        W47354   3.241   0.977  21.656  0.1235 -0.2015  0.0601
38555W        W47355   1.174   6.342   5.699 -0.1122  0.0067 -0.2208
38556W        W47356   0.250   1.148  21.842  0.0405  0.1319  0.1752
38557W        W47357   7.972   5.016   5.598  0.1844  0.0542 -0.2036
38558W        W47358  13.018   7.120  12.870  0.0034  0.2819 -0.0276
38559W        W47359  19.376   5.496  23.562 -0.0781  0.1235 -0.3536
38560W        W47360   7.840   2.306  24.417 -0.1666  0.1477 -0.1274
38561W        W47361   8.823   3.049   2.376  0.2866 -0.2938  0.1367
38562W        W47362  20.947   2.491  24.268 -0.0025 -0.0721 -0.0823
38563W        W47363   5.080   3.950   3.038  0.0515 -0.0027  0.2095
38564W        W47364   4.751   4.688  28.078 -0.1100 -0.1108  0.1269
38565W        W47365   9.735   3.643   2.847 -0.1480 -0.4315  0.0627
38566W        W47366  11.835   1.001  21.436 -0.0397 -0.1983  0.1088
38567W        W47367   4.987   7.526  16.474  0.0311  0.0278  0.3534
38568W        W47368   6.995   1.610  32.583 -0.0954  0.0896  0.1294
38569W        W47369   9.838   7.420   4.555 -0.1422  0.1751  0.2454
38570W        W47370   8.971   4.311   3.735  0.0639  0.4116 -0.2036
38571W        W47371  10.957   2.955   7.991 -0.0471  0.2357 -0.0769
38572W        W47372  24.558   3.622  17.903 -0.1431 -0.1034  0.0837
38573W        W47373   1.870   3.917   9.596 -0.0261 -0.0793  0.0591
38574W        W47374   3.015   5.014   0.854  0.2324 -0.1212 -0.0363
38575W        W47375  23.689   7.658   4.021 -0.3092 -0.1389  0.0247
38576W        W47376  14.069   3.172   5.645  0.0505 -0.2369 -0.0155
38577W        W47377   4.421   4.268   2.662 -0.0817  0.1019  0.1571
38578W        W47378   1.869   5.926  20.616  0.1410  0.1369  0.1417
38579W        W47379  11.532   1.242  12.666 -0.1412  0.0926  0.0068
38580W        W47380  19.166   3.510   4.881  0.2659  0.3657 -0.0464
38581W        W47381  20.179   1.292  29.670  0.1023  0.1213  0.1133
38582W        W47382  12.087   1.070  25.394 -0.1176 -0.1744 -0.0514
38583W        W47383  12.597   6.781  23.664 -0.0966 -0.1854 -0.1505
38584W        W47384  20.714   5.024   9.429 -0.0287  0.2244 -0.0045
38585W        W47385  10.430   6.153  28.561  0.0816  0.0322 -0.2919
38586W        W47386  15.366   3.312  27.093 -0.3197 -0.1826 -0.1445
38587W        W47387  12.413   7.635  25.029 -0.1759 -0.0605 -0.0738
38588W        W47388  12.846   5.095   4.696 -0.0894 -0.0117 -0.2141
38589W        W47389   2.021   2.560  24.725 -0.3133  0.2668  0.2084
38590W        W47390   3.449   2.506  12.347  0.0087 -0.2622 -0.1582
38591W        W47391   7.531   1.323  25.990  0.1708 -0.1592  0.0679
38592W        W47392   2.699   7.004  23.043  0.3840 -0.0916 -0.0366
38593W        W47393   7.529   1.459  11.777  0.0383 -0.1520  0.0472
38594W        W47394  17.505   3.242   2.524  0.2738 -0.1297  0.1982
38595W        W47395   6.136   3.766   5.793  0.0825  0.0106 -0.1906
38596W        W47396  23.839   4.085   8.113 -0.2967 -0.0588 -0.3990
38597W        W47397  14.527   4.255  20.672  0.2217  0.2150  0.0952
38598W        W47398  24.661   3.525  19.780  0.1667 -0.0129  0.1093
38599W        W47399  22.307   3.547  25.662  0.1054  0.0269 -0.1553
38600W        W47400  14.946   6.826  23.495 -0.1755  0.2068 -0.3388
38601W        W47401  15.072   6.612  10.368 -0.1753 -0.1458  0.0455
38602W        W47402  24.856   0.836  28.219  0.2085  0.1369 -0.2614
38603W        W47403   0.406   4.376  22.470 -0.4382 -0.2367  0.0293
38604W        W47404  20.562   5.929  17.047  0.0488  0.1087  0.0040
38605W        W47405  23.873   3.495   7.277 -0.0086  0.2114  0.1499
38606W        W47406   3.101   7.002  23.361 -0.1502 -0.1435 -0.3662
38607W        W47407  18.666   0.056  24.899 -0.1629 -0.2096  0.2511
38608W        W47408   7.741   6.676  17.710 -0.0082 -0.0050 -0.0425
38609W        W47409  17.806   2.991   6.503  0.2216 -0.0713  0.2496
38610W        W47410  23.640   3.678   9.688  0.1259  0.2227 -0.0961
38611W        W47411   4.354   5.637   3.014 -0.0219  0.0755  0.1317
38612W        W47412   9.746   5.313   9.922  0.5553 -0.2373 -0.3034
38613W        W47413   0.459   4.884   2.745 -0.0694  0.3600  0.2379
38614W        W47414   5.310   2.957   6.358  0.1585 -0.0460 -0.0825
38615W        W47415  24.814   4.686  26.231 -0.2660  0.0990  0.1857
38616W        W47416   5.510   0.696  26.481 -0.0287 -0.0579 -0.1333
38617W        W47417  12.598   5.542  27.068  0.0724  0.3434 -0.0586
38618W        W47418   2.350   7.199  32.485  0.0449 -0.0123 -0.0795
38619W        W47419  17.059   1.243  22.434  0.0795 -0.0475  0.1842
38620W        W47420  24.947   2.258  28.401 -0.1944  0.0282  0.0839
38621W        W47421   6.634   1.505  28.119 -0.5201 -0.2346  0.2145
38622W        W47422  24.323   2.237  26.080 -0.0786 -0.1980 -0.2255
38623W        W47423  16.518   6.648   8.283 -0.1407 -0.0800  0.3603
38624W        W47424   7.337   2.490  26.685 -0.1951  0.0837 -0.1904
38625W        W47425  16.282   5.117   0.697 -0.3213 -0.0926 -0.0904
38626W        W47426  16.446   1.600   4.620  0.1712  0.1181  0.0692
38627W        W47427  22.100   2.923   3.576 -0.0643 -0.1310 -0.2184
38628W        W47428  15.854   4.935  21.895  0.4328  0.2315 -0.2316
38629W        W47429  22.051   0.021  23.386 -0.1302 -0.2013 -0.0029
38630W        W47430   6.810   0.077   8.891  0.1240 -0.4375  0.0168
38631W        W47431  19.700   7.043  15.539  0.2815 -0.0899  0.0459
38632W        W47432  21.222   0.667  24.726  0.1363 -0.1094 -0.2882
38633W        W47433  19.880   5.473  19.614  0.1225  0.0415  0.0157
38634W        W47434  22.603   4.193   7.905  0.0076 -0.1963 -0.0181
38635W        W47435   6.568   4.539   8.214  0.2664 -0.1602  0.2298
38636W        W47436  11.225   1.479  28.351 -0.1827  0.2059 -0.0161
38637W        W47437  15.168   5.958  10.949  0.0742 -0.0197  0.0368
38638W        W47438  11.696   0.435  28.120 -0.1261 -0.2140  0.0344
38639W        W47439   4.695   3.240   5.806  0.1137  0.0354  0.0219
38640W        W47440  15.548   4.572  23.869  0.0809 -0.0397 -0.2485
38641W        W47441  13.590   3.310  26.596 -0.0073 -0.1127 -0.4320
38642W        W47442  22.895   5.136  21.079 -0.0318  0.0372 -0.0827
38643W        W47443   9.813   3.628  18.266 -0.1487  0.0022 -0.0224
38644W        W47444  20.583   1.065  28.831  0.1021 -0.0102  0.0585
38645W        W47445  10.922   4.556  15.012  0.2872  0.2017 -0.0379
38646W        W47446  19.223   0.410   2.065 -0.0547 -0.0349 -0.2330
38647W        W47447  19.483   0.784  17.867  0.0573 -0.2097  0.1468
38648W        W47448  11.479   6.910   9.828  0.1392  0.1737 -0.0171
38649W        W47449   5.949   0.618  24.583  0.2060  0.1566 -0.2154
38650W        W47450  12.171   4.376  14.442 -0.1326  0.1171 -0.0070
38651W        W47451  17.604   2.529  10.520 -0.0222  0.3191 -0.0366
38652W        W47452  23.795   4.833  15.292 -0.2253  0.0367  0.0422
38653W        W47453  11.964   2.907   3.166  0.2213 -0.1844 -0.3234
38654W        W47454   2.703   1.709   7.952  0.0542 -0.1759  0.3066
38655W        W47455  16.515   5.330  32.122  0.1845  0.1191  0.2702
38656W        W47456  15.122   3.463  31.338  0.0627 -0.2613 -0.0729
38657W        W47457  14.475   3.588  28.949  0.0721  0.0422  0.2851
38658W        W47458  19.272   1.587  22.787 -0.1090 -0.1302 -0.0215
38659W        W47459  17.908   5.318   2.000 -0.0048 -0.2413  0.1613
38660W        W47460  22.589   4.556   5.705  0.0833 -0.0678  0.0550
38661W        W47461  24.407   1.779  17.126 -0.0793  0.0981  0.2152
38662W        W47462  21.271   5.265  28.425 -0.0310  0.2781  0.1820
38663W        W47463  20.029   2.543  32.109 -0.0722  0.0467  0.0487
38664W        W47464  12.338   6.346  15.262  0.1109  0.4287  0.0191
38665W        W47465  11.026   0.546  10.542 -0.1440 -0.2646  0.1055
38666W        W47466  19.296   1.371   6.585  0.1195 -0.2123  0.0885
38667W        W47467  23.977   7.584   1.380  0.1981 -0.0693  0.1028
38668W        W47468   9.186   6.496  10.590 -0.5431 -0.1066 -0.0333
38669W        W47469  18.138   6.846  17.426 -0.1995 -0.0448 -0.0657
38670W        W47470  21.071   0.432   8.997 -0.4014 -0.1829 -0.2370
38671W        W47471  14.600   7.212  22.816  0.1417 -0.1227  0.1919
38672W        W47472  20.659   1.295  29.857  0.1443  0.1041 -0.0085
38673W        W47473  20.035   6.279   3.786  0.0815 -0.0180  0.2568
38674W        W47474   4.729   6.759  29.488 -0.0162 -0.0313 -0.0223
38675W        W47475   7.241   3.459  24.568  0.1132  0.0522  0.2999
38676W        W47476   8.231   6.925   8.638  0.1044 -0.1610  0.1167
38677W        W47477   0.828   5.755  19.953 -0.0771 -0.2891 -0.0498
38678W        W47478  24.303   1.500  15.925  0.0273  0.3447  0.1452
38679W        W47479   6.521   7.637   6.770  0.0269 -0.3473 -0.0010
38680W        W47480   5.399   2.000  31.898  0.0248 -0.0705 -0.0898
38681W        W47481  14.901   7.602  31.619  0.0723 -0.2425  0.0459
38682W        W47482  22.952   1.771  21.160 -0.0019 -0.0424 -0.1239
38683W        W47483   5.692   0.475  26.045 -0.0146 -0.1421  0.3178
38684W        W47484  12.286   5.631  31.089  0.2883  0.2245  0.2814
38685W        W47485   3.152   3.219  10.498  0.0639 -0.0375 -0.0932
38686W        W47486  13.884   2.590   3.386  0.2313  0.0404  0.0070
38687W        W47487  20.471   2.553  19.931  0.1112 -0.1352  0.1304
38688W        W47488   1.623   5.716  12.498 -0.0655  0.1149 -0.0873
38689W        W47489  11.666   2.981   7.342  0.3174  0.0474  0.2430
38690W        W47490   9.965   3.274  14.110 -0.1206 -0.3385  0.2524
38691W        W47491   8.237   3.902  31.900 -0.0497 -0.2259  0.0815
38692W        W47492   3.938   3.256  11.294  0.1860  0.1013 -0.0836
38693W        W47493   8.257   2.940   5.322 -0.3114 -0.0219  0.2730
38694W        W47494  17.702   7.295  25.422 -0.3588  0.1182 -0.0223
38695W        W47495   5.067   6.369   3.174  0.0547 -0.2021 -0.2715
38696W        W47496  21.565   1.800   6.460  0.4007  0.2912 -0.3044
38697W        W47497   2.137   0.106  26.509  0.0442  0.4059  0.4856
38698W        W47498  22.649   4.374  15.554  0.1418 -0.0197  0.1431
38699W        W47499   9.257   6.801  10.118 -0.0745 -0.2771 -0.0213
38700W        W47500  15.881   1.392   5.430 -0.0221 -0.0948 -0.1669
38701W        W47501   6.926   3.117   6.108 -0.1842 -0.0280  0.0047
38702W        W47502  23.198   6.951  16.173 -0.0294 -0.0253  0.1747
38703W        W47503  14.013   0.020  20.305  0.0358  0.2371  0.2496
38704W        W47504  14.186   5.166   2.677 -0.0651 -0.2278 -0.0606
38705W        W47505  15.877   0.820  22.873  0.0247 -0.0139  0.0120
38706W        W47506  23.105   7.418   5.518  0.2357  0.2412 -0.3135
38707W        W47507   5.450   7.107   5.417 -0.2932 -0.2218  0.1170
38708W        W47508   4.848   3.768   4.608 -0.0098  0.0643  0.1497
38709W        W47509  19.022   2.530  15.632 -0.1776  0.1183 -0.1109
38710W        W47510   4.357   6.097  32.676  0.3388  0.2035  0.0580
38711W        W47511  11.193   6.623   1.881  0.0385  0.1481  0.0062
38712W        W47512  13.240   0.466  11.727  0.2710  0.2000 -0.0323
38713W        W47513   6.181   2.737   6.520  0.0909 -0.2352  0.0602
38714W        W47514   2.781   7.516   9.018 -0.1320 -0.0826  0.3962
38715W        W47515  19.990   5.119   5.274  0.0115  0.0708  0.0989
38716W        W47516  24.882   0.176   6.453  0.1143  0.1665 -0.1789
38717W        W47517   6.389   6.800  13.951 -0.2405  0.0965 -0.2279
38718W        W47518  18.383   1.146  28.918  0.0120 -0.0575  0.1803
38719W        W47519   9.713   7.393  16.346 -0.1258 -0.0146  0.0359
38720W        W47520  18.192   7.437   9.197 -0.1637  0.0159  0.2183
38721W        W47521  24.199   2.646  29.461  0.1906  0.1338  0.0803
38722W        W47522  22.376   3.761  19.136  0.0962  0.1825 -0.3028
38723W        W47523  10.329   0.506  27.626 -0.0828 -0.0421  0.0654
38724W        W47524   0.625   0.981  25.697 -0.1324 -0.2089 -0.0342
38725W        W47525  12.436   5.037  29.464  0.2114  0.1446 -0.0881
38726W        W47526  18.642   0.171   4.046 -0.0464 -0.0176  0.0570
38727W        W47527  10.694   7.174  18.282 -0.0027  0.1601  0.1918
38728W        W47528  16.605   2.120  10.195 -0.3274  0.1730  0.1228
38729W        W47529   3.202   1.321  12.680 -0.2160  0.0881 -0.0795
38730W        W47530   5.173   3.550   8.520 -0.3075 -0.2028  0.0474
38731W        W47531  16.551   6.615   4.902 -0.3975 -0.0034  0.2927
38732W        W47532  16.488   0.574  28.626 -0.2070 -0.1568 -0.0735
38733W        W47533   9.123   3.455   9.349  0.0166  0.3771  0.0089
38734W        W47534  19.539   3.652   4.353  0.2807 -0.1989  0.1049
38735W        W47535   6.442   6.237  13.726  0.1152  0.1292  0.2596
38736W        W47536   6.476   2.179   5.943 -0.0417 -0.2955 -0.0115
38737W        W47537   3.257   7.470   8.792 -0.0711  0.2285  0.1740
38738W        W47538  11.034   7.022  17.107  0.1235 -0.2667 -0.1458
38739W        W47539  24.713   0.272  24.246 -0.1543 -0.0295  0.2886
38740W        W47540   7.810   5.855  31.432 -0.1249 -0.1154 -0.2067
38741W        W47541   1.541   2.222   7.643  0.0115 -0.0893 -0.2202
38742W        W47542  14.926   3.647  32.044 -0.0953  0.3434 -0.0585
38743W        W47543   9.677   1.135   4.238  0.1545 -0.0719  0.0588
38744W        W47544  19.893   6.651   9.568 -0.0956  0.0423  0.1831
38745W        W47545   5.892   4.137  10.011 -0.2047  0.1582 -0.2771
38746W        W47546  24.521   1.449  20.403 -0.2814 -0.0770  0.0209
38747W        W47547  12.395   4.822  22.364 -0.1613 -0.0381  0.1105
38748W        W47548   1.963   3.113   0.038 -0.1341 -0.0425  0.1949
38749W        W47549  21.999   4.421  32.101 -0.0389 -0.1045  0.1950
38750W        W47550   0.580   2.920   9.007  0.4115 -0.1821  0.0725
38751W        W47551   4.123   0.454   7.003 -0.0314  0.0136 -0.1631
38752W        W47552   9.847   4.174   0.335 -0.3798 -0.1029  0.2776
38753W        W47553  11.150   3.192   9.814  0.0853  0.0031  0.1657
38754W        W47554  19.481   1.065   1.603 -0.0974 -0.0517  0.1214
38755W        W47555  10.124   2.172  14.720  0.0389  0.2460  0.0361
38756W        W47556   6.968   6.892  16.125 -0.2379  0.0313  0.1553
38757W        W47557  17.364   4.286  20.048 -0.0361  0.0153  0.0024
38758W        W47558   6.031   7.551   3.385 -0.0776 -0.4178  0.1706
38759W        W47559   0.569   3.384  20.009 -0.2202  0.1666  0.0460
38760W        W47560   6.424   0.796  14.305 -0.0557 -0.1249  0.3879
38761W        W47561   7.442   7.723  30.477  0.0294 -0.0091  0.1018
38762W        W47562   9.340   7.353   8.762  0.0816  0.2357 -0.0459
38763W        W47563  13.269   2.387  12.589  0.3626  0.1687  0.0499
38764W        W47564   6.746   2.436  23.537  0.0052  0.5013  0.0388
38765W        W47565   6.875   2.547  25.783  0.0431 -0.1115  0.0449
38766W        W47566   0.881   2.607   2.118 -0.0253  0.1892 -0.0379
38767W        W47567  18.065   0.370  24.163  0.0102 -0.1083  0.0533
38768W        W47568  16.678   0.241   3.433  0.1978 -0.1403 -0.2424
38769W        W47569  23.672   2.264   9.238 -0.0522 -0.0620 -0.0223
38770W        W47570   4.279   2.843   4.649  0.0845 -0.1005 -0.0983
38771W        W47571  23.423   0.228   5.526  0.0805  0.0674 -0.1740
38772W        W47572   6.193   4.461   3.634 -0.0691  0.0038  0.0244
38773W        W47573  23.522   3.209   6.341  0.2179  0.1290 -0.0900
38774W        W47574  15.232   6.066   2.759 -0.0485  0.2784 -0.1277
38775W        W47575   9.321   4.743  26.247  0.1212 -0.1558 -0.1794
38776W        W47576   8.338   2.791   3.170 -0.3641  0.1696 -0.0269
38777W        W47577   5.120   7.075  29.133 -0.2711 -0.2297  0.1764
38778W        W47578   5.074   7.287   2.744  0.3833 -0.2035  0.1062
38779W        W47579  12.688   6.102   9.177  0.0710  0.0037 -0.1477
38780W        W47580  15.573   4.186   4.356 -0.0047  0.1116 -0.1861
38781W        W47581  16.844   4.457  18.865  0.2211  0.3674 -0.0850
38782W        W47582   8.779   0.046   3.452  0.1202 -0.4519  0.2039
38783W        W47583  15.480   1.073  11.281  0.0096 -0.4240 -0.2443
38784W        W47584   4.291   4.195  30.641 -0.2147 -0.1253  0.3609
38785W        W47585   3.270   6.091   5.579  0.0538 -0.0267  0.2480
38786W        W47586  17.380   6.323   7.644  0.0640  0.3685  0.0583
38787W        W47587   1.703   4.262  20.013 -0.0018  0.0803  0.3758
38788W        W47588   0.909   0.345  31.142  0.2082  0.0461  0.0892
38789W        W47589  15.752   6.873   2.487 -0.3382  0.0051 -0.1642
38790W        W47590   9.456   5.580  30.537 -0.0837  0.1956  0.2232
38791W        W47591   0.119   6.227   3.961 -0.0880  0.3205  0.0238
38792W        W47592  24.782   1.685   0.347 -0.1297  0.3912 -0.0978
38793W        W47593  14.683   1.705   3.631 -0.1371  0.1174  0.1300
38794W        W47594   7.198   3.699   6.799 -0.0733  0.3283  0.0465
38795W        W47595  14.432   6.716   2.121 -0.1972  0.0916  0.2114
38796W        W47596  20.745   4.111  31.461  0.2268  0.0722  0.0649
38797W        W47597  12.464   1.591  32.066 -0.0738 -0.3944  0.2843
38798W        W47598  23.206   2.930   2.929 -0.2673 -0.3962  0.2244
38799W        W47599   7.776   7.757  28.774  0.1972 -0.2161  0.1193
38800W        W47600  17.898   7.072   9.489  0.3438 -0.1740  0.2071
38801W        W47601  18.757   4.300  31.823 -0.1661 -0.1183  0.5627
38802W        W47602  21.260   4.508  27.625 -0.2583  0.1568  0.0263
38803W        W47603   6.165   4.762  22.088  0.4092 -0.0547  0.2376
38804W        W47604  11.201   0.733  14.527  0.0533 -0.0213  0.2592
38805W        W47605   9.723   2.136   9.989 -0.0814  0.0692  0.1436
38806W        W47606  18.507   6.727  26.950  0.0626  0.1804  0.0210
38807W        W47607  12.767   2.874   2.710 -0.0317 -0.0560 -0.2350
38808W        W47608  24.026   7.471   4.495  0.3802 -0.0665  0.0415
38809W        W47609   6.272   4.189   8.582 -0.4557  0.1550  0.1603
38810W        W47610  15.788   0.864  27.320 -0.0979  0.2672 -0.2143
38811W        W47611  11.581   6.272  26.292 -0.0010  0.0379  0.1305
38812W        W47612  15.894   6.247  23.152 -0.2420 -0.1113 -0.6489
38813W        W47613  12.324   3.663  31.309 -0.1005  0.3616  0.1294
38814W        W47614  24.406   7.137  10.351  0.1047 -0.1639  0.0609
38815W        W47615   3.141   3.617  31.946 -0.1607  0.1431 -0.2316
38816W        W47616  15.671   1.877  10.509  0.1719 -0.0369 -0.3612
38817W        W47617  18.994   2.852  30.552  0.1645 -0.1420 -0.1073
38818W        W47618   4.744   5.449  31.839 -0.3502  0.3488  0.0897
38819W        W47619  11.173   7.368   1.382 -0.0571 -0.0199  0.1691
38820W        W47620  14.657   6.956  28.363  0.0396  0.0779 -0.0935
38821W        W47621  11.828   2.884  24.705 -0.0858 -0.1151  0.6012
38822W        W47622   3.558   5.766   7.038  0.2275 -0.0008 -0.4606
38823W        W47623   6.932   1.857  23.610 -0.3213  0.1185 -0.2838
38824W        W47624  19.464   0.205   9.985  0.0246 -0.0332 -0.1048
38825W        W47625  21.038   6.639  25.644 -0.1959  0.0338  0.2494
38826W        W47626  17.754   2.710  22.726 -0.2265 -0.0303  0.2539
38827W        W47627   2.550   4.413   5.878  0.0914 -0.0995 -0.2634
38828W        W47628   5.381   1.637   2.566  0.0135  0.1791 -0.2964
38829W        W47629  22.394   2.391  29.894  0.0936  0.1128 -0.0200
38830W        W47630   1.169   2.550  20.123 -0.3597  0.0189  0.0555
38831W        W47631   9.578   7.614   7.136  0.1004  0.3005  0.1427
38832W        W47632   8.390   7.026  12.272  0.3549  0.0680 -0.2388
38833W        W47633   0.748   5.843   9.807  0.1112  0.0547  0.3290
38834W        W47634  18.951   7.424  22.721 -0.1275 -0.0856  0.1566
38835W        W47635   7.421   5.462  13.590  0.0818 -0.0467  0.2384
38836W        W47636  22.567   2.707   6.634 -0.1018 -0.2825 -0.0066
38837W        W47637   9.141   6.091  13.697 -0.4147  0.1012  0.0868
38838W        W47638   3.649   7.414   7.415 -0.1894 -0.0445  0.1901
38839W        W47639  24.607   5.890  30.709 -0.0226  0.0813 -0.0622
38840W        W47640   4.800   2.459  12.521  0.0664  0.0094  0.1084
38841W        W47641   8.410   7.543  16.797 -0.0123 -0.0566  0.0290
38842W        W47642   3.594   6.876  26.265 -0.0814 -0.3850  0.1217
38843W        W47643  10.489   3.644  28.294  0.1041 -0.1800  0.2329
38844W        W47644  15.707   1.553  10.923  0.1274  0.1450 -0.1693
38845W        W47645  22.446   6.146   2.656 -0.2031  0.1680  0.2409
38846W        W47646   8.692   5.043   4.402  0.0936  0.2838  0.2093
38847W        W47647  14.526   3.093  10.117 -0.0141  0.1369 -0.2010
38848W        W47648   8.201   3.779   7.690 -0.0263  0.0506 -0.1135
38849W        W47649  23.642   3.011  14.243  0.1818  0.2504  0.1565
38850W        W47650   6.001   5.843  11.625 -0.4069  0.0480  0.2771
38851W        W47651   8.764   1.142  13.748  0.1204 -0.0709 -0.0124
38852W        W47652  24.054   5.674  17.900  0.2151  0.1636  0.2658
38853W        W47653   4.329   2.532   1.342 -0.1792 -0.3882  0.4401
38854W        W47654  17.522   5.268  15.350 -0.3337 -0.1511  0.1995
38855W        W47655  22.541   0.057   6.596 -0.1711 -0.1029 -0.2419
38856W        W47656   0.052   7.413  17.286 -0.0683 -0.0959  0.0749
38857W        W47657   2.880   1.999  22.769  0.6179 -0.2841 -0.4019
38858W        W47658  18.411   2.314   1.791 -0.2665  0.2178 -0.0911
38859W        W47659  22.517   2.959  25.224 -0.1025 -0.1552  0.0276
38860W        W47660  23.124   7.508  18.112 -0.1279  0.0570 -0.0516
38861W        W47661  21.147   4.184   1.296  0.1313 -0.2745 -0.0889
38862W        W47662   9.658   2.622  25.845 -0.3000 -0.1459 -0.2732
38863W        W47663  17.097   7.084   9.181  0.0123 -0.0489  0.0112
38864W        W47664  14.739   1.807  10.510  0.0386  0.2017 -0.1665
38865W        W47665   1.975   4.468  30.513  0.3478 -0.3208  0.0668
38866W        W47666   6.666   6.905   4.563 -0.1274 -0.0806  0.0061
38867W        W47667  23.132   5.129  19.694 -0.1312  0.0956 -0.1908
38868W        W47668  22.205   0.306  25.508 -0.0719 -0.0654 -0.1788
38869W        W47669   4.681   4.363   4.114  0.0591  0.2073  0.0538
38870W        W47670  13.184   1.781  29.105 -0.1365  0.0258  0.0989
38871W        W47671  11.513   3.454   4.415  0.1280  0.1498 -0.0659
38872W        W47672  21.164   3.405   4.986 -0.0196 -0.3413  0.1506
38873W        W47673   9.596   6.293  13.487  0.0611  0.2231  0.1907
38874W        W47674  18.658   5.875   7.919  0.2010  0.0607  0.0563
38875W        W47675  17.198   1.755  18.387  0.1287  0.0088  0.0860
38876W        W47676   0.382   3.082   8.446 -0.1840  0.4741 -0.0608
38877W        W47677   2.077   0.630  20.285  0.0264 -0.1703 -0.1785
38878W        W47678   7.765   6.500  17.209  0.1536 -0.0335 -0.0971
38879W        W47679  14.082   7.764  11.387  0.0576 -0.2914 -0.4123
38880W        W47680   8.683   6.633  30.398  0.1085 -0.3266  0.1522
38881W        W47681  16.934   3.807  31.959  0.2838 -0.1958 -0.0468
38882W        W47682  22.629   7.227   7.449 -0.1108  0.2125 -0.0561
38883W        W47683   1.215   0.020  11.984 -0.1854  0.1955 -0.0295
38884W        W47684   7.191   1.384  13.650 -0.1592  0.1201 -0.0338
38885W        W47685  11.287   1.471  24.014  0.0307 -0.1049  0.1204
38886W        W47686  14.000   3.278   7.257 -0.3036 -0.0572 -0.1855
38887W        W47687  23.907   7.636   6.631 -0.1779 -0.2099 -0.1249
38888W        W47688   5.817   6.637  26.467  0.0786  0.0939 -0.2628
38889W        W47689   4.543   5.593  25.641 -0.0598 -0.0295  0.0139
38890W        W47690  13.947   3.341   4.939 -0.0219  0.1130 -0.1622
38891W        W47691  22.854   3.934   8.248  0.1419  0.2401 -0.0819
38892W        W47692  21.810   7.495  25.018  0.1856 -0.0277 -0.0505
38893W        W47693  10.046   7.120   7.727 -0.0751 -0.2283  0.0679
38894W        W47694   1.686   7.230  25.044 -0.1467 -0.0766 -0.1468
38895W        W47695  23.715   7.556   0.205 -0.0639  0.1433 -0.0828
38896W        W47696   2.747   2.816  31.675 -0.0200 -0.3588  0.0547
38897W        W47697   9.518   2.564   1.258 -0.0943 -0.2083  0.1196
38898W        W47698  13.346   3.111  30.217  0.0619  0.1397 -0.1299
38899W        W47699  25.008   6.477   8.194 -0.2009 -0.2448  0.1523
38900W        W47700  17.781   0.811  10.973 -0.1164  0.0856 -0.1893
38901W        W47701   9.076   5.861   0.634 -0.0226 -0.2936 -0.2103
38902W        W47702  18.939   1.372   2.462 -0.1000 -0.0413  0.0085
38903W        W47703   2.040   0.630  30.922  0.1355 -0.0460  0.0770
38904W        W47704  20.775   5.579  19.431  0.2120  0.0809 -0.4545
38905W        W47705   1.484   2.634   4.587  0.1590  0.1139 -0.1584
38906W        W47706  19.074   5.331  25.865 -0.2930 -0.0204  0.1953
38907W        W47707  20.375   1.910   9.779 -0.1783  0.0020 -0.2075
38908W        W47708  12.042   2.937  27.474 -0.1460  0.1099  0.1189
38909W        W47709  24.872   6.665  27.359  0.0258 -0.1787  0.0103
38910W        W47710   0.177   2.779   8.030  0.0626 -0.3901  0.0435
38911W        W47711  11.354   6.428   9.731 -0.0167 -0.1132 -0.1327
38912W        W47712  18.319   4.473  21.990  0.3219  0.0886 -0.0025
38913W        W47713   4.157   5.474  25.981  0.0188  0.0820  0.0918
38914W        W47714  15.409   3.135  13.081 -0.1109 -0.0898 -0.3138
38915W        W47715  16.103   7.070  20.533  0.4005  0.0528 -0.1261
38916W        W47716  23.800   2.559  26.122 -0.1645 -0.2279  0.2216
38917W        W47717  19.650   2.257   0.609  0.0226 -0.1836 -0.2310
38918W        W47718   4.749   0.249  22.311 -0.1594  0.0009 -0.2112
38919W        W47719   4.924   1.395   2.530 -0.0277  0.2319  0.2720
38920W        W47720  13.903   6.949  10.741  0.0531  0.0427 -0.0469
38921W        W47721   7.016   0.904   8.707  0.1993  0.1708 -0.4286
38922W        W47722   5.819   0.010  12.977 -0.1457  0.2217 -0.1043
38923W        W47723  13.260   2.776  24.192 -0.1393  0.0825 -0.0778
38924W        W47724  19.290   4.897  25.112 -0.0217 -0.1340 -0.1473
38925W        W47725   4.964   1.648   3.506  0.1271 -0.2957 -0.0399
38926W        W47726   2.439   4.081  31.493 -0.1782  0.0540  0.2300
38927W        W47727  18.992   4.315  30.163 -0.1919 -0.1185  0.1943
38928W        W47728  12.466   6.251  10.491 -0.1196 -0.0836  0.0062
38929W        W47729  14.711   5.584  32.068  0.2568  0.2482  0.2768
38930W        W47730  15.084   7.307   2.870  0.2331 -0.2799  0.1868
38931W        W47731  18.698   5.433  29.668  0.3333  0.1608 -0.3134
38932W        W47732  10.994   0.578  14.065 -0.4441  0.0516  0.0686
38933W        W47733  16.439   0.639   5.042 -0.0312  0.1864  0.2078
38934W        W47734  15.231   2.627  13.092  0.0946  0.0074 -0.1181
38935W        W47735   4.512   0.329  13.279  0.1192 -0.0904 -0.0763
38936W        W47736  12.297   1.928  21.390  0.0893  0.1092 -0.0776
38937W        W47737   3.220   5.650  28.335 -0.2267 -0.1141 -0.1692
38938W        W47738  21.696   2.124  15.731  0.0985  0.1765 -0.2621
38939W        W47739   7.746   0.496  31.516  0.1395 -0.0248 -0.1431
38940W        W47740   7.204   2.780  29.486 -0.0216 -0.3577 -0.0933
38941W        W47741   1.266   1.188  22.838 -0.2258 -0.0627  0.0616
38942W        W47742  19.610   4.352  25.173 -0.3094  0.2896  0.2288
38943W        W47743  21.212   5.400  29.136  0.2640  0.0331 -0.3301
38944W        W47744  21.762   3.945  32.091  0.3104  0.0840  0.1226
38945W        W47745  14.319   2.986   8.753  0.1574  0.2066 -0.0941
38946W        W47746  10.750   1.716  30.024 -0.2831 -0.0936 -0.2114
38947W        W47747  15.303   3.901  29.683 -0.1514 -0.3384 -0.2056
38948W        W47748  13.198   4.484  25.028 -0.1426 -0.4159 -0.0668
38949W        W47749   1.765   6.020   1.275  0.2088  0.3562 -0.1024
38950W        W47750  11.273   0.195  12.291 -0.0140 -0.0691 -0.0207
38951W        W47751  10.679   0.045   7.983  0.4857  0.0266  0.1485
38952W        W47752  24.645   2.158  30.292 -0.0064  0.0506 -0.0049
38953W        W47753   9.692   4.746   9.837  0.2362 -0.0411 -0.2431
38954W        W47754   9.849   3.156  23.440  0.1485 -0.3807 -0.1198
38955W        W47755  13.919   5.780  25.295  0.2745  0.1338  0.0187
38956W        W47756   0.977   0.184   4.037  0.1271 -0.2659 -0.2622
38957W        W47757  14.165   3.943  31.856  0.1398  0.3407  0.0789
38958W        W47758  17.210   0.638   3.853  0.1408  0.2965 -0.2759
38959W        W47759  22.639   0.740   8.288 -0.2368 -0.1236 -0.0894
38960W        W47760  17.952   5.062  16.809 -0.4300  0.0455 -0.0053
38961W        W47761  17.130   4.588  31.008 -0.0331 -0.0986 -0.2427
38962W        W47762  12.638   3.875  30.432 -0.1064  0.3650  0.1070
38963W        W47763  11.293   7.779  13.391 -0.0413  0.0293  0.0766
38964W        W47764   7.686   6.160  26.438  0.0397 -0.1724  0.1809
38965W        W47765  10.244   5.246  23.668 -0.1310 -0.2842  0.1300
38966W        W47766  13.069   1.361  25.956 -0.0158  0.1480  0.1188
38967W        W47767  22.862   4.888  18.756  0.2326 -0.2797  0.0379
38968W        W47768  10.179   1.500   5.919  0.1329 -0.0131 -0.2215
38969W        W47769  22.017   3.773  27.720  0.0822 -0.0334  0.2031
38970W        W47770  24.074   2.795  25.276  0.3062 -0.2594  0.1297
38971W        W47771  24.030   6.860  19.746  0.1676 -0.1323  0.0360
38972W        W47772  18.596   4.627   3.026  0.1641 -0.0989  0.1011
38973W        W47773  21.189   3.661   5.450 -0.1235  0.2403  0.0060
38974W        W47774  21.314   1.744  29.081  0.0966  0.1927 -0.1750
38975W        W47775  15.471   5.546  20.356 -0.0865 -0.1305  0.4648
38976W        W47776  16.724   2.915  10.133 -0.0417  0.1379 -0.0494
38977W        W47777   9.326   2.407  30.085  0.0618  0.1775  0.0386
38978W        W47778   5.764   0.892  23.210  0.2482 -0.1514 -0.0936
38979W        W47779  14.791   2.834   5.106  0.2536  0.1684 -0.1248
38980W        W47780   3.250   3.123  20.304  0.1686  0.2784  0.1832
38981W        W47781   5.475   0.900  12.707  0.1175  0.1384  0.2028
38982W        W47782  14.238   0.572  27.481  0.0367  0.1333 -0.0863
38983W        W47783   2.523   4.056   2.326 -0.2555  0.1579 -0.0681
38984W        W47784   3.638   7.477  13.196 -0.1088 -0.1141  0.0510
38985W        W47785  11.791   7.628  15.159 -0.0275 -0.0546  0.2064
38986W        W47786  17.227   6.368  18.659  0.0156 -0.2164  0.1667
38987W        W47787   8.510   1.884   2.833  0.0521  0.0229  0.4534
38988W        W47788  13.636   3.553  10.953  0.2148 -0.0693  0.2445
38989W        W47789   8.726   5.783  30.329  0.1097  0.0511 -0.2485
38990W        W47790  11.696   4.248  17.023 -0.0522  0.0712 -0.1177
38991W        W47791   1.614   7.242  20.604  0.1694 -0.2598  0.1249
38992W        W47792   4.397   7.759  15.924  0.2603  0.2276 -0.1211
38993W        W47793  22.244   3.019  18.388 -0.0423  0.2029 -0.0765
38994W        W47794  16.203   0.324   9.995 -0.0973 -0.0323  0.1169
38995W        W47795  12.637   1.716  28.880  0.0322 -0.1937 -0.2090
38996W        W47796   1.783   7.278  26.070 -0.3961  0.2485  0.3276
38997W        W47797   8.100   6.889  23.932  0.0017  0.1429 -0.3782
38998W        W47798  19.311   4.270  16.380  0.2493  0.2627 -0.1289
38999W        W47799  18.371   4.010  17.981  0.0187 -0.1686  0.0593
39000W        W47800  20.688   3.710  19.017  0.0592 -0.0667  0.2245
39001W        W47801  24.447   4.195   1.915 -0.1513  0.0246 -0.0306
39002W        W47802  22.086   1.433  26.123  0.1740 -0.0645  0.1320
39003W        W47803   2.892   5.338   8.381 -0.1512  0.4362  0.0258
39004W        W47804   3.948   4.562   9.181  0.0962  0.2635 -0.0358
39005W        W47805   7.316   2.076  14.493 -0.3878  0.1318 -0.0963
39006W        W47806  23.678   0.257  27.716 -0.1247 -0.1235 -0.1064
39007W        W47807   3.370   5.019  31.523 -0.1892  0.3002 -0.0201
39008W        W47808  21.395   6.965  29.348 -0.1235  0.0036 -0.1233
39009W        W47809   9.132   7.603   1.640  0.0249 -0.0024 -0.1061
39010W        W47810  19.300   3.267  28.312  0.0333 -0.0108  0.0539
39011W        W47811  12.174   6.124  30.939 -0.2245  0.2005  0.1221
39012W        W47812  25.032   1.558   8.484 -0.4370 -0.3435 -0.0270
39013W        W47813  14.796   7.541   9.488 -0.2281  0.1658 -0.1191
39014W        W47814  18.931   3.793  30.996  0.1534 -0.0629 -0.1318
39015W        W47815  23.290   0.824  23.010 -0.1831 -0.0344 -0.0771
39016W        W47816   6.593   3.597  13.052  0.0139  0.0762  0.0650
39017W        W47817  21.779   7.276  20.611 -0.3192 -0.1095  0.1012
39018W        W47818   3.229   3.477   2.590 -0.6948  0.1962  0.2534
39019W        W47819  10.048   2.755  22.812  0.1339  0.1556 -0.1132
39020W        W47820  18.429   4.373   7.557 -0.1468  0.2822 -0.3337
39021W        W47821  16.124   5.899   1.187 -0.2702  0.1156 -0.2635
39022W        W47822   3.502   6.958   5.625 -0.4504  0.1554  0.1102
39023W        W47823   9.689   1.569  11.978 -0.0293 -0.2206 -0.0879
39024W        W47824   5.116   4.196   4.109  0.0722  0.2327 -0.0236
39025W        W47825  12.467   1.604   1.759  0.0123  0.1116 -0.1293
39026W        W47826  14.013   6.738   5.029  0.0771  0.0258 -0.2197
39027W        W47827  23.486   3.186  25.571  0.0060 -0.3265  0.1634
39028W        W47828   5.181   0.914   9.446  0.1168 -0.3234 -0.0135
39029W        W47829  16.880   2.160  20.801 -0.3381 -0.4149 -0.4032
39030W        W47830  19.493   5.404  14.755 -0.0319  0.2002  0.0338
39031W        W47831  16.246   2.055  25.464 -0.1764  0.0090  0.0209
39032W        W47832   7.505   5.627  31.887 -0.2134 -0.1508  0.0194
39033W        W47833   7.420   6.612  18.173  0.4008  0.2361 -0.1787
39034W        W47834   8.784   6.130  10.655  0.2988  0.1951 -0.2585
39035W        W47835   6.517   7.387  17.782 -0.1458  0.0405 -0.0118
39036W        W47836  12.949   2.402  10.288  0.1418  0.0433  0.0221
39037W        W47837  17.392   3.739  30.184 -0.0222  0.0120  0.0803
39038W        W47838   5.476   0.157  31.135  0.2236 -0.1666 -0.0718
39039W        W47839   8.834   5.506   5.634 -0.0660 -0.1746  0.1858
39040W        W47840  10.351   5.288   4.786 -0.0021 -0.2593 -0.2822
39041W        W47841  15.466   1.754  18.962 -0.0728  0.1518  0.1737
39042W        W47842  18.318   2.435  15.690 -0.0025  0.4029 -0.3446
39043W        W47843  19.307   6.215  20.283 -0.1674 -0.1337 -0.0146
39044W        W47844  24.764   1.340   8.024 -0.0868 -0.0705  0.0877
39045W        W47845  13.106   2.965  26.659 -0.1907  0.0376  0.0886
39046W        W47846   6.867   4.793  11.103 -0.0150 -0.0097  0.0095
39047W        W47847   4.659   1.974  25.649 -0.3514  0.2252  0.0730
39048W        W47848  17.935   6.221  30.006 -0.2164  0.3581 -0.0079
39049W        W47849  19.423   6.067   9.364  0.0864 -0.0029 -0.1833
39050W        W47850  22.910   1.314   2.051  0.0292 -0.2338  0.0890
39051W        W47851  12.660   4.110   4.330  0.1587 -0.1299 -0.1236
39052W        W47852   8.003   1.196   0.145 -0.2451  0.1003  0.1855
39053W        W47853   4.515   3.710  32.095  0.0047 -0.0413 -0.0050
39054W        W47854  16.826   5.133  31.481 -0.0231 -0.0610 -0.1137
39055W        W47855   6.668   3.669   5.332 -0.0805 -0.1538 -0.0356
39056W        W47856  16.194   1.911   6.289  0.0381 -0.0417  0.0645
39057W        W47857   0.636   4.997  21.201 -0.1040  0.1083 -0.1014
39058W        W47858  13.995   1.793  11.862 -0.0791 -0.0030  0.2317
39059W        W47859   0.778   6.222   6.730  0.0985  0.0134 -0.1602
39060W        W47860  24.779   0.351   9.744 -0.0984 -0.3430  0.2183
39061W        W47861  13.537   3.654   4.684  0.0738  0.0913 -0.3414
39062W        W47862  17.079   0.836  29.282  0.0480  0.0601 -0.1191
39063W        W47863   6.890   5.665  26.599 -0.1802 -0.1770  0.0291
39064W        W47864  20.589   4.002  23.156  0.0270 -0.0898 -0.0696
39065W        W47865  20.869   2.827  31.492 -0.4729  0.0316  0.0835
39066W        W47866   9.667   1.329  31.130  0.0973 -0.0270  0.0513
39067W        W47867  10.841   4.456   3.315  0.0437  0.0166  0.0673
39068W        W47868  23.868   4.723  26.035 -0.0193  0.2999 -0.0949
39069W        W47869  25.005   5.521  32.475  0.1319  0.4577  0.3463
39070W        W47870   5.146   7.022  23.682 -0.0208 -0.0524  0.0619
39071W        W47871   7.733   5.098   7.310  0.0362 -0.2401 -0.1766
39072W        W47872  15.469   4.864   5.722  0.1865 -0.0802  0.0972
39073W        W47873   7.738   1.277  12.350 -0.1532  0.1195 -0.1314
39074W        W47874   7.231   0.334   9.095  0.1256  0.1440 -0.2176
39075W        W47875  19.359   5.549  31.976 -0.2126  0.1752 -0.0065
39076W        W47876  11.795   2.946  13.802 -0.0698  0.0452  0.2221
39077W        W47877  21.452   0.782   2.103 -0.0699 -0.1525 -0.0986
39078W        W47878   6.403   5.119   4.871  0.1032 -0.0470  0.1563
39079W        W47879   5.074   2.140   3.622  0.3468 -0.1781  0.0097
39080W        W47880  12.398   7.434   8.921  0.0071  0.1061  0.3114
39081W        W47881  18.025   7.164   7.157 -0.3173  0.0084 -0.1259
39082W        W47882   0.035   6.620  28.224  0.2748  0.1293 -0.0950
39083W        W47883   3.309   1.875   0.802  0.1989  0.0804 -0.1807
39084W        W47884  11.151   4.829  21.902 -0.0717  0.2658 -0.0512
39085W        W47885  10.361   4.086  24.565 -0.1047 -0.1273  0.0347
39086W        W47886   8.034   1.227   4.131  0.0669  0.0345 -0.1223
39087W        W47887   0.152   2.163  28.886  0.0641 -0.0209 -0.0601
39088W        W47888  21.843   1.352  30.779 -0.2836 -0.0711 -0.1804
39089W        W47889   8.243   3.772  26.816 -0.1319  0.1201  0.1982
39090W        W47890  19.998   1.270  17.983  0.1018 -0.0541  0.4223
39091W        W47891   3.331   4.722   3.995  0.1506  0.0617 -0.2057
39092W        W47892   5.480   6.049   0.117 -0.2000 -0.0629 -0.0509
39093W        W47893   9.933   4.912  16.935  0.4020 -0.1306 -0.1515
39094W        W47894  24.592   0.309  32.519 -0.0423  0.0981  0.0204
39095W        W47895  16.742   7.568  10.722 -0.3456 -0.1265 -0.0007
39096W        W47896  11.894   3.772  24.340  0.3329  0.3245  0.2880
39097W        W47897  13.541   2.937   4.358 -0.2660  0.1644 -0.1439
39098W        W47898  17.457   6.066   8.625  0.2794  0.0426 -0.3447
39099W        W47899  10.059   7.170  14.236  0.1862 -0.0363  0.1405
39100W        W47900   1.356   6.640  19.957 -0.5285  0.1127  0.2506
39101W        W47901   0.523   7.110   7.932 -0.0768  0.2599 -0.2392
39102W        W47902  19.231   1.816  31.722  0.0557 -0.0990 -0.0387
39103W        W47903   5.576   4.860  31.730 -0.1558 -0.0829 -0.1797
39104W        W47904   6.548   0.438  12.785  0.1662  0.1280 -0.0710
39105W        W47905   5.927   2.654  26.779 -0.3363 -0.0403 -0.0605
39106W        W47906  23.933   0.078  21.891  0.0271 -0.0199  0.1363
39107W        W47907  24.165   5.152  25.677  0.0777 -0.0378 -0.0229
39108W        W47908   5.677   0.153  13.470 -0.1236  0.3566 -0.1536
39109W        W47909  11.511   4.500   5.020 -0.1689 -0.1261  0.0315
39110W        W47910  24.829   5.941  21.885  0.1831  0.2850  0.0925
39111W        W47911  14.776   0.157  27.746 -0.2762  0.3852 -0.1700
39112W        W47912  18.747   7.351   7.660  0.0480  0.2151 -0.1270
39113W        W47913  18.651   0.496  10.146  0.3764 -0.2491 -0.3530
39114W        W47914   6.761   7.502  32.123 -0.0728 -0.0556 -0.2236
39115W        W47915  21.550   5.065   6.619  0.0159  0.1984 -0.0552
39116W        W47916  21.821   2.782   5.311 -0.0757 -0.0096 -0.0819
39117W        W47917   5.750   6.385  10.798  0.2502 -0.2834  0.0241
39118W        W47918   4.896   1.331  28.503  0.2366  0.1938 -0.1324
39119W        W47919   3.025   6.784   2.510 -0.2171  0.1057  0.1091
39120W        W47920  15.930   6.243  22.667  0.3065  0.3025  0.0844
39121W        W47921   4.899   6.413  31.848 -0.0438 -0.0664 -0.0183
39122W        W47922  24.788   7.456  22.980 -0.0422  0.0420  0.0855
39123W        W47923  19.364   0.422  29.277 -0.1650  0.0788 -0.1537
39124W        W47924   3.903   6.992   0.109 -0.0241 -0.1041  0.0774
39125W        W47925  10.232   4.260  11.097 -0.1388  0.0023  0.0910
39126W        W47926  15.962   0.851  23.728 -0.2769  0.2564  0.0600
39127W        W47927  14.999   6.013   6.565  0.0400  0.1318 -0.0566
39128W        W47928  19.205   0.748  20.401  0.0925  0.1335 -0.1188
39129W        W47929   6.187   6.434  31.334  0.1197  0.2564 -0.0551
39130W        W47930   2.839   3.039  23.473 -0.1981 -0.0258  0.0801
39131W        W47931   3.455   6.050  30.139  0.2024 -0.2726 -0.2612
39132W        W47932  18.564   7.800  15.481 -0.1206 -0.1287  0.1766
39133W        W47933  10.736   0.797   9.544  0.1578  0.0654  0.3561
39134W        W47934   3.437   6.625  30.270  0.0633  0.1961  0.1735
39135W        W47935  22.565   2.876   7.258 -0.2422  0.2416  0.1615
39136W        W47936   5.427   3.505  15.132 -0.0024  0.2395  0.0511
39137W        W47937  16.251   5.706   3.873  0.1214  0.0868  0.2277
39138W        W47938  10.490   7.167   2.256 -0.3367 -0.0798  0.1030
39139W        W47939   3.722   5.711  12.960 -0.1200  0.1243  0.1638
39140W        W47940  23.491   1.724  24.556  0.1273 -0.0132  0.1051
39141W        W47941  22.575   6.459   3.161 -0.1389 -0.1462  0.0358
39142W        W47942  17.979   0.046  29.402 -0.1876 -0.0054  0.0664
39143W        W47943  15.590   7.232   0.141  0.0845  0.2675 -0.3126
39144W        W47944  21.163   4.015   7.336  0.2892 -0.1401  0.0004
39145W        W47945  17.135   6.551  25.186 -0.1888  0.0613  0.0655
39146W        W47946   2.195   4.004  10.077 -0.2298  0.1539 -0.2044
39147W        W47947  22.671   6.244  22.840 -0.0768  0.2620  0.1678
39148W        W47948  11.663   6.032   2.326  0.1060  0.0359  0.0572
39149W        W47949   6.974   4.239  16.450  0.2412  0.2274  0.0819
39150W        W47950   3.419   3.957  12.699  0.0337 -0.0063 -0.2187
39151W        W47951  24.180   5.316   5.754 -0.0941 -0.0852  0.2298
39152W        W47952  14.792   1.878   9.326 -0.4439  0.1414  0.0296
39153W        W47953  14.856   7.181   7.597  0.0328  0.0129  0.0359
39154W        W47954   6.182   2.642   7.074 -0.2958 -0.1941  0.0380
39155W        W47955   1.414   2.341   9.709 -0.1772  0.0642  0.2217
39156W        W47956  20.160   2.023   1.385 -0.2867 -0.3734  0.0209
39157W        W47957  10.773   5.206  29.166  0.0312  0.4812 -0.0231
39158W        W47958  12.273   0.453   2.425  0.1706 -0.0212 -0.0917
39159W        W47959   0.453   1.068   2.031 -0.0554 -0.2077  0.2857
39160W        W47960   0.887   0.305  26.229  0.2047 -0.0678  0.1024
39161W        W47961   4.447   0.002  14.659  0.0657  0.1447  0.3944
39162W        W47962  21.360   1.447   7.652 -0.1236 -0.0995  0.1765
39163W        W47963  18.269   6.714   6.429 -0.0017  0.0205  0.0818
39164W        W47964  15.947   0.507  20.178 -0.0062 -0.0870 -0.4431
39165W        W47965  10.761   6.298   1.998  0.1057 -0.1326  0.0379
39166W        W47966   0.852   3.895   9.766  0.0094  0.1269  0.1158
39167W        W47967  24.325   2.066  29.594 -0.0755 -0.3596  0.0774
39168W        W47968  23.872   4.432   9.475  0.0805  0.2686  0.0819
39169W        W47969  13.365   6.191  14.608 -0.1109  0.0173 -0.1125
39170W        W47970   0.985   0.729  22.874  0.2520 -0.0108 -0.1973
39171W        W47971   3.264   0.862  29.933  0.0726  0.0354  0.0570
39172W        W47972  20.878   4.107   5.558  0.0611  0.3298  0.0744
39173W        W47973  18.738   0.560  14.630 -0.1505  0.0547 -0.0712
39174W        W47974   2.847   7.737   0.808 -0.2285  0.0065  0.2608
39175W        W47975  24.802   0.416  23.032 -0.0694  0.1094  0.1912
39176W        W47976  10.010   6.844  18.019 -0.1239 -0.3336 -0.1287
39177W        W47977  20.841   4.629  29.310 -0.1712 -0.0920  0.1292
39178W        W47978  24.188   3.805  26.838  0.2853 -0.1420 -0.1195
39179W        W47979   6.007   1.651  11.062  0.0742  0.0997 -0.0232
39180W        W47980   9.226   2.020   9.615  0.0972  0.1551  0.3860
39181W        W47981  22.611   3.799  18.508 -0.4524  0.0672 -0.0244
39182W        W47982  13.051   2.697  13.463 -0.0027  0.0696 -0.2998
39183W        W47983  18.128   2.905  25.922 -0.1502  0.2094  0.2510
39184W        W47984   9.127   4.694  13.779  0.4887 -0.2095 -0.0009
39185W        W47985   7.607   2.261  12.783 -0.0868  0.1889  0.0195
39186W        W47986   5.417   1.400   7.097  0.2196 -0.1901  0.3452
39187W        W47987  13.425   6.226  14.013  0.0456 -0.1063 -0.0710
39188W        W47988  10.464   1.381   9.444  0.2164 -0.2283  0.0568
39189W        W47989  24.381   2.437   3.449 -0.2087  0.0830 -0.1966
39190W        W47990  22.541   3.158   1.704  0.3769 -0.0709 -0.0293
39191W        W47991   6.741   1.235  25.395 -0.4642  0.0007 -0.0392
39192W        W47992   6.447   7.819  22.143 -0.0460  0.3362  0.1774
39193W        W47993  24.005   6.310   8.160  0.2665  0.1599  0.3580
39194W        W47994  17.178   2.014  27.209  0.1977  0.0912  0.1640
39195W        W47995  23.272   6.439  21.259 -0.2460 -0.1586  0.1901
39196W        W47996   6.661   2.605   6.301  0.2584  0.1246  0.0092
39197W        W47997  10.078   6.841  26.880 -0.2785 -0.3268  0.3102
39198W        W47998   7.960   5.919  18.895 -0.0227  0.1589  0.1458
39199W        W47999   3.348   5.043  21.577 -0.1850 -0.2197  0.0200
39200W        W48000  10.258   4.075  28.516  0.1519 -0.0176  0.1834
39201W        W48001  24.991   2.276  25.559  0.0999  0.0572  0.0645
39202W        W48002  19.906   6.902  27.458  0.0325 -0.0841  0.3799
39203W        W48003  15.579   4.792  24.814 -0.2516  0.1351 -0.4237
39204W        W48004  14.677   6.258  10.239  0.1247 -0.3184 -0.1166
39205W        W48005   9.292   3.828   1.813 -0.0072  0.0821  0.2277
39206W        W48006   4.141   2.119  11.957 -0.0983  0.0139  0.0245
39207W        W48007  16.989   2.903  27.793 -0.2733  0.2211  0.4457
39208W        W48008  19.477   7.309  27.869  0.0184  0.1338 -0.1114
39209W        W48009  18.872   1.263   9.455  0.1403  0.0051 -0.0237
39210W        W48010   5.473   5.139  14.518 -0.0393  0.3893 -0.1505
39211W        W48011  23.756   0.655   3.496 -0.1946 -0.0860 -0.0579
39212W        W48012   4.931   4.584  30.624  0.2254  0.3582 -0.0106
39213W        W48013  17.958   5.867  24.276 -0.2738  0.1087 -0.2671
39214W        W48014  19.187   4.421  19.037 -0.1548  0.1059  0.1145
39215W        W48015   8.484   5.204   7.104  0.0654  0.1718 -0.0565
39216W        W48016   3.327   1.229  31.668  0.1917 -0.1053  0.0060
39217W        W48017   5.118   4.576  27.659  0.4810 -0.2215 -0.1041
39218W        W48018  13.345   3.539  15.456  0.2077  0.4793  0.1131
39219W        W48019  16.681   3.180   3.399 -0.0406 -0.4718 -0.0510
39220W        W48020  13.808   6.009  29.640  0.0238  0.0127 -0.0908
39221W        W48021   6.777   7.344  30.305  0.0209  0.0799 -0.3636
39222W        W48022  12.982   2.128  25.040 -0.0551  0.0692 -0.0370
39223W        W48023  15.196   2.864  32.329  0.0463  0.2536 -0.2713
39224W        W48024  19.583   2.304  22.883 -0.3154 -0.2472  0.0732
39225W        W48025  21.826   2.920  25.872 -0.1369 -0.3579  0.1007
39226W        W48026   5.732   6.006  30.816 -0.2745 -0.0783  0.0239
39227W        W48027  21.926   3.769   1.144  0.3123  0.2678  0.0109
39228W        W48028   9.511   7.153  16.779  0.1567 -0.1536 -0.0691
39229W        W48029  19.432   1.768   8.757 -0.0173 -0.1479  0.3325
39230W        W48030   7.583   6.263   8.964  0.1637 -0.1133 -0.1161
39231W        W48031  11.525   7.254  31.068 -0.1911  0.2445 -0.0114
39232W        W48032  16.875   0.682  32.185  0.2976 -0.0882  0.2091
39233W        W48033  14.053   2.096  22.174 -0.0719  0.1020 -0.3174
39234W        W48034  17.024   7.534   6.443  0.1123  0.1149  0.1203
39235W        W48035   4.364   3.649   3.620 -0.1649 -0.0077 -0.1814
39236W        W48036  18.565   3.527  21.132  0.0807 -0.3174 -0.1264
39237W        W48037  16.163   0.623   6.025  0.2068  0.2079 -0.1054
39238W        W48038   8.499   5.102  25.301  0.1276  0.0966  0.1940
39239W        W48039  20.436   4.832   9.874  0.1273 -0.2833 -0.1227
39240W        W48040  16.175   4.134  21.904  0.0156 -0.0180 -0.0933
39241W        W48041  24.525   5.761  29.983 -0.0451  0.0357  0.1155
39242W        W48042   2.677   2.132  11.558  0.3126 -0.2178  0.2576
39243W        W48043  19.936   3.100   6.093  0.1211 -0.2358 -0.0327
39244W        W48044   8.581   1.628  17.957  0.2002 -0.1814  0.0370
39245W        W48045  14.144   5.343  25.586  0.0813 -0.1861 -0.0651
39246W        W48046   2.438   1.142  28.251  0.0079 -0.0743  0.0095
39247W        W48047   5.141   1.118  14.305  0.1081 -0.0906  0.1992
39248W        W48048  18.995   6.757  27.670 -0.0604 -0.1558  0.0943
39249W        W48049  19.529   5.394   3.444  0.0519 -0.1950 -0.2843
39250W        W48050  16.053   7.660  10.569 -0.1032  0.1148  0.1381
39251W        W48051  20.048   6.796  22.127 -0.3109  0.0068 -0.1724
39252W        W48052  22.415   5.325   9.752 -0.0067 -0.1031 -0.0244
39253W        W48053  19.708   1.192   7.410  0.0166  0.1105 -0.2031
39254W        W48054  16.523   4.041  23.350 -0.2442 -0.0850  0.2105
39255W        W48055  22.392   2.002  23.207 -0.1860 -0.1528 -0.2403
39256W        W48056  20.515   3.334   2.110  0.1361 -0.1140 -0.0962
39257W        W48057   2.576   0.144   7.050  0.2406 -0.2321  0.1529
39258W        W48058  15.998   6.551   2.830  0.1270 -0.2914 -0.0848
39259W        W48059  24.427   5.316  18.124 -0.0738 -0.3958  0.1894
39260W        W48060  10.153   6.267  24.381  0.0059 -0.2148  0.1591
39261W        W48061   5.922   5.634  25.808  0.0651 -0.0417 -0.1586
39262W        W48062  18.362   6.603  21.896 -0.0285  0.3458 -0.2787
39263W        W48063   4.823   3.679  25.063 -0.2434 -0.0284  0.2685
39264W        W48064   2.172   5.351  29.921  0.0447 -0.0083  0.3809
39265W        W48065   4.687   7.634  26.316 -0.1364 -0.2328  0.0698
39266W        W48066  24.695   2.795  18.652  0.1233  0.1952  0.0835
39267W        W48067   5.972   6.208  15.539 -0.3020 -0.0938  0.0104
39268W        W48068  18.192   1.036  23.912  0.0142  0.2000  0.1338
39269W        W48069  22.893   4.221  31.970  0.3758  0.0170 -0.1490
39270W        W48070  20.764   0.304  24.214  0.0090 -0.2709 -0.0162
39271W        W48071   2.971   6.326  32.564 -0.1854 -0.1316  0.1203
39272W        W48072   1.220   3.340  21.612 -0.1976  0.1868  0.1954
39273W        W48073  13.815   2.502   7.611  0.0872 -0.0912 -0.1158
39274W        W48074  13.176   7.187  30.154 -0.1111 -0.1290 -0.3616
39275W        W48075   6.662   5.681  15.230  0.1079 -0.2745 -0.0525
39276W        W48076  11.609   5.782   6.016 -0.0269  0.0687 -0.2446
39277W        W48077   7.906   0.219   1.699  0.2449 -0.0619 -0.0066
39278W        W48078  22.885   6.611   9.049 -0.2382  0.0589  0.2920
39279W        W48079  23.742   7.404  21.837  0.1069  0.1204 -0.3813
39280W        W48080   1.957   7.435   7.118  0.0672  0.1234 -0.4100
39281W        W48081  11.402   1.525  28.875  0.0353 -0.1319  0.3143
39282W        W48082  15.720   1.440   1.837 -0.1535 -0.1096 -0.1292
39283W        W48083   9.344   4.175  15.133 -0.0287  0.2450 -0.1264
39284W        W48084  15.616   0.993  20.925 -0.1177 -0.0809  0.4102
39285W        W48085  20.878   5.174  14.585 -0.0128  0.2999  0.4541
39286W        W48086  19.509   4.906  24.273 -0.3088  0.0374  0.0956
39287W        W48087  20.403   7.280  27.676  0.1750 -0.3733 -0.0201
39288W        W48088  11.562   3.277  30.951 -0.0553  0.0481 -0.0281
39289W        W48089  21.631   0.011  23.651  0.1717  0.4376  0.2334
39290W        W48090   5.516   4.035  29.582 -0.0046  0.0347  0.3665
39291W        W48091   3.315   7.807  11.510 -0.1337  0.0698  0.2306
39292W        W48092  24.462   0.466   8.378 -0.1362 -0.1328  0.0172
39293W        W48093  19.311   1.366  15.877  0.0140 -0.1037 -0.2710
39294W        W48094  12.033   1.830  26.069 -0.0171  0.0182 -0.1739
39295W        W48095  10.282   4.214  26.127  0.0241 -0.1007  0.1929
39296W        W48096  15.167   4.770   0.346 -0.0749 -0.2438 -0.0780
39297W        W48097  24.992   6.621  32.399  0.1734  0.0190  0.2588
39298W        W48098   9.025   6.448  26.096 -0.2265 -0.0845  0.3508
39299W        W48099   9.092   5.446   6.041 -0.0028 -0.2491  0.0967
39300W        W48100   8.027   5.692  25.606  0.2670 -0.3883  0.2722
39301W        W48101   7.749   0.698  32.016 -0.1884  0.0226  0.1264
39302W        W48102  18.559   2.639   6.889 -0.3200 -0.3329 -0.2138
39303W        W48103  21.487   0.771   0.691  0.1798 -0.1201 -0.0792
39304W        W48104  11.740   4.700   3.734 -0.3185  0.2621  0.0226
39305W        W48105   0.413   0.302   2.377 -0.4414 -0.4702  0.0645
39306W        W48106  10.933   6.610  24.125 -0.3339  0.3439 -0.0570
39307W        W48107   6.440   3.157   2.095 -0.0180  0.0975  0.1585
39308W        W48108   9.550   1.432   6.438 -0.2141  0.4156  0.0389
39309W        W48109  13.816   0.437  20.818  0.0775  0.0837 -0.2406
39310W        W48110  13.583   3.362   8.083 -0.0022  0.1867  0.1951
39311W        W48111   0.047   6.956   1.666 -0.2609 -0.3453 -0.2467
39312W        W48112  16.226   2.286   9.901  0.2539 -0.1559  0.0984
39313W        W48113  18.704   4.572   6.719 -0.2821  0.1525  0.0956
39314W        W48114   5.831   4.076  12.833  0.1209  0.0344  0.0203
39315W        W48115  15.185   4.302  26.911  0.2418 -0.0001  0.0213
39316W        W48116   2.230   3.138  31.732 -0.2111  0.3185  0.0267
39317W        W48117  19.718   4.971  29.949 -0.1245  0.3238 -0.2156
39318W        W48118  15.810   3.305  10.284  0.0899 -0.2738  0.1743
39319W        W48119  24.433   6.048  20.245  0.1374  0.1489  0.0566
39320W        W48120  12.144   5.720   0.096  0.2243 -0.2529 -0.1620
39321W        W48121   8.793   1.266  10.483  0.0193 -0.1123 -0.0151
39322W        W48122  20.202   1.151   0.392  0.0220  0.1034 -0.1528
39323W        W48123  12.634   6.553   3.212 -0.1533 -0.2040 -0.1909
39324W        W48124  15.717   5.751  31.976 -0.0782 -0.0178 -0.0502
39325W        W48125   7.713   6.945   3.824 -0.0111  0.0348 -0.0182
39326W        W48126  15.200   2.381   0.838  0.1159  0.0792 -0.0211
39327W        W48127  13.236   3.084  13.760  0.1829  0.0330 -0.2387
39328W        W48128  24.462   0.725  25.607 -0.1819 -0.1250 -0.0197
39329W        W48129   2.514   5.895  24.771  0.3053  0.0823  0.2720
39330W        W48130  10.088   6.466  17.595  0.2379  0.1280 -0.0279
39331W        W48131  21.368   6.902   8.864 -0.1210  0.0618 -0.0986
39332W        W48132  12.343   2.264  27.075 -0.0089  0.4715  0.0717
39333W        W48133   5.748   3.823  31.448 -0.2284  0.0634  0.0247
39334W        W48134  16.778   0.311  11.140 -0.2771  0.1353  0.3465
39335W        W48135   2.557   2.353  20.821 -0.0415 -0.0229 -0.0051
39336W        W48136  21.714   3.012  30.955  0.2059 -0.1777  0.0186
39337W        W48137  10.151   6.999  10.439 -0.0584  0.2467 -0.1804
39338W        W48138   0.075   0.195  31.259 -0.1356 -0.1793 -0.0387
39339W        W48139  18.129   1.729   7.733  0.0362  0.0792  0.1105
39340W        W48140   5.217   7.356  14.882  0.4817 -0.1969 -0.2197
39341W        W48141   4.741   4.523  11.214  0.0676 -0.3345 -0.3564
39342W        W48142  19.645   3.414  23.965  0.1633 -0.0153  0.2741
39343W        W48143   8.612   7.599  17.823 -0.2360  0.1232 -0.4541
39344W        W48144   2.158   2.049  26.149  0.1367 -0.4030 -0.1773
39345W        W48145   8.882   2.032  13.526 -0.2211 -0.4082 -0.1307
39346W        W48146   7.022   2.676  24.846  0.3734 -0.0939 -0.3285
39347W        W48147   7.323   0.505   6.071 -0.0131  0.3030  0.0459
39348W        W48148  22.186   3.664   3.550  0.1722 -0.1968 -0.0960
39349W        W48149   0.579   6.494  18.766  0.1739 -0.0784 -0.0622
39350W        W48150  23.632   0.788   8.604 -0.1634  0.0900 -0.0404
39351W        W48151   4.241   5.096   7.900  0.1185  0.0288 -0.1952
39352W        W48152   9.398   6.473  26.583 -0.0224 -0.0585  0.0091
39353W        W48153  12.083   7.358  25.474 -0.0444 -0.3205  0.0508
39354W        W48154  16.380   7.654  26.135  0.1694  0.0374  0.2342
39355W        W48155   4.197   2.344  13.168 -0.2661  0.2167  0.1095
39356W        W48156  22.166   7.769  19.589 -0.0391 -0.2586  0.1022
39357W        W48157  21.136   3.211  23.757  0.0850  0.0482  0.2945
39358W        W48158   0.907   0.260  23.658  0.0360 -0.1490 -0.3834
39359W        W48159   7.657   3.443   3.044 -0.0471  0.0111 -0.1996
39360W        W48160  21.302   0.624  21.896 -0.1735 -0.1853 -0.1301
39361W        W48161  15.060   3.137   1.297  0.2868  0.2605  0.0172
39362W        W48162   5.075   0.507   6.917 -0.2042 -0.2333  0.2215
39363W        W48163  17.148   0.718  12.448  0.1143 -0.0201  0.1378
39364W        W48164  15.732   2.859  28.702  0.1252  0.0176  0.2237
39365W        W48165  19.824   2.593  29.931 -0.3814  0.0173  0.0946
39366W        W48166   7.798   6.364  26.010  0.0370  0.0116 -0.0902
39367W        W48167   0.646   4.276  31.399  0.0691  0.3797 -0.2228
39368W        W48168   4.521   6.635   3.809 -0.2040  0.3362  0.0145
39369W        W48169   1.302   6.919   4.387  0.4878 -0.1132  0.3303
39370W        W48170  18.225   1.231  31.805 -0.1324 -0.1252 -0.1557
39371W        W48171   0.359   4.297  23.177  0.0022  0.3559  0.1445
39372W        W48172  19.940   2.658  22.087  0.1721 -0.0516  0.2027
39373W        W48173  14.180   0.326   1.414 -0.0710  0.4121  0.0047
39374W        W48174   2.833   1.354   8.981 -0.2403 -0.0169  0.0777
39375W        W48175  17.178   2.025   2.364  0.3311 -0.0467  0.1299
39376W        W48176  21.581   3.737  15.660  0.2829  0.1037 -0.1509
39377W        W48177   7.343   4.360  12.369  0.0471 -0.2278 -0.0373
39378W        W48178  11.530   6.881   3.901 -0.1915  0.0270  0.0010
39379W        W48179   8.471   7.513  31.524 -0.0888 -0.1304 -0.0327
39380W        W48180   4.085   3.127  24.713 -0.0891  0.0690 -0.1278
39381W        W48181  14.066   2.921  12.542 -0.1794  0.2598  0.0652
39382W        W48182  23.306   0.175  24.261  0.2323  0.3915 -0.0843
39383W        W48183  23.420   0.699  30.039 -0.1099  0.0354  0.1046
39384W        W48184   3.708   0.924  21.831 -0.2983  0.1498 -0.2218
39385W        W48185  10.558   7.516  18.651  0.0717  0.1835 -0.1644
39386W        W48186   5.159   6.209  10.146 -0.0476 -0.0919  0.1580
39387W        W48187  10.020   5.829   9.164 -0.0143 -0.1245 -0.2183
39388W        W48188   9.737   2.525  31.514 -0.1482 -0.1360  0.0933
39389W        W48189   4.501   5.290   4.932  0.2539 -0.0456 -0.1612
39390W        W48190  20.344   5.481  25.403  0.2260 -0.3114  0.2451
39391W        W48191  20.446   5.331  28.551  0.2723  0.0401  0.4055
39392W        W48192   1.555   4.355  29.366  0.0443 -0.2249  0.1197
39393W        W48193  14.667   1.846  32.243 -0.1643 -0.3376 -0.1453
39394W        W48194  21.590   0.801  20.569  0.1007 -0.1099 -0.1990
39395W        W48195  10.372   2.485  29.541 -0.1231  0.1236  0.2604
39396W        W48196  16.482   5.446  28.831  0.0600 -0.2662  0.1777
39397W        W48197  19.298   0.924   8.336  0.3385  0.1793  0.1539
39398W        W48198   7.974   7.098  30.846 -0.2541  0.0381 -0.0752
39399W        W48199   8.370   4.887  12.193 -0.0097  0.3578  0.0019
39400W        W48200   5.453   5.800  29.044 -0.0536  0.1777 -0.1383
39401W        W48201  20.710   6.807   1.941 -0.0717  0.0825  0.0855
39402W        W48202  20.846   1.692   7.979 -0.0442  0.1025  0.0225
39403W        W48203  12.614   1.113  15.296  0.0964  0.3362 -0.0503
39404W        W48204   8.574   0.733  11.896 -0.2150  0.3622 -0.0111
39405W        W48205   5.344   1.411   0.740  0.0411 -0.0626  0.0049
39406W        W48206  15.335   0.677   9.712  0.0322  0.1554  0.2068
39407W        W48207  12.959   4.115  28.401 -0.1027  0.0736 -0.3047
39408W        W48208  20.651   0.186  23.673  0.1454  0.3577 -0.0403
39409W        W48209  19.163   7.571   6.954 -0.0858 -0.4676 -0.0892
39410W        W48210  11.171   0.579  24.587 -0.0414 -0.1249  0.0704
39411W        W48211  23.974   5.878  16.906 -0.1945  0.1073  0.2105
39412W        W48212  21.184   2.242  22.801  0.0852  0.1083 -0.1191
39413W        W48213   1.428   6.319  25.909  0.1895 -0.0883  0.3549
39414W        W48214   0.105   0.187   9.409  0.1981  0.1353 -0.1441
39415W        W48215  16.714   7.348   7.941 -0.0698 -0.1901  0.1110
39416W        W48216  24.946   1.575   4.646 -0.2832  0.1022  0.2488
39417W        W48217  17.892   3.756  26.650  0.0860  0.0673 -0.1186
39418W        W48218   3.919   2.668  11.103 -0.1721  0.0135 -0.0002
39419W        W48219  10.917   6.103  29.637  0.2532  0.0443  0.0793
39420W        W48220   8.280   3.870   6.272  0.1689 -0.1923 -0.1359
39421W        W48221   7.320   6.094  11.602 -0.0864 -0.1391  0.1872
39422W        W48222  10.622   0.570   3.875  0.0393 -0.2695 -0.0685
39423W        W48223  10.939   5.350   0.961 -0.2405  0.0498  0.0981
39424W        W48224   0.953   3.089  27.856 -0.3770 -0.0119 -0.1634
39425W        W48225  23.109   0.679  21.775 -0.0514 -0.2145 -0.0959
39426W        W48226  15.756   2.992  25.966  0.2771  0.0174 -0.1066
39427W        W48227  12.320   3.898  13.432 -0.1015  0.1991  0.3438
39428W        W48228   1.930   6.027   5.908 -0.1650  0.0969 -0.1892
39429W        W48229  19.154   7.106  20.880  0.0794  0.0812  0.0760
39430W        W48230   4.663   6.401  26.108  0.0266 -0.2601 -0.3223
39431W        W48231   9.344   5.900  23.901 -0.4095 -0.0268  0.2011
39432W        W48232  11.218   6.501   3.934 -0.1784  0.1120  0.1719
39433W        W48233   6.736   6.933  31.835  0.0316  0.4438  0.0267
39434W        W48234  14.217   4.400  19.839 -0.1823 -0.0719  0.0093
39435W        W48235   1.923   0.963  26.301  0.1694 -0.1590  0.1611
39436W        W48236  20.307   3.508  30.569 -0.1167  0.0861  0.0358
39437W        W48237  24.328   5.993   9.777  0.2384  0.1737  0.0775
39438W        W48238   7.664   7.535  10.057 -0.2560 -0.2027 -0.0838
39439W        W48239  21.667   2.031  28.800 -0.1281 -0.1672 -0.0103
39440W        W48240   3.187   2.874   8.384 -0.3849  0.1373  0.0028
39441W        W48241   8.038   7.238  16.197 -0.3398  0.4214  0.1159
39442W        W48242  21.165   6.612  16.539  0.3622  0.1531 -0.2739
39443W        W48243   6.761   0.061  23.271  0.3168 -0.1144 -0.2843
39444W        W48244   7.310   4.612  13.745 -0.1210  0.0385 -0.2790
39445W        W48245  24.824   2.801   8.938 -0.3021  0.2656  0.2236
39446W        W48246   8.394   0.472  30.698  0.0791  0.0096  0.2573
39447W        W48247  22.405   4.966   2.266 -0.1095 -0.0612 -0.2486
39448W        W48248   1.387   3.116  11.309 -0.1257  0.1063 -0.3877
39449W        W48249  14.502   5.999  12.776  0.0455  0.1915 -0.2434
39450W        W48250   9.033   3.378  24.235 -0.1037 -0.0401  0.2395
39451W        W48251  14.730   1.220   3.800  0.1995 -0.0940 -0.0569
39452W        W48252  15.855   3.960  31.430 -0.2300 -0.0261  0.3076
39453W        W48253  10.337   2.710  21.955  0.1628 -0.2910 -0.0807
39454W        W48254   8.868   3.740   7.982  0.0561 -0.1616  0.0297
39455W        W48255   8.932   0.405  11.264  0.3138  0.2774 -0.0863
39456W        W48256   6.864   0.559  15.553  0.0102  0.0744  0.1070
39457W        W48257  22.512   3.552   2.877  0.1218  0.0394  0.0007
39458W        W48258  17.030   3.452   2.323  0.0253  0.0301  0.0869
39459W        W48259  10.031   6.180  23.324  0.2053 -0.1341 -0.0092
39460W        W48260  10.448   6.956  16.526  0.0229 -0.2789 -0.0517
39461W        W48261   9.784   5.901  10.495 -0.1044  0.0093 -0.0116
39462W        W48262  24.426   7.824   1.552  0.0247 -0.1152  0.0772
39463W        W48263   5.075   5.682  23.726  0.0958  0.1065 -0.1494
39464W        W48264   7.071   0.777   9.370 -0.2903  0.1039 -0.2490
39465W        W48265  20.836   4.966  28.398 -0.2317 -0.1750  0.3243
39466W        W48266   5.737   2.577  29.459  0.0995  0.1640 -0.2092
39467W        W48267   7.023   5.362   0.972 -0.1668 -0.1199  0.0041
39468W        W48268   0.180   6.878  31.737  0.3136  0.0837  0.0175
39469W        W48269   1.410   7.714   9.383  0.0464  0.3134  0.0087
39470W        W48270  15.236   5.404  23.134 -0.0555  0.0141 -0.2505
39471W        W48271  12.299   3.982   0.807  0.1293 -0.0150 -0.1496
39472W        W48272  17.474   2.191   0.179  0.3982 -0.0837  0.0433
39473W        W48273   7.159   3.575  11.180  0.0258  0.2858 -0.0558
39474W        W48274  11.885   5.464   9.937 -0.0854  0.1081 -0.3190
39475W        W48275   1.656   6.755  21.191  0.0240 -0.0441  0.2922
39476W        W48276  22.871   6.521  14.246  0.0310 -0.0355  0.3667
39477W        W48277   4.360   2.624  23.732  0.0150 -0.2275  0.0859
39478W        W48278   8.196   1.381  28.254  0.0557  0.3159  0.1476
39479W        W48279  11.491   3.934  13.666  0.1907 -0.0593 -0.2915
39480W        W48280  15.188   6.363  11.626  0.1841  0.0770 -0.2376
39481W        W48281  16.414   1.063  24.805  0.1312  0.0652 -0.0688
39482W        W48282  16.618   3.715  30.835 -0.3076 -0.0521  0.1949
39483W        W48283  17.598   0.244  30.208 -0.3075 -0.1105 -0.2263
39484W        W48284  11.689   4.709  22.825 -0.1279  0.2365  0.0874
39485W        W48285  17.921   7.775  30.635  0.0302  0.1766 -0.0941
39486W        W48286  16.122   2.638  22.374  0.0091  0.1972  0.0651
39487W        W48287  19.415   2.233   3.867  0.4180  0.0392 -0.0643
39488W        W48288  20.505   2.045  14.691  0.1331  0.0045  0.0341
39489W        W48289   8.450   5.365  10.746 -0.1557 -0.2469  0.0251
39490W        W48290   2.377   6.614   3.019 -0.1127 -0.0223  0.1740
39491W        W48291  14.091   0.067  32.097  0.1542 -0.1105 -0.2479
39492W        W48292  10.151   6.075  10.997 -0.5483  0.2459  0.0273
39493W        W48293  23.905   5.562  31.670  0.2022 -0.0179  0.0214
39494W        W48294   7.497   0.454  23.678  0.0158  0.4549 -0.2226
39495W        W48295  12.285   1.151   6.116  0.0376 -0.2421  0.0362
39496W        W48296   7.244   0.826  29.978 -0.1099 -0.1973  0.1834
39497W        W48297   7.273   6.049  23.649 -0.2854  0.0350  0.0801
39498W        W48298   8.307   6.295   3.295 -0.3677 -0.1549  0.0983
39499W        W48299   2.937   2.182   7.907 -0.1433  0.0682 -0.1370
39500W        W48300  21.648   6.290  20.634  0.0448  0.1479 -0.0622
39501W        W48301   6.713   6.722  25.123 -0.1804 -0.0512 -0.1050
39502W        W48302  24.857   6.791   2.725  0.0474 -0.2700  0.1438
39503W        W48303  20.638   7.599  26.541  0.3190  0.1387 -0.2790
39504W        W48304   8.118   1.266  16.204 -0.0078 -0.0404  0.0453
39505W        W48305   6.375   1.691  12.004 -0.3033  0.2534 -0.0292
39506W        W48306  10.032   0.849   5.196 -0.0710 -0.0949  0.1086
39507W        W48307  16.825   2.212   6.406 -0.0335  0.1741  0.0607
39508W        W48308   0.586   1.411  31.272  0.0213 -0.0282  0.0385
39509W        W48309  21.093   7.079  22.732 -0.0964  0.1068  0.0506
39510W        W48310  20.489   3.355  16.466 -0.0325 -0.4021  0.1762
39511W        W48311  10.304   6.902   5.190 -0.2234 -0.1549 -0.1091
39512W        W48312   6.719   3.221  25.380 -0.0939 -0.0461  0.1677
39513W        W48313  20.781   4.951  23.558  0.1779  0.3942  0.0150
39514W        W48314   3.185   3.802  11.784 -0.0082 -0.0049  0.1038
39515W        W48315  18.295   7.683  22.234 -0.1084  0.3501  0.4102
39516W        W48316   2.505   7.344  25.298  0.2118 -0.0110  0.0057
39517W        W48317   6.324   0.226   4.124  0.0435 -0.2483 -0.2505
39518W        W48318   5.954   1.686  13.855 -0.2428  0.4285 -0.3275
39519W        W48319  17.535   4.567   0.759  0.0205  0.0223  0.4059
39520W        W48320   3.873   5.085  30.654  0.0928  0.2202 -0.0623
39521W        W48321  16.067   4.785  27.670 -0.1664  0.1289 -0.4012
39522W        W48322  13.006   2.838  29.969  0.1431 -0.1053 -0.2262
39523W        W48323  23.106   7.418  30.078 -0.3558 -0.0336  0.1449
39524W        W48324  17.691   5.208  30.964  0.0116 -0.0922  0.1798
39525W        W48325   0.099   1.780   2.730  0.0528 -0.1143 -0.1882
39526W        W48326   6.752   0.104  25.340  0.0115 -0.3086 -0.2887
39527W        W48327   3.343   1.978  30.761 -0.1248 -0.0736 -0.0075
39528W        W48328  22.032   5.052  15.450  0.0427  0.1391 -0.1646
39529W        W48329  16.683   4.761  21.515 -0.0099 -0.0781 -0.1439
39530W        W48330  20.365   7.208  31.253  0.4492  0.1155 -0.2775
39531W        W48331   5.358   7.705  30.572 -0.1147 -0.1014 -0.0868
39532W        W48332   3.669   0.953  22.474 -0.0450 -0.2501  0.0271
39533W        W48333   5.681   0.949  28.037  0.0061 -0.2674 -0.0365
39534W        W48334  13.496   5.860  12.884 -0.0283 -0.0482 -0.1220
39535W        W48335  23.293   6.353  15.675 -0.1192  0.4770  0.1970
39536W        W48336  11.621   4.212   0.249 -0.1515 -0.0966  0.0707
39537W        W48337  11.805   5.475  31.271  0.2624 -0.0241 -0.2006
39538W        W48338  18.650   3.394   4.198 -0.0707  0.0311 -0.2883
39539W        W48339  12.416   2.612   0.678  0.1324 -0.0622  0.0710
39540W        W48340   3.786   3.509  22.631  0.3524  0.1104 -0.1697
39541W        W48341  24.637   1.457  24.986  0.1390  0.0039 -0.1788
39542W        W48342  17.649   0.031  26.951 -0.2242  0.2752 -0.2710
39543W        W48343  24.138   0.512  30.802 -0.1379 -0.2535  0.0758
39544W        W48344   1.781   2.043   9.808 -0.0017  0.1995 -0.1039
39545W        W48345  13.981   1.452  23.668 -0.0751 -0.2305 -0.1455
39546W        W48346   8.924   6.543  28.215 -0.2385  0.1499 -0.1166
39547W        W48347   7.955   4.804  29.604 -0.0897  0.1288  0.0911
39548W        W48348  12.277   1.953  11.938  0.2286  0.2962 -0.1666
39549W        W48349   9.780   7.752  17.105  0.0763  0.0831 -0.2416
39550W        W48350   1.380   3.508  24.578 -0.4528 -0.1798  0.1202
39551W        W48351  23.320   5.258   9.393  0.2677  0.0538  0.0198
39552W        W48352  14.844   4.489  32.163  0.0663  0.0902 -0.2598
39553W        W48353  22.537   0.376  32.225  0.1698 -0.2875  0.2872
39554W        W48354  16.860   1.969   8.468 -0.1526 -0.1533  0.1200
39555W        W48355   4.826   6.446   9.849 -0.1901 -0.2778  0.1374
39556W        W48356   8.780   7.045  29.326 -0.1991 -0.0083  0.0894
39557W        W48357   9.783   5.190  17.325  0.0046  0.0410 -0.0447
39558W        W48358  18.392   6.100  17.333 -0.1330 -0.2238  0.3357
39559W        W48359  16.484   1.257   7.861 -0.2174  0.0216 -0.4188
39560W        W48360  21.848   0.026  31.539 -0.0547 -0.0725 -0.1871
39561W        W48361   3.389   5.637  11.652  0.0938  0.0936 -0.1944
39562W        W48362  21.987   4.296  28.482  0.1145 -0.1309 -0.2212
39563W        W48363  10.499   6.142   3.984  0.0305 -0.0344  0.1764
39564W        W48364   3.558   0.189  21.287  0.0168  0.0270 -0.0739
39565W        W48365   2.567   2.844  10.518  0.2027 -0.0014  0.0949
39566W        W48366  17.128   0.498   9.799 -0.0799  0.1942  0.0319
39567W        W48367  24.034   0.888   1.121  0.0014 -0.1987  0.0566
39568W        W48368   3.543   4.267   4.628  0.0636  0.2321 -0.2349
39569W        W48369  20.987   6.659   2.868  0.0884 -0.0842 -0.0201
39570W        W48370   2.903   3.315   3.140 -0.0824  0.0739  0.3832
39571W        W48371   0.375   4.271   2.100 -0.2112 -0.1676  0.1508
39572W        W48372   7.722   2.241  27.828  0.3025  0.2155  0.1567
39573W        W48373   3.240   4.260  28.826  0.3830 -0.2688  0.0661
39574W        W48374   0.236   3.361  28.373  0.1561 -0.0083 -0.0593
39575W        W48375  10.940   1.689   0.695  0.1017 -0.2577  0.0483
39576W        W48376  18.277   3.004   4.912  0.0689 -0.0981  0.1073
39577W        W48377  10.657   1.600   4.235 -0.0832  0.0630 -0.1050
39578W        W48378   1.692   0.936  28.343 -0.0672 -0.0151  0.1818
39579W        W48379  19.646   7.232  32.416  0.1897 -0.0537  0.0866
39580W        W48380   0.034   0.379  31.807  0.1385  0.0913 -0.1605
39581W        W48381  19.892   1.306  21.267 -0.0147  0.1648  0.1811
39582W        W48382  23.040   0.239   9.229 -0.3215 -0.0123  0.0448
39583W        W48383   2.627   1.779  31.823 -0.0871  0.1144  0.0620
39584W        W48384  14.927   5.604  28.281  0.2135 -0.3008  0.2120
39585W        W48385   0.628   5.246  28.242  0.1208 -0.0011 -0.1007
39586W        W48386  11.749   1.671  16.393 -0.1964 -0.0555  0.1293
39587W        W48387   8.180   0.680   9.839  0.3574 -0.2321  0.1150
39588W        W48388  17.942   4.951  24.831 -0.2199  0.3360  0.0409
39589W        W48389  18.062   1.253   6.857  0.0897 -0.0508  0.3103
39590W        W48390   9.174   6.673  28.651  0.0030  0.0816  0.1317
39591W        W48391   4.840   0.796   3.984  0.3181 -0.0190 -0.0497
39592W        W48392  20.127   3.228  22.337 -0.1957 -0.0540 -0.2781
39593W        W48393   0.555   5.088  27.592  0.0993 -0.0774 -0.0790
39594W        W48394  24.921   7.367  28.253  0.3249 -0.0502 -0.1865
39595W        W48395   7.074   1.247  31.834  0.0337  0.0630  0.0222
39596W        W48396  16.149   4.281  29.341 -0.0499 -0.1403  0.0321
39597W        W48397  24.511   7.625  28.084  0.1518  0.0009  0.1078
39598W        W48398  18.782   6.438   4.975  0.2021  0.3079 -0.1147
39599W        W48399  14.042   3.377   7.759  0.0396  0.2249 -0.1215
39600W        W48400   0.863   6.600  18.035 -0.1018 -0.1092 -0.2735
39601W        W48401  10.268   4.261   2.101 -0.1336 -0.0568  0.1354
39602W        W48402  23.254   6.664   1.847  0.1758 -0.0443 -0.1379
39603W        W48403  22.338   4.121  31.888  0.1055  0.2605 -0.0486
39604W        W48404   0.244   1.941   9.786  0.1990  0.0157 -0.0482
39605W        W48405  20.354   7.730  25.230 -0.4414 -0.3172  0.0603
39606W        W48406  14.484   3.857  32.197 -0.2023 -0.2828 -0.0166
39607W        W48407   7.878   1.814  22.527  0.3429  0.0675  0.3301
39608W        W48408   1.529   3.912  22.448 -0.0607  0.1668  0.1441
39609W        W48409  23.648   7.749  31.583  0.0115 -0.2003  0.0653
39610W        W48410  21.805   6.932  21.096 -0.2177  0.0646 -0.1120
39611W        W48411   0.626   7.746  20.869  0.1540  0.1266  0.0015
39612W        W48412  12.557   5.628  31.529  0.0884 -0.0214 -0.0467
39613W        W48413   8.029   6.027   2.418  0.2411 -0.0539 -0.0183
39614W        W48414  11.548   3.541  16.250 -0.1084 -0.0073 -0.1646
39615W        W48415  15.636   2.918  19.228  0.1553  0.2356 -0.0023
39616W        W48416  20.508   1.264  26.885  0.0894  0.0596 -0.1923
39617W        W48417  17.202   6.985  17.737  0.0321  0.0373 -0.2564
39618W        W48418   7.807   7.071   7.259 -0.2563  0.0878 -0.3458
39619W        W48419   8.875   1.207  31.800  0.0308  0.1120 -0.1420
39620W        W48420  11.066   6.556   4.440 -0.0359 -0.0515 -0.0165
39621W        W48421  18.739   6.309   8.170  0.3709 -0.1709  0.0932
39622W        W48422  16.879   7.096  17.015  0.0726 -0.0412  0.1555
39623W        W48423   7.250   3.666  21.603  0.0219 -0.2284 -0.2511
39624W        W48424  14.494   1.487  31.235 -0.1105 -0.0904  0.0941
39625W        W48425   1.216   1.990   3.748  0.0787 -0.1185  0.0481
39626W        W48426  16.557   4.920  25.303  0.4118  0.2381 -0.1159
39627W        W48427  22.541   1.842   6.008 -0.1583 -0.2096  0.1795
39628W        W48428  19.907   7.341  30.826  0.1896 -0.1832  0.3096
39629W        W48429   4.884   5.962  25.963  0.0711  0.1339  0.1727
39630W        W48430  12.168   2.440   6.680  0.2894 -0.0357  0.2447
39631W        W48431   4.929   3.110   1.458  0.0081 -0.0144  0.0185
39632W        W48432  15.369   2.903   6.947 -0.0320  0.1051 -0.1105
39633W        W48433   2.538   6.071   9.098  0.1340  0.2195  0.0024
39634W        W48434  17.166   5.633  30.979  0.0617  0.0258  0.0721
39635W        W48435   5.851   1.172  29.450  0.2421  0.0595 -0.0355
39636W        W48436   9.895   7.443  28.083  0.0743 -0.0386 -0.1950
39637W        W48437  14.901   6.645   5.876  0.0523 -0.3850 -0.2351
39638W        W48438   7.271   1.890   8.162 -0.1901  0.0190 -0.1535
39639W        W48439  16.788   5.512   6.140  0.0918  0.0752 -0.2731
39640W        W48440  13.317   4.617   6.462  0.0793  0.1497  0.1904
39641W        W48441  14.731   2.990   2.956  0.1429 -0.0037  0.1050
39642W        W48442  16.646   0.470  23.341  0.1155  0.0935  0.2502
39643W        W48443  13.859   7.750  22.759 -0.1668  0.1958 -0.1093
39644W        W48444   9.606   2.934   5.963 -0.2880 -0.3620 -0.0734
39645W        W48445  22.272   1.206   1.881 -0.0227 -0.1293 -0.3386
39646W        W48446  23.620   5.936  28.576 -0.0006  0.0616  0.0700
39647W        W48447   4.567   2.171   8.543  0.1925 -0.1986  0.0246
39648W        W48448   0.170   5.933  17.396 -0.1399  0.1126 -0.3966
39649W        W48449  19.749   0.037  30.708  0.1049  0.3800  0.0409
39650W        W48450   8.574   0.929  10.034  0.2374  0.1406 -0.0440
39651W        W48451  22.802   3.701  30.613 -0.0843 -0.0404  0.3821
39652W        W48452   4.176   7.526  29.170  0.2367 -0.2150  0.2524
39653W        W48453  23.093   2.015   3.896 -0.2578 -0.1574  0.0622
39654W        W48454  14.282   4.550  22.392 -0.0861  0.0377 -0.2994
39655W        W48455   8.598   2.138  27.882  0.1600  0.1196  0.2971
39656W        W48456   8.770   5.574  11.557  0.0844 -0.1507  0.0623
39657W        W48457  24.288   1.066  24.958  0.0106  0.1619 -0.1377
39658W        W48458  14.102   2.696   2.128  0.1779 -0.0093  0.1083
39659W        W48459  23.660   0.678  28.156  0.0710 -0.2501  0.1016
39660W        W48460  16.991   3.465  23.475 -0.0438  0.3097  0.1164
39661W        W48461  19.427   4.122   5.226  0.3893 -0.2453  0.1780
39662W        W48462   0.095   3.379   9.527 -0.1561 -0.0022 -0.3574
39663W        W48463  21.207   5.833   9.405  0.1085 -0.1545  0.0037
39664W        W48464   0.657   5.684  17.473  0.0084  0.2333 -0.0768
39665W        W48465  11.750   1.703  13.935  0.1314  0.2594  0.1487
39666W        W48466  16.937   1.193   8.192  0.1385 -0.2930  0.0389
39667W        W48467   2.250   3.885   9.077  0.2097  0.2674  0.0645
39668W        W48468  23.122   3.289  26.504 -0.1070 -0.1998 -0.2080
39669W        W48469   5.170   5.547  14.412 -0.0387  0.1581  0.1563
39670W        W48470  17.686   4.896   4.262  0.0233  0.1145  0.2461
39671W        W48471   5.484   3.794  14.681 -0.3004 -0.0347 -0.0686
39672W        W48472  10.259   7.702   5.336  0.1995  0.0883  0.3065
39673W        W48473   7.051   1.657  28.752 -0.0109  0.0096  0.3174
39674W        W48474  11.677   6.352  29.445  0.1524  0.0373 -0.1161
39675W        W48475  18.259   5.178   9.299 -0.1792  0.0566 -0.0908
39676W        W48476   6.347   4.328   9.133  0.1337 -0.1605  0.1003
39677W        W48477   9.410   1.578   1.549 -0.3418  0.2819  0.2117
39678W        W48478  10.090   6.578  25.462  0.2547  0.1522 -0.0102
39679W        W48479   8.333   5.439  23.384 -0.1063 -0.1289  0.0237
39680W        W48480   4.413   7.692   4.643 -0.2645  0.0184  0.0822
39681W        W48481  23.268   6.980  21.079 -0.0860 -0.0496  0.2444
39682W        W48482  18.574   5.732  32.556 -0.1699 -0.0752 -0.2256
39683W        W48483   6.471   0.249   1.885  0.2697 -0.1913 -0.0485
39684W        W48484  16.423   0.078  29.331  0.1931 -0.2956  0.1950
39685W        W48485  23.933   0.682  29.868 -0.1862  0.3009  0.0819
39686W        W48486  16.060   7.655  11.379 -0.2148 -0.1108 -0.0885
39687W        W48487   6.914   1.095  18.198 -0.0196 -0.1762  0.0764
39688W        W48488   2.831   0.714  26.303 -0.0969 -0.0933  0.2879
39689W        W48489  24.042   3.181   2.240  0.1614 -0.1544  0.1787
39690W        W48490   2.280   4.578  32.152  0.0802 -0.3292 -0.0927
39691W        W48491  16.584   5.771   2.096  0.1497  0.0382  0.0366
39692W        W48492  18.620   2.798  19.929  0.0337 -0.0743  0.0010
39693W        W48493  17.089   6.557   3.791 -0.0052  0.1803 -0.0018
39694W        W48494   0.669   6.251   2.269 -0.2706  0.3644  0.4529
39695W        W48495  12.338   7.544  29.583  0.0565  0.0865  0.0643
39696W        W48496   1.988   0.206  12.490  0.3975  0.6908 -0.0074
39697W        W48497   6.309   1.618  13.412 -0.0238  0.1264 -0.3986
39698W        W48498  16.608   3.944  10.356 -0.2603 -0.0552 -0.0805
39699W        W48499   1.255   0.296   0.592  0.1376 -0.0378 -0.1009
39700W        W48500  13.700   5.610  13.306 -0.0555  0.0363 -0.0370
39701W        W48501  10.749   7.718  11.682 -0.2478 -0.0408  0.2907
39702W        W48502  12.044   2.868   8.854 -0.0112  0.0367  0.1377
39703W        W48503   9.942   6.786   4.518  0.0424  0.0202 -0.0669
39704W        W48504  16.378   3.100   9.148  0.1474  0.2546  0.1242
39705W        W48505  12.125   0.263  27.603  0.0048 -0.0538 -0.1905
39706W        W48506   7.932   2.582   8.070  0.4128  0.1428 -0.0176
39707W        W48507  17.102   7.766  23.497 -0.1235 -0.0927 -0.1068
39708W        W48508  11.226   1.179   6.580  0.0141 -0.1375 -0.0912
39709W        W48509   0.094   7.378  11.015  0.0175 -0.0959  0.1378
39710W        W48510   2.941   0.428   3.615  0.2697 -0.1374 -0.0902
39711W        W48511   5.458   3.143  28.299  0.4076  0.2482  0.1425
39712W        W48512   9.482   3.461  24.453 -0.0277 -0.0513 -0.0330
39713W        W48513   2.571   4.765  24.531 -0.0046  0.1780  0.0433
39714W        W48514  12.621   1.411  29.234  0.0212  0.2573 -0.0260
39715W        W48515   8.050   2.016  14.478 -0.1108  0.1118 -0.0768
39716W        W48516  16.983   7.125  19.579 -0.1182  0.1552 -0.1117
39717W        W48517  15.618   1.865  31.762 -0.1036 -0.0194  0.2364
39718W        W48518  17.976   6.048  17.077  0.3997  0.0816  0.0128
39719W        W48519   6.675   1.589  29.629  0.0534 -0.0053 -0.2387
39720W        W48520  20.452   1.494  15.836  0.1342 -0.0126 -0.3384
39721W        W48521  21.489   6.613   6.107  0.2301  0.0502 -0.1586
39722W        W48522   0.509   5.366  19.602  0.2553  0.1697 -0.1243
39723W        W48523   4.427   3.096  30.092 -0.0861 -0.0033 -0.1083
39724W        W48524  12.247   5.026  24.589 -0.2610 -0.1852 -0.0398
39725W        W48525  10.000   0.876   3.381  0.1790 -0.1658 -0.1200
39726W        W48526  16.835   0.496   1.928 -0.2456 -0.0561 -0.0992
39727W        W48527  21.087   1.988  16.137 -0.2996 -0.2444 -0.0738
39728W        W48528   5.492   5.187  17.410  0.2503  0.2117 -0.1163
39729W        W48529  19.142   0.892  15.805  0.1502  0.0372 -0.0721
39730W        W48530  16.125   0.615  30.067  0.1883 -0.1848  0.2019
39731W        W48531  22.260   3.528  26.941 -0.1030  0.0895 -0.3414
39732W        W48532  15.275   3.833   0.444  0.0891  0.0054 -0.0927
39733W        W48533  18.807   1.139   8.956  0.2476 -0.0943  0.1627
39734W        W48534  10.263   6.652   8.569  0.0759  0.1231  0.0722
39735W        W48535  15.598   7.542   1.683 -0.0771  0.2430  0.2787
39736W        W48536   6.736   4.004  28.688 -0.0925  0.2430  0.0161
39737W        W48537   6.468   3.409   0.978  0.0926  0.0892 -0.0066
39738W        W48538  21.542   7.327  14.295  0.0182  0.1007 -0.3937
39739W        W48539   6.998   1.693  31.279  0.0281 -0.0357 -0.0102
39740W        W48540   6.960   4.417  17.424  0.2730  0.2940  0.0406
39741W        W48541   3.126   1.445  30.687  0.4174  0.1306  0.2058
39742W        W48542  11.354   1.553  29.508  0.0520 -0.0159  0.3197
39743W        W48543  24.720   7.282   1.638  0.1778  0.2238  0.0166
39744W        W48544   1.464   4.466   9.077  0.0349  0.0409 -0.0774
39745W        W48545  11.522   5.373  25.903 -0.1788 -0.3030  0.3123
39746W        W48546  18.555   0.688  25.274  0.1965  0.1195 -0.0615
39747W        W48547  12.736   3.487  31.540 -0.2092  0.0276  0.0209
39748W        W48548   7.146   4.476   5.218  0.1420  0.0673 -0.2414
39749W        W48549   1.360   0.857  28.700  0.0508  0.1620 -0.2393
39750W        W48550  16.209   7.558  22.962 -0.2647  0.1351  0.0278
39751W        W48551  21.825   2.920  26.756  0.3268  0.4052 -0.0413
39752W        W48552  17.210   1.292  19.318 -0.0637  0.0827 -0.2574
39753W        W48553  11.928   5.658  25.617  0.4104  0.1303  0.2401
39754W        W48554   4.646   2.201   2.295 -0.0365  0.2762  0.3264
39755W        W48555   6.214   6.644  10.843 -0.2257  0.1476  0.0250
39756W        W48556  17.672   1.888  22.953  0.1955  0.0120 -0.2424
39757W        W48557   0.443   0.919  11.223 -0.0755  0.4671  0.1265
39758W        W48558  14.967   2.010   4.901 -0.0357 -0.0583  0.1041
39759W        W48559   4.814   5.440  26.915  0.0377  0.2011  0.2859
39760W        W48560   7.842   5.152   9.518  0.0485 -0.1130  0.2349
39761W        W48561  10.475   3.290  25.046  0.0024 -0.0486  0.0114
39762W        W48562  11.576   5.390  27.929  0.1073  0.0401  0.1459
39763W        W48563  14.932   6.060   5.088 -0.1313 -0.1783  0.2181
39764W        W48564  11.035   2.574  15.509  0.0774 -0.3764  0.0286
39765W        W48565  20.840   4.837  26.083 -0.2326  0.0351  0.0911
39766W        W48566   6.465   1.938  13.877 -0.3815  0.0957  0.1422
39767W        W48567  11.098   3.353  21.368  0.0460  0.0521 -0.2116
39768W        W48568   5.168   4.682  21.881  0.0180 -0.0918 -0.2801
39769W        W48569   3.046   0.613  30.309 -0.0642 -0.0684  0.1900
39770W        W48570  14.551   1.924  27.265 -0.2799 -0.0812 -0.1421
39771W        W48571  14.517   5.120  31.170 -0.0110 -0.4157 -0.2326
39772W        W48572   7.453   7.380   8.022 -0.0707  0.1775 -0.0882
39773W        W48573   1.587   6.850   7.080 -0.1395  0.0460 -0.0798
39774W        W48574  19.599   2.343   2.593 -0.1661  0.0477 -0.0632
39775W        W48575  22.709   3.374  26.223  0.1854 -0.0322  0.0871
39776W        W48576  23.857   4.719  29.037  0.0321  0.1951 -0.1207
39777W        W48577   7.332   3.684   3.350 -0.0208 -0.0547  0.1243
39778W        W48578   5.566   2.493  25.209 -0.4764 -0.0217 -0.1661
39779W        W48579   7.044   1.136   4.157  0.3224  0.0477 -0.1743
39780W        W48580  10.013   1.162  16.948 -0.0026 -0.0225  0.2744
39781W        W48581  22.150   4.951  22.727  0.0573  0.0756  0.0163
39782W        W48582  14.216   5.463  27.327 -0.2210 -0.0964 -0.0542
39783W        W48583  10.400   2.211  32.101  0.0231 -0.3982 -0.1656
39784W        W48584  11.320   7.300  15.230 -0.3168 -0.1387 -0.1149
39785W        W48585  19.025   4.726   3.672  0.5202 -0.2321  0.1508
39786W        W48586  17.769   7.422   2.684 -0.1907 -0.0072  0.3129
39787W        W48587   0.866   1.177   1.656 -0.0156  0.1737  0.0809
39788W        W48588   3.941   0.500  32.031 -0.0708  0.4571  0.0106
39789W        W48589  11.813   5.884   6.502 -0.2010 -0.0577  0.0811
39790W        W48590   9.927   6.050  27.351 -0.0051 -0.0571 -0.3656
39791W        W48591  23.214   1.311  23.084 -0.3258 -0.3605 -0.0410
39792W        W48592   0.501   7.720  29.644 -0.0637 -0.2469  0.1765
39793W        W48593   2.800   7.393  23.323 -0.0092  0.0894  0.0770
39794W        W48594  21.220   0.091  20.081 -0.1474  0.0907 -0.1482
39795W        W48595  24.369   2.206   8.262  0.0355 -0.2772 -0.0711
39796W        W48596   9.487   6.401   1.833  0.1966  0.1195 -0.0686
39797W        W48597  22.474   1.084  16.151  0.2288 -0.2693  0.0516
39798W        W48598  24.929   2.340  22.550 -0.0074 -0.0423 -0.1742
39799W        W48599   0.724   1.759  24.575  0.0421  0.1245 -0.4185
39800W        W48600   1.690   5.446  10.474  0.3413 -0.1374 -0.1453
39801W        W48601   2.381   7.591   5.382 -0.0354  0.1919 -0.0488
39802W        W48602  11.410   0.971   6.129 -0.1213 -0.1476  0.0885
39803W        W48603  18.533   0.096   1.069 -0.0271  0.0029 -0.1097
39804W        W48604  21.212   5.887   2.286 -0.0247  0.0954  0.0727
39805W        W48605  10.320   2.158   8.910  0.2765  0.0899 -0.2184
39806W        W48606  10.165   0.434  16.251 -0.1412 -0.2964 -0.1895
39807W        W48607  12.100   0.596   3.392 -0.0658  0.1301  0.0977
39808W        W48608   0.063   5.561   0.620 -0.2398 -0.0041 -0.1826
39809W        W48609   5.653   5.160   3.069  0.2058  0.0995 -0.0003
39810W        W48610   8.133   1.066   5.444  0.0303  0.4192  0.2830
39811W        W48611   7.189   4.274   7.527  0.2864  0.3449  0.2927
39812W        W48612   9.932   4.847   5.219 -0.0119  0.0248 -0.1204
39813W        W48613  12.827   1.480  32.452  0.2319 -0.0663  0.0627
39814W        W48614  11.242   3.656  24.590 -0.2231 -0.2408 -0.2934
39815W        W48615  22.223   7.521  30.676  0.3132 -0.3102  0.2004
39816W        W48616   8.694   7.726  24.145  0.0121  0.2296 -0.2161
39817W        W48617  11.601   3.200  29.095  0.1635  0.0966  0.0595
39818W        W48618  16.601   3.737  23.772  0.0467 -0.1688 -0.1364
39819W        W48619  14.579   0.375  12.596  0.0752  0.2959  0.2126
39820W        W48620  12.871   6.593   7.096 -0.1896 -0.0097  0.0443
39821W        W48621   1.785   3.311  26.525 -0.4021 -0.1615  0.0138
39822W        W48622  19.531   2.848  28.880 -0.2037 -0.0548 -0.2172
39823W        W48623  17.646   2.598  10.013  0.0144  0.1376 -0.0262
39824W        W48624  13.264   6.124  10.757  0.2334  0.1795  0.1755
39825W        W48625  17.574   3.308  25.027  0.0683 -0.3690  0.0509
39826W        W48626   3.823   5.163  23.487  0.1820 -0.0121 -0.0374
39827W        W48627   9.374   6.044  12.078  0.0331  0.0484  0.3392
39828W        W48628   5.628   5.728  28.559  0.0456  0.1817 -0.0178
39829W        W48629   7.303   7.680  14.536  0.0940  0.2449 -0.1741
39830W        W48630   4.104   1.671   6.687  0.0500 -0.0393  0.1531
39831W        W48631  10.266   1.746   7.250  0.1181  0.0239  0.0509
39832W        W48632   7.784   6.215  10.571 -0.0564 -0.0002  0.0492
39833W        W48633  19.587   6.865  26.975 -0.1613 -0.0787  0.1810
39834W        W48634  19.558   3.259   4.734 -0.3900  0.1244  0.1875
39835W        W48635   6.783   5.247  25.616 -0.2320 -0.4961  0.0701
39836W        W48636  12.308   0.828  30.472 -0.2715 -0.4838 -0.0081
39837W        W48637  23.045   0.978   9.674 -0.1538 -0.1257  0.1296
39838W        W48638  23.474   2.850  25.221  0.2651 -0.1690 -0.1565
39839W        W48639  17.473   7.144  19.858 -0.1209 -0.0586 -0.0877
39840W        W48640  23.753   2.557  19.124 -0.0096 -0.1474 -0.1778
39841W        W48641  18.347   6.149  26.035 -0.2957  0.0940  0.1099
39842W        W48642   8.101   5.181  32.527 -0.0634  0.1135  0.1230
39843W        W48643   4.373   3.341  21.271 -0.0902 -0.2774  0.0986
39844W        W48644   0.403   0.863  18.810  0.2754  0.0719 -0.1119
39845W        W48645  19.250   4.603   5.360 -0.1347 -0.1816 -0.1543
39846W        W48646  24.695   6.032   6.736 -0.0324 -0.0823 -0.2405
39847W        W48647  24.629   0.855   4.479  0.1548  0.2521  0.1451
39848W        W48648  23.511   4.315  16.801 -0.5477  0.2147  0.0518
39849W        W48649   6.789   5.005  11.996  0.0968  0.0448 -0.1325
39850W        W48650   4.634   3.689  16.240  0.0198 -0.4462  0.1664
39851W        W48651  13.338   3.658   8.916 -0.1247 -0.3130  0.1120
39852W        W48652   2.662   5.063  26.447  0.3345 -0.1107  0.2430
39853W        W48653  14.887   3.464  23.510  0.2011 -0.0812  0.0967
39854W        W48654  13.259   2.893   1.422 -0.3565  0.7246 -0.0274
39855W        W48655   1.517   4.108   5.570  0.1717 -0.3082 -0.1647
39856W        W48656   3.886   3.421  27.272 -0.1713 -0.4865  0.1566
39857W        W48657  16.051   1.589  24.173  0.1085  0.0985 -0.0815
39858W        W48658  18.448   5.867   3.793 -0.1625  0.0029  0.0843
39859W        W48659  23.994   5.177  20.710  0.0527  0.0539  0.1403
39860W        W48660  23.499   2.420  22.919  0.1047 -0.0189  0.0309
39861W        W48661   4.547   3.811   8.966 -0.1941  0.0815 -0.0311
39862W        W48662  11.954   1.371   9.777 -0.0422  0.2073  0.0132
39863W        W48663   0.714   0.503  30.616  0.1332 -0.1871  0.3301
39864W        W48664  14.989   0.444   2.697  0.1468 -0.2603 -0.1388
39865W        W48665  23.621   3.860  21.156  0.0184  0.3888  0.0221
39866W        W48666   4.817   5.857  10.962 -0.1298  0.0147 -0.0056
39867W        W48667   8.647   6.450   1.104 -0.2787 -0.0205 -0.0272
39868W        W48668  14.856   3.762  31.021  0.0070 -0.1173 -0.0010
39869W        W48669   9.377   6.239  14.466 -0.0659  0.0261 -0.0801
39870W        W48670  12.876   3.988  14.210 -0.1397 -0.1180  0.2811
39871W        W48671  21.711   6.054   2.069 -0.3377  0.0485 -0.1041
39872W        W48672  23.222   4.564  23.682  0.1168  0.1131 -0.0502
39873W        W48673  11.722   2.808   9.248 -0.1054  0.0144  0.1586
39874W        W48674  22.419   0.373  29.791 -0.1114  0.1270 -0.0145
39875W        W48675   3.280   7.332  26.160 -0.0398  0.1235 -0.0339
39876W        W48676  12.512   0.073   4.015 -0.0641  0.2110 -0.0020
39877W        W48677  13.260   3.767  22.509  0.1528  0.4531  0.4016
39878W        W48678  19.037   1.042   4.467 -0.0443  0.0385 -0.1198
39879W        W48679   1.051   2.673  32.160  0.0064  0.2074  0.0525
39880W        W48680   3.073   2.216  12.069 -0.1512  0.3429 -0.0197
39881W        W48681   0.090   4.927   4.123 -0.0366  0.1171 -0.1943
39882W        W48682  17.925   3.137   8.013 -0.1192 -0.0638  0.0689
39883W        W48683  14.568   1.913   8.381 -0.0237 -0.3086  0.3752
39884W        W48684   6.202   3.271  17.254  0.2384 -0.3378 -0.0283
39885W        W48685  14.410   5.341   8.201  0.1504 -0.0207 -0.0585
39886W        W48686  24.709   4.735  23.878 -0.0572 -0.0947 -0.3213
39887W        W48687   8.162   4.487   9.169 -0.1367 -0.0387 -0.0585
39888W        W48688   6.786   2.633   1.014 -0.0025  0.0993 -0.2547
39889W        W48689  15.018   0.068   9.242  0.0965  0.0287 -0.3626
39890W        W48690  21.787   0.560   2.531 -0.3819  0.1860  0.3260
39891W        W48691  16.752   3.409  20.659 -0.0067 -0.2917  0.0670
39892W        W48692   8.765   4.247   7.062 -0.0477  0.2158  0.0754
39893W        W48693  23.578   4.548   0.482 -0.0739 -0.0782  0.2892
39894W        W48694   1.885   4.727  19.898  0.0602 -0.1974  0.0236
39895W        W48695  10.508   6.700  32.582  0.2687 -0.0890 -0.0942
39896W        W48696  14.203   3.693  31.181  0.1917 -0.1609  0.0584
39897W        W48697   9.980   5.304  29.652 -0.2083 -0.1182  0.2168
39898W        W48698   7.135   3.074  11.245  0.1686  0.1904 -0.3002
39899W        W48699   3.460   3.281  31.044  0.2316  0.0655 -0.5385
39900W        W48700  12.398   3.611  28.911 -0.1442 -0.0475  0.0761
39901W        W48701  23.558   0.657  24.437 -0.2468 -0.0456 -0.1672
39902W        W48702  22.057   4.216   3.968 -0.0597  0.1338 -0.1250
39903W        W48703   8.900   3.440  30.654  0.0487  0.2035 -0.0512
39904W        W48704  12.949   4.597  30.627 -0.0950 -0.1157 -0.0390
39905W        W48705  13.259   2.339  24.513 -0.0470  0.3710 -0.1171
39906W        W48706  17.349   1.482  23.027 -0.1636 -0.0196 -0.1469
39907W        W48707  16.514   5.928   0.234  0.2065 -0.3611  0.2067
39908W        W48708  19.580   3.253  26.347 -0.2390  0.1308 -0.0018
39909W        W48709  19.087   2.713  22.061 -0.1838  0.4221 -0.1379
39910W        W48710  19.374   6.422  17.517 -0.1319  0.0444  0.1270
39911W        W48711  12.730   4.842  30.988  0.0863  0.1585  0.1426
39912W        W48712   3.535   5.382  29.981 -0.0435  0.2473  0.1089
39913W        W48713   6.633   6.193  29.229 -0.2142 -0.1749 -0.1208
39914W        W48714  10.791   1.426  17.521  0.4423 -0.2199 -0.0274
39915W        W48715  19.055   0.616   3.131  0.0110  0.1168  0.1748
39916W        W48716   3.360   6.153   3.703 -0.4766  0.2071 -0.1792
39917W        W48717  12.860   4.390   0.516  0.0314 -0.2403  0.0348
39918W        W48718  19.685   2.756   6.456  0.0672 -0.2112  0.2821
39919W        W48719  21.185   7.597   1.545  0.0717  0.2513 -0.1359
39920W        W48720  22.179   1.228  26.928  0.1419 -0.0385 -0.0020
39921W        W48721  19.746   2.561   1.018 -0.0251 -0.0309 -0.0375
39922W        W48722  22.004   3.188   0.531  0.0354  0.0792 -0.0688
39923W        W48723   2.744   4.745  22.217 -0.1054 -0.0866  0.0030
39924W        W48724   6.289   2.185   6.410 -0.1921  0.0832  0.3841
39925W        W48725   6.708   4.699  30.338 -0.1609  0.0821 -0.2214
39926W        W48726   7.748   7.438  11.405 -0.4919 -0.0869  0.3018
39927W        W48727  22.656   7.335   6.379  0.0519 -0.1990 -0.4578
39928W        W48728  11.361   3.610   6.381 -0.3795  0.1495  0.0264
39929W        W48729  10.453   5.292   2.883  0.1905  0.3103 -0.1029
39930W        W48730   2.534   7.443  23.808  0.0864 -0.1495  0.2189
39931W        W48731  19.052   5.978   5.576  0.0462 -0.0526  0.1231
39932W        W48732  21.582   5.895  27.892 -0.0465 -0.1326 -0.2728
39933W        W48733   6.520   4.936  17.444 -0.4384  0.0992  0.0859
39934W        W48734  24.571   4.410   8.420 -0.1961 -0.0676 -0.1297
39935W        W48735   3.528   5.865  24.860 -0.1036 -0.1960 -0.1236
39936W        W48736   7.031   1.700  27.371  0.3655 -0.0306  0.1087
39937W        W48737  20.283   4.433  26.635  0.0936  0.1762  0.4016
39938W        W48738  14.530   2.444   3.103 -0.2151  0.2270 -0.1035
39939W        W48739   2.872   6.105  30.062  0.0446 -0.1269  0.1083
39940W        W48740   4.324   5.076   4.523 -0.0391 -0.0314 -0.0410
39941W        W48741  13.018   0.933   8.985  0.1750 -0.1185 -0.2951
39942W        W48742   6.529   1.078   4.035  0.0457 -0.0366  0.0594
39943W        W48743  14.702   6.232  29.377 -0.2738  0.0432  0.0725
39944W        W48744  17.082   3.402  25.259 -0.1384 -0.2183 -0.0645
39945W        W48745   4.983   6.726  30.529  0.3222 -0.1098  0.0107
39946W        W48746  15.728   7.274  28.246  0.0826 -0.0082 -0.0791
39947W        W48747  19.276   3.872   9.160 -0.1406  0.1014 -0.2963
39948W        W48748   3.730   5.383   1.077  0.3813 -0.0546 -0.0317
39949W        W48749  19.902   2.977   1.682  0.2516 -0.2052  0.3525
39950W        W48750  23.366   5.796  29.699  0.0243  0.0737 -0.1877
39951W        W48751   6.045   0.053   6.787  0.0115 -0.2733 -0.0632
39952W        W48752   8.921   4.293  26.103 -0.1441 -0.2542 -0.1870
39953W        W48753   9.844   4.000  23.774  0.0095  0.0956 -0.3106
39954W        W48754  17.017   1.227  26.241  0.1885  0.2353 -0.1083
39955W        W48755   4.558   7.774   2.331  0.2047  0.3053  0.1840
39956W        W48756   4.594   5.652  24.708 -0.2398  0.2178 -0.1472
39957W        W48757   5.754   1.083   6.966  0.1230 -0.2312 -0.2560
39958W        W48758   0.269   7.741  25.547 -0.0043  0.0730  0.2465
39959W        W48759   6.661   3.580  15.280  0.1866 -0.1936 -0.2144
39960W        W48760   6.775   7.199  24.856 -0.1689  0.0383 -0.0080
39961W        W48761   1.394   6.192   1.602  0.0297  0.3701  0.0470
39962W        W48762  18.608   4.528  23.111 -0.1427  0.0194  0.2233
39963W        W48763  10.724   6.455   8.623  0.0253  0.1225 -0.0474
39964W        W48764   9.616   0.517   6.671  0.3419  0.0801 -0.1797
39965W        W48765   4.984   6.295  11.099 -0.1538 -0.1068 -0.0620
39966W        W48766   0.098   4.406  22.054  0.0986  0.1372 -0.0208
39967W        W48767  22.616   5.744   3.601  0.1107 -0.0168  0.0549
39968W        W48768  14.910   5.571  12.486  0.2080  0.1259 -0.2380
39969W        W48769   5.865   5.696   1.332 -0.1691  0.1628  0.0717
39970W        W48770  13.068   7.438   1.983 -0.5291 -0.3026 -0.0156
39971W        W48771  21.651   5.312  25.251  0.0971 -0.1905 -0.0397
39972W        W48772  18.862   5.085   6.072 -0.0064 -0.0606 -0.0757
39973W        W48773   4.412   4.137   9.818  0.2671  0.3276 -0.4105
39974W        W48774  16.341   4.634  30.555  0.0803  0.4554 -0.0558
39975W        W48775  21.964   6.947  30.563 -0.0993 -0.1905 -0.2427
39976W        W48776   7.436   2.189  15.793  0.1361 -0.1530 -0.3127
39977W        W48777   7.618   0.085  16.586  0.0676 -0.3212 -0.2813
39978W        W48778   4.869   3.785   9.761  0.0488  0.0894 -0.0400
39979W        W48779   8.966   4.922   0.140 -0.0151 -0.0514 -0.0660
39980W        W48780  11.865   3.576  16.672 -0.2038  0.0290 -0.0498
39981W        W48781   1.537   5.132  20.077 -0.0729 -0.1142 -0.1662
39982W        W48782  10.573   7.668  24.785  0.0858 -0.0271  0.0929
39983W        W48783  16.165   1.696  27.873 -0.0833  0.1224 -0.4040
39984W        W48784  22.190   0.350  28.091 -0.1792 -0.0586  0.2402
39985W        W48785  19.739   6.226   0.521 -0.2315 -0.0753  0.0663
39986W        W48786   1.969   1.452  26.744  0.0699 -0.1671  0.0376
39987W        W48787   0.920   7.693   2.241 -0.1457  0.1501 -0.0468
39988W        W48788  22.394   3.313  31.494  0.1658 -0.0423  0.2401
39989W        W48789  17.064   0.072  25.552 -0.2311  0.6043  0.1833
39990W        W48790  10.259   5.769   0.189 -0.1119 -0.0264  0.2425
39991W        W48791  18.745   1.133   8.390 -0.0774 -0.2033  0.0445
39992W        W48792  10.987   3.807  13.442 -0.1551 -0.1446  0.4130
39993W        W48793   4.177   1.679  22.522 -0.1202 -0.0833  0.0454
39994W        W48794   5.813   1.618  25.960  0.2841 -0.2768  0.1236
39995W        W48795   8.605   1.195  23.920  0.2009 -0.4528  0.1439
39996W        W48796   0.987   5.282  19.967  0.0779  0.1200 -0.2841
39997W        W48797  14.058   3.503  23.420 -0.0975  0.0632  0.2203
39998W        W48798  18.301   3.580  24.857  0.1002 -0.1311  0.1481
39999W        W48799  18.771   3.008   3.668 -0.0672 -0.3370 -0.0532
40000W        W48800   6.258   2.270  12.806  0.0890 -0.0905 -0.0507
40001W        W48801  11.215   4.078   5.110 -0.1801  0.0533  0.0931
40002W        W48802  19.660   4.003  29.260  0.0708 -0.1674  0.2211
40003W        W48803  17.982   1.903   0.028  0.1752 -0.0926 -0.0462
40004W        W48804   3.085   1.463  23.667 -0.2134  0.0684 -0.1114
40005W        W48805  24.442   2.430   4.374 -0.0553 -0.0539  0.0787
40006W        W48806  17.050   7.204  27.860  0.0977 -0.0657  0.3132
40007W        W48807  23.672   4.782  32.050 -0.0729 -0.0946  0.0133
40008W        W48808  23.731   7.458  29.611  0.0536  0.2362  0.0193
40009W        W48809  16.622   7.131  30.014  0.0929 -0.0099  0.1343
40010W        W48810   5.438   4.747  27.283  0.0928 -0.1675 -0.2500
40011W        W48811   1.680   2.453   7.242 -0.1636  0.0591  0.1263
40012W        W48812  18.496   7.151   3.142 -0.0940 -0.1462 -0.1972
40013W        W48813   5.583   6.468  14.621 -0.1496  0.0009  0.0803
40014W        W48814  18.688   4.795  22.208  0.0820 -0.2950  0.0607
40015W        W48815   9.748   5.538   8.189  0.0757 -0.0939 -0.1609
40016W        W48816  19.161   3.615  14.618  0.0609 -0.0518 -0.1033
40017W        W48817  19.864   2.696  30.984  0.2756  0.2443  0.1174
40018W        W48818   6.631   6.105  30.749 -0.0060  0.0220 -0.1718
40019W        W48819   4.361   0.619   2.282  0.1405 -0.2198 -0.3594
40020W        W48820  13.960   2.215   5.274  0.0796 -0.1178  0.1941
40021W        W48821  20.747   5.595  31.406  0.4899  0.1710  0.2538
40022W        W48822  22.772   3.395  23.936 -0.0351  0.0490 -0.0332
40023W        W48823  19.104   3.813  30.062 -0.1682 -0.4285 -0.0151
40024W        W48824  21.518   3.902  19.509  0.1083 -0.1874 -0.0432
40025W        W48825  21.584   4.557  17.683 -0.2080 -0.0081  0.0578
40026W        W48826  17.033   2.673  32.256  0.2768 -0.1776 -0.0992
40027W        W48827   9.135   3.335  28.840 -0.1753 -0.1915 -0.0344
40028W        W48828   7.724   3.870  24.835  0.1416 -0.2945 -0.0061
40029W        W48829   3.395   7.280  27.179 -0.2358  0.0181  0.0603
40030W        W48830  16.905   0.211  32.012  0.0980  0.0451 -0.0564
40031W        W48831  19.197   2.792  16.310  0.1281 -0.0165  0.0786
40032W        W48832  23.171   3.890  23.060 -0.0631  0.4169 -0.0958
40033W        W48833  21.537   0.545   8.905 -0.1276 -0.0519 -0.1200
40034W        W48834  21.261   0.259  21.508 -0.1093  0.1348  0.0151
40035W        W48835   3.223   2.722   4.156  0.2705 -0.1979 -0.0859
40036W        W48836   9.384   0.915  32.576 -0.2958  0.0876  0.1189
40037W        W48837  22.264   2.654  15.355 -0.0429  0.1883  0.0788
40038W        W48838  22.005   3.181  30.551  0.0682 -0.1052  0.0049
40039W        W48839   2.284   0.416  30.493 -0.0682 -0.1122 -0.0424
40040W        W48840   5.110   1.387   9.263 -0.1781  0.1085 -0.2427
40041W        W48841   5.839   5.084  28.007 -0.0080  0.0960 -0.0882
40042W        W48842  15.198   0.183   1.316 -0.1790 -0.0051 -0.3607
40043W        W48843  12.683   2.471   6.706  0.0488  0.0394 -0.0043
40044W        W48844  11.415   3.720  26.475  0.2431 -0.1143  0.1784
40045W        W48845  14.371   2.687  24.851  0.0167 -0.2746  0.1887
40046W        W48846  10.446   6.344  23.567  0.0378 -0.0328 -0.0617
40047W        W48847   9.592   4.998  28.912 -0.1533 -0.0257 -0.0662
40048W        W48848  14.917   1.839   2.103 -0.1774  0.1680  0.2599
40049W        W48849  21.590   2.884  22.020  0.1161  0.0578 -0.0839
40050W        W48850   3.384   1.091  27.765 -0.0823  0.1934  0.0553
40051W        W48851  20.139   0.469   1.352 -0.2021 -0.3299 -0.2115
40052W        W48852  12.575   0.344   0.949 -0.0322 -0.2679  0.1323
40053W        W48853  15.970   4.187  21.447 -0.0241  0.0365 -0.2010
40054W        W48854  12.764   1.873  22.821 -0.2405 -0.1648  0.1535
40055W        W48855   7.881   5.421  30.586 -0.0921  0.0642 -0.1328
40056W        W48856   2.052   0.592   3.557  0.1542 -0.0294  0.2061
40057W        W48857  10.394   4.848  15.482 -0.1801  0.0795  0.1557
40058W        W48858   7.229   1.158  22.120 -0.1017  0.1763  0.2607
40059W        W48859   3.044   2.158  27.735 -0.0591 -0.0931 -0.4073
40060W        W48860   0.607   7.008  11.486 -0.1032 -0.3314  0.1162
40061W        W48861  16.558   1.032   5.987 -0.1278  0.0170 -0.1036
40062W        W48862  15.910   6.195  27.820  0.2798  0.1808 -0.0258
40063W        W48863  17.861   1.605  32.275 -0.2367 -0.3473  0.0849
40064W        W48864  22.168   6.585   1.683 -0.5060  0.1338 -0.0196
40065W        W48865   8.994   6.140   5.669  0.0149  0.1184  0.0879
40066W        W48866  15.122   0.329   5.062  0.0134 -0.3645 -0.3148
40067W        W48867  23.342   5.121  21.469 -0.0620  0.0044 -0.1952
40068W        W48868   2.357   2.561  11.024 -0.1449 -0.1909 -0.2747
40069W        W48869   0.023   5.177   2.780  0.0598  0.2118 -0.0423
40070W        W48870   9.275   6.951  32.203  0.2026  0.2179  0.0511
40071W        W48871  14.489   4.817   4.569  0.0791 -0.1208  0.0643
40072W        W48872  15.177   6.040   0.395 -0.0950 -0.1214  0.0793
40073W        W48873   4.639   6.697  11.090  0.0876 -0.1554 -0.0560
40074W        W48874  13.289   2.627  11.556  0.2775  0.0416  0.0841
40075W        W48875  24.829   4.136  27.886 -0.0207 -0.3087  0.1484
40076W        W48876   9.861   1.545  23.839  0.1736 -0.1087  0.0493
40077W        W48877  11.641   4.025  26.103  0.1707 -0.0324 -0.0772
40078W        W48878   9.101   3.587   5.935  0.0745 -0.1859 -0.0842
40079W        W48879   6.011   3.137  10.477 -0.0330 -0.0741 -0.2778
40080W        W48880  20.995   2.185   5.539  0.0053 -0.2041 -0.1822
40081W        W48881  16.186   4.890  19.096 -0.1823 -0.0829 -0.0996
40082W        W48882  14.991   3.821  20.072  0.0965  0.0345  0.1031
40083W        W48883  17.407   5.664  31.893 -0.1043  0.1940 -0.1200
40084W        W48884  10.771   7.043  12.986 -0.2432 -0.2138  0.0533
40085W        W48885  14.833   0.295   6.016 -0.0742  0.2155  0.0433
40086W        W48886  13.719   1.357  27.631 -0.0696  0.0691  0.0013
40087W        W48887  20.396   3.311  29.393 -0.0570 -0.3863 -0.4295
40088W        W48888  22.025   0.789  22.493  0.1256  0.3276  0.0122
40089W        W48889   3.604   0.203  25.496  0.1839 -0.0173 -0.1055
40090W        W48890   2.309   3.010   3.229 -0.1349  0.0319 -0.2714
40091W        W48891  17.098   3.565  24.446  0.1672  0.0440 -0.3608
40092W        W48892  14.922   5.331  22.710  0.1622  0.0460 -0.0211
40093W        W48893  18.727   1.961  20.642  0.1285  0.2691 -0.1448
40094W        W48894   1.663   0.109   6.642 -0.2022  0.0455 -0.0326
40095W        W48895  17.571   2.469  22.220 -0.1165 -0.1487  0.1706
40096W        W48896  21.048   0.377  10.551  0.0025  0.2647  0.1685
40097W        W48897  11.648   4.011   8.290  0.2442 -0.1640 -0.1521
40098W        W48898   8.952   3.492  25.867 -0.0121  0.1536  0.1899
40099W        W48899   8.843   6.714  17.338  0.0870 -0.3580 -0.0503
40100W        W48900  12.394   3.449  30.347 -0.0620 -0.1181  0.2208
40101W        W48901  21.846   0.695   8.360 -0.0004  0.0911  0.1030
40102W        W48902   5.977   4.459  32.572 -0.1574  0.0509 -0.1569
40103W        W48903   5.833   0.087   0.369  0.0813 -0.0874  0.1040
40104W        W48904   3.384   7.155  12.329 -0.0934  0.2588 -0.0569
40105W        W48905  19.716   6.487   5.263 -0.1042 -0.2832  0.2109
40106W        W48906   9.109   3.774  23.267  0.2220  0.2523 -0.1028
40107W        W48907   2.804   3.014  22.290 -0.1876  0.0912  0.0828
40108W        W48908  10.535   4.714  30.337 -0.0427 -0.3221 -0.3044
40109W        W48909  16.955   3.931  24.811 -0.1634  0.0565 -0.1726
40110W        W48910   7.337   0.358   3.167  0.2492 -0.2981 -0.2320
40111W        W48911  11.620   3.510  23.072  0.0227  0.0740 -0.1367
40112W        W48912   3.495   0.019  13.600 -0.0133 -0.0603  0.1317
40113W        W48913  22.544   6.802   5.035  0.0206 -0.3095 -0.2354
40114W        W48914   5.733   3.228   3.737  0.1517  0.0580  0.0385
40115W        W48915   7.291   6.816  30.164 -0.1571  0.0262 -0.0948
40116W        W48916  15.822   5.475  10.190 -0.0417 -0.2040 -0.0339
40117W        W48917  13.904   5.740  26.530 -0.1566 -0.0933  0.2430
40118W        W48918   2.086   6.072   9.424 -0.1746 -0.0615 -0.1647
40119W        W48919  19.483   7.053  10.089 -0.0095 -0.2697 -0.2817
40120W        W48920  23.296   0.264  23.018 -0.0557  0.1077 -0.1387
40121W        W48921   4.942   3.584  30.786  0.1377 -0.1009  0.0900
40122W        W48922  23.770   3.160   1.003 -0.0680 -0.0032  0.2850
40123W        W48923  10.253   2.512  15.044 -0.2050  0.0401 -0.0681
40124W        W48924   5.786   7.790  25.990  0.2719  0.1184  0.1117
40125W        W48925  18.285   7.808  20.688  0.2697 -0.3156  0.0403
40126W        W48926   7.389   7.645  31.900 -0.1555 -0.2758 -0.2806
40127W        W48927   1.155   2.641  29.040  0.0751  0.3173 -0.0643
40128W        W48928   7.189   6.311  14.150 -0.1166 -0.0698 -0.3730
40129W        W48929  14.164   4.464  31.604 -0.0955  0.1919  0.1267
40130W        W48930  23.965   0.572  21.985 -0.0302 -0.1429  0.0107
40131W        W48931  18.332   3.828  16.337 -0.1524 -0.1137 -0.1957
40132W        W48932   8.533   2.524  23.306 -0.0284 -0.1354  0.0048
40133W        W48933  16.900   6.122   2.423 -0.0623  0.0507  0.0013
40134W        W48934  17.565   2.120  19.589  0.1355 -0.0039  0.2561
40135W        W48935  22.937   2.320  28.634 -0.1040  0.1185 -0.1841
40136W        W48936   0.019   2.873   9.804 -0.1772  0.0976  0.1273
40137W        W48937  19.917   0.278  15.840  0.1589  0.2314 -0.1126
40138W        W48938   1.829   0.201  19.980 -0.2190 -0.2135  0.2178
40139W        W48939   0.824   1.537   2.127 -0.0178  0.2510 -0.0882
40140W        W48940  24.503   4.962   8.731 -0.1455 -0.0579 -0.0831
40141W        W48941   2.279   6.377   8.725  0.1161  0.1406 -0.2374
40142W        W48942  23.424   5.964  21.520 -0.0049  0.0418  0.0238
40143W        W48943  11.389   7.535  27.657 -0.0371  0.0716  0.0555
40144W        W48944   0.777   2.255  19.929  0.0358 -0.0508 -0.1811
40145W        W48945  24.903   4.250   1.225  0.2800 -0.0017  0.1928
40146W        W48946   8.926   3.994   1.457  0.0527  0.3042 -0.0775
40147W        W48947   0.668   5.531  27.291  0.1468  0.0451  0.3245
40148W        W48948   5.965   0.140   8.000 -0.0420 -0.3834 -0.1704
40149W        W48949   6.242   2.770  32.601  0.4538 -0.2475  0.0640
40150W        W48950  19.629   5.301   1.449  0.0580 -0.0370  0.0161
40151W        W48951   5.341   1.683  21.882 -0.0707 -0.0876  0.1014
40152W        W48952   1.228   6.282   7.983 -0.0146  0.1787  0.1995
40153W        W48953   6.677   3.251   4.914  0.1248  0.0671 -0.0916
40154W        W48954   1.053   2.134  22.622 -0.0668 -0.0739 -0.0300
40155W        W48955  19.201   6.043   2.446  0.1313 -0.0525 -0.1476
40156W        W48956   4.230   3.323  24.254  0.1253  0.1158  0.0016
40157W        W48957  24.225   0.114   2.911  0.0305  0.1184 -0.2941
40158W        W48958  19.612   0.369  32.159 -0.1613 -0.0791 -0.0025
40159W        W48959  11.237   2.926   9.410 -0.0734  0.1366  0.0920
40160W        W48960  11.198   2.051  32.341 -0.0748 -0.0231 -0.1928
40161W        W48961   8.133   0.996  11.984 -0.0994  0.0668 -0.0055
40162W        W48962   7.899   3.933  16.009  0.2228 -0.0867 -0.1170
40163W        W48963  23.259   5.721   6.300 -0.0938  0.0043 -0.2092
40164W        W48964   4.264   7.307   4.947 -0.0819 -0.1559 -0.0199
40165W        W48965  15.779   4.819  24.325 -0.2939  0.3320  0.1989
40166W        W48966   5.134   0.627  30.649 -0.1009 -0.0108 -0.1603
40167W        W48967  12.321   0.482   8.576  0.3139 -0.0102  0.1807
40168W        W48968  23.386   7.618  19.496  0.0900 -0.2059 -0.1425
40169W        W48969  18.198   1.447  22.140 -0.2348  0.1047 -0.3046
40170W        W48970  15.979   0.164   5.446 -0.1458 -0.1237  0.0939
40171W        W48971  17.409   1.755  30.510 -0.2500 -0.3120  0.1246
40172W        W48972   3.198   2.956   1.943 -0.0857 -0.1657 -0.0158
40173W        W48973  21.055   7.772   2.079  0.1731  0.1452  0.1241
40174W        W48974  16.823   3.443   7.663 -0.1514 -0.0479 -0.1158
40175W        W48975  15.623   3.495   0.259  0.0802 -0.0364 -0.0370
40176W        W48976   4.014   7.798   3.160  0.2340 -0.0976 -0.4886
40177W        W48977  19.735   2.767  23.103  0.1945  0.1066  0.0631
40178W        W48978   4.091   4.683   8.715 -0.0810  0.0001 -0.0391
40179W        W48979  24.866   3.917  19.995 -0.1866 -0.0366 -0.0564
40180W        W48980   1.904   3.186   9.265 -0.1453  0.2043  0.2755
40181W        W48981  17.836   0.064  20.407  0.1587  0.2865  0.2821
40182W        W48982  20.415   1.781  31.204 -0.0843 -0.1090 -0.1146
40183W        W48983  10.623   0.633   8.079 -0.1937  0.1244  0.2068
40184W        W48984  22.373   2.156  21.218  0.3396 -0.0307 -0.0637
40185W        W48985   9.770   5.098   3.311 -0.1427  0.2168 -0.0635
40186W        W48986   8.232   4.032   9.357 -0.3091  0.1643 -0.1498
40187W        W48987   6.507   3.805  30.179  0.2917 -0.0038 -0.0642
40188W        W48988  15.823   3.661  23.961  0.0880  0.0102  0.1025
40189W        W48989   8.649   0.520   2.310  0.0253  0.0066 -0.0955
40190W        W48990  24.152   4.319  20.102 -0.2004  0.2451 -0.0393
40191W        W48991   0.041   0.503  26.098 -0.1431 -0.2626  0.2740
40192W        W48992  11.502   5.639  23.632  0.2002  0.2353  0.1700
40193W        W48993  11.890   0.035   5.346  0.2343 -0.2530  0.2387
40194W        W48994  20.292   0.069  28.487  0.1690  0.3259 -0.1639
40195W        W48995  16.743   2.135  24.695  0.0234  0.0009 -0.0441
40196W        W48996  14.722   7.503   8.001  0.0117  0.1732 -0.1486
40197W        W48997  10.842   1.689  17.023 -0.1385  0.0307 -0.2174
40198W        W48998  23.543   0.809  22.223  0.0789  0.1092  0.0570
40199W        W48999   0.581   0.845  17.761 -0.3513 -0.0874 -0.0426
40200W        W49000   2.133   5.896   3.651  0.0855 -0.0105  0.0884
40201W        W49001   8.198   0.605   5.350  0.1672 -0.1809  0.1242
40202W        W49002   5.733   0.992  32.670  0.0334 -0.3515 -0.1639
40203W        W49003   4.551   3.859  22.973 -0.4390  0.1876  0.2181
40204W        W49004   4.186   2.533  30.410  0.1338 -0.4681  0.0924
40205W        W49005   8.682   3.781  14.558  0.1436  0.2089 -0.1701
40206W        W49006  10.987   1.388  29.130  0.2501 -0.2354 -0.1712
40207W        W49007  17.410   1.195  18.376 -0.2097 -0.3548  0.1233
40208W        W49008   0.619   3.415  17.006  0.1829 -0.0656  0.0286
40209W        W49009   7.584   6.307  11.077  0.4291  0.1405 -0.1159
40210W        W49010   9.809   4.630  13.788 -0.2516 -0.1237  0.3751
40211W        W49011  23.686   5.057   9.000 -0.3601 -0.1354  0.0148
40212W        W49012  14.639   3.368  11.118 -0.0481 -0.2625  0.2454
40213W        W49013  22.295   6.251  24.203  0.0265 -0.0697 -0.3207
40214W        W49014   7.020   2.001   6.086 -0.1102  0.0725  0.1572
40215W        W49015  19.929   7.283  14.250 -0.0883 -0.1170 -0.2629
40216W        W49016   8.589   5.337   6.275 -0.0052  0.1936  0.1097
40217W        W49017   5.532   2.520   0.352 -0.0323  0.1371 -0.0112
40218W        W49018  22.095   0.645  24.209  0.0089 -0.2451  0.1682
40219W        W49019  14.932   4.375  31.091 -0.1683 -0.0946 -0.2612
40220W        W49020   2.149   5.133  10.463 -0.0585 -0.3282 -0.0732
40221W        W49021  10.816   5.509  22.803 -0.1825  0.2994 -0.3053
40222W        W49022   1.872   2.037   4.994 -0.2294 -0.0961  0.2980
40223W        W49023   7.998   1.822   8.186  0.0985  0.0853 -0.0234
40224W        W49024  22.726   6.709  23.425  0.0148 -0.1487 -0.1016
40225W        W49025   4.367   6.554  29.185 -0.1005  0.0553 -0.3610
40226W        W49026  10.893   6.553   0.585  0.0037  0.1101 -0.1598
40227W        W49027   4.319   3.768   6.968 -0.0976 -0.1650 -0.0749
40228W        W49028  10.445   2.885   4.403  0.0443 -0.0158  0.0869
40229W        W49029   1.275   7.117  23.575  0.1076  0.1572  0.0291
40230W        W49030  14.716   6.435  12.558 -0.1022  0.2409  0.1131
40231W        W49031  18.790   5.065   9.478  0.0069  0.1651  0.0783
40232W        W49032   7.318   2.879   7.857 -0.2033  0.2719 -0.1155
40233W        W49033  10.017   6.895  12.319 -0.0855  0.0171  0.2021
40234W        W49034  24.386   0.455  21.737 -0.3236  0.1148 -0.1296
40235W        W49035   0.212   7.326  21.634 -0.1017 -0.0597 -0.0971
40236W        W49036   7.268   0.356  14.633 -0.0535  0.2304  0.2966
40237W        W49037   6.306   7.266   1.295 -0.0895  0.2336 -0.2111
40238W        W49038  22.026   1.276  20.660 -0.0371 -0.1814 -0.3236
40239W        W49039   5.348   5.526  26.667  0.1573  0.1065 -0.2079
40240W        W49040   7.935   0.694   8.827 -0.2826 -0.1842 -0.1391
40241W        W49041  20.767   3.926  28.160  0.1929  0.0077  0.2236
40242W        W49042  15.355   1.373  26.736  0.0275  0.2768 -0.0244
40243W        W49043  14.899   4.587  27.343 -0.1734 -0.1988  0.0883
40244W        W49044  23.186   5.835   8.507 -0.1179 -0.2891  0.0325
40245W        W49045  16.312   1.577   0.292  0.2965  0.0934  0.0904
40246W        W49046   7.801   2.972   2.958  0.1129  0.1281  0.3056
40247W        W49047   3.441   2.745   5.456 -0.0403 -0.0324  0.0527
40248W        W49048   6.293   5.602  28.059 -0.1454  0.2361  0.1664
40249W        W49049   2.594   2.686   9.185  0.3849 -0.2160 -0.2581
40250W        W49050  23.357   2.598  16.602  0.0048 -0.3630 -0.2033
40251W        W49051   2.179   3.403  24.915 -0.1959 -0.2267 -0.2414
40252W        W49052  23.523   2.849  31.977 -0.1791 -0.1714 -0.1973
40253W        W49053  15.709   4.762  30.158 -0.1302 -0.0296 -0.0099
40254W        W49054   4.715   2.510   9.382 -0.2191 -0.2149 -0.3533
40255W        W49055  22.482   1.399  32.300  0.1152  0.0831  0.2448
40256W        W49056  15.622   0.256  25.642  0.2901 -0.0908 -0.0174
40257W        W49057  20.248   4.718   6.761 -0.0498 -0.3225 -0.0761
40258W        W49058  13.798   5.387  27.687  0.0099  0.1575  0.0794
40259W        W49059  10.514   1.028   0.462 -0.2233 -0.2217 -0.2349
40260W        W49060  24.924   7.420   1.175 -0.0517  0.2929 -0.1807
40261W        W49061  13.535   3.238   9.126 -0.2443  0.0767  0.2127
40262W        W49062  16.769   7.111  29.533 -0.0846  0.0663  0.1001
40263W        W49063  13.246   7.191  25.344  0.0636  0.0136 -0.1494
40264W        W49064  15.054   1.132   9.044 -0.0212  0.1532 -0.2221
40265W        W49065   4.329   1.261  27.240  0.1166 -0.1632 -0.1181
40266W        W49066   2.231   1.177  11.660  0.2175 -0.2293 -0.0776
40267W        W49067  23.057   1.072  15.017  0.1243 -0.0362 -0.3374
40268W        W49068  18.195   4.058   0.785  0.0087 -0.0321  0.1366
40269W        W49069   5.208   6.654   6.155 -0.2943  0.1213  0.0004
40270W        W49070  12.743   6.806   5.329 -0.0024 -0.1314  0.1645
40271W        W49071  18.845   2.823  26.880  0.0052 -0.0761 -0.1613
40272W        W49072   5.534   7.080  29.648  0.1912 -0.2990  0.0753
40273W        W49073  16.841   3.025  32.675  0.2934  0.1306  0.0735
40274W        W49074  10.471   2.480  29.019 -0.0340 -0.0574 -0.0610
40275W        W49075  22.251   3.130   4.710 -0.4294  0.6592  0.1499
40276W        W49076  10.890   2.755  13.844 -0.0524 -0.1844 -0.0628
40277W        W49077   0.832   1.341  27.456  0.0528 -0.3267 -0.2135
40278W        W49078   4.781   5.274   4.450  0.1848  0.3185 -0.0738
40279W        W49079  24.502   5.108   3.913 -0.0260  0.0308 -0.1694
40280W        W49080  11.031   0.651   1.971 -0.1177 -0.1771  0.0030
40281W        W49081   6.433   0.637  24.840  0.1305 -0.0662 -0.1926
40282W        W49082  21.470   4.532   8.194 -0.0400  0.0676  0.0715
40283W        W49083   7.887   2.302  15.015  0.3680  0.0711 -0.0625
40284W        W49084   6.911   0.709  14.582  0.5727 -0.1007  0.1921
40285W        W49085   0.606   4.797  29.344  0.0076  0.2538 -0.0387
40286W        W49086  12.576   1.464  31.535  0.2547 -0.3688 -0.1277
40287W        W49087  18.997   7.465  16.921  0.1355 -0.1002 -0.0541
40288W        W49088  17.261   1.409  25.756 -0.0544  0.1744 -0.0370
40289W        W49089  23.459   6.897   7.947  0.1326 -0.1238  0.0161
40290W        W49090   1.345   6.752   2.176 -0.2935  0.0062 -0.2145
40291W        W49091   7.953   7.804  15.622  0.0512  0.0635  0.3151
40292W        W49092   8.801   3.939   1.888  0.0559  0.0915 -0.2262
40293W        W49093   9.958   2.841  15.509 -0.0018 -0.1891  0.0905
40294W        W49094  22.380   0.956  17.022 -0.1129 -0.1786 -0.0176
40295W        W49095  20.175   0.462  10.720 -0.0123  0.2361 -0.1564
40296W        W49096  24.232   0.582   5.172 -0.0293 -0.2143  0.0863
40297W        W49097  19.166   2.196   2.720 -0.1116  0.0492  0.3623
40298W        W49098   9.027   3.555  25.214  0.1987 -0.2599  0.0095
40299W        W49099   4.024   3.803  22.977  0.1552 -0.3076 -0.0126
40300W        W49100  11.158   0.702   6.757 -0.1112 -0.0034 -0.0242
40301W        W49101  18.096   2.799  23.545  0.1389  0.0366 -0.1757
40302W        W49102  10.693   6.053  17.051  0.2070 -0.0171  0.0705
40303W        W49103   0.713   6.900  31.718  0.4100 -0.3095  0.1158
40304W        W49104  16.315   4.426  18.683 -0.3961 -0.2541  0.3919
40305W        W49105  12.118   2.449  28.820 -0.0496  0.3248  0.0947
40306W        W49106   5.567   4.310  16.395  0.2281 -0.2691 -0.1641
40307W        W49107  24.956   4.603  18.917  0.2481  0.0306 -0.0044
40308W        W49108   9.898   0.021   3.140  0.1742 -0.0993  0.1402
40309W        W49109  22.202   1.913   5.027 -0.0189  0.0247 -0.1129
40310W        W49110   4.863   2.644   1.587  0.1676 -0.0234 -0.0283
40311W        W49111   6.089   4.900  15.394  0.0497  0.3781 -0.3857
40312W        W49112  21.419   5.748  27.339 -0.3493  0.1916 -0.1489
40313W        W49113  10.638   4.605  18.470  0.0242  0.3728 -0.3553
40314W        W49114   3.388   2.765  31.720 -0.0265 -0.1255 -0.0126
40315W        W49115  13.257   7.253   9.285 -0.1004  0.1180  0.0189
40316W        W49116  20.778   7.799   0.655 -0.0255 -0.0411  0.0451
40317W        W49117   8.012   5.192  17.137 -0.0815  0.2006 -0.2705
40318W        W49118   5.931   5.667  31.135  0.2045 -0.0654  0.1094
40319W        W49119  23.729   1.775  26.396  0.0866 -0.0776  0.0667
40320W        W49120  18.497   6.571  26.328 -0.1028  0.0427 -0.0073
40321W        W49121  11.346   6.737  29.488 -0.2470 -0.1448  0.3934
40322W        W49122  11.447   7.255  29.314 -0.2584  0.1277  0.0483
40323W        W49123   6.073   2.965  13.598  0.0312 -0.0975  0.0235
40324W        W49124   4.558   3.425  29.607 -0.3036 -0.0079  0.1091
40325W        W49125  18.448   6.987  23.556  0.2412 -0.1176  0.0903
40326W        W49126   2.174   1.706  28.559 -0.1459 -0.2868  0.1910
40327W        W49127   7.615   1.549  17.621 -0.2177 -0.4139 -0.1420
40328W        W49128   9.624   5.543  26.464  0.1126 -0.1785  0.0333
40329W        W49129   0.640   7.145   0.849  0.0279 -0.1626 -0.0861
40330W        W49130   0.471   1.458  27.838  0.2606  0.0512  0.0238
40331W        W49131   1.225   4.327  31.111 -0.0788 -0.0077 -0.0466
40332W        W49132   2.624   3.003  11.367  0.3185  0.1071 -0.2757
40333W        W49133  24.015   3.420   9.268  0.3494  0.1140  0.1974
40334W        W49134   0.996   3.277  29.881 -0.0869 -0.1349  0.5536
40335W        W49135   0.472   7.074   3.958  0.0612 -0.0867 -0.0561
40336W        W49136  11.182   3.716   8.354  0.2674 -0.0176 -0.1034
40337W        W49137  21.558   3.652  27.912  0.1513 -0.2390 -0.0362
40338W        W49138  18.952   0.141  23.003 -0.2813  0.1338  0.0406
40339W        W49139   9.149   7.617  25.848 -0.3528 -0.6208  0.0805
40340W        W49140  10.947   7.320  30.095  0.1007  0.1243  0.1209
40341W        W49141  12.039   4.628  28.280 -0.3548  0.0675 -0.1565
40342W        W49142  23.625   4.219  22.843 -0.0967 -0.0291  0.0567
40343W        W49143  13.334   0.362  10.553  0.0006 -0.1634  0.2666
40344W        W49144  24.741   3.453   5.596 -0.3260  0.1028 -0.0170
40345W        W49145  11.081   0.153  31.413 -0.3199 -0.0346  0.2391
40346W        W49146  15.193   5.422  18.399  0.1668  0.0176  0.0677
40347W        W49147  12.302   3.821   8.919  0.1703 -0.0519  0.0790
40348W        W49148   6.986   7.081  27.097 -0.1727  0.1741  0.0885
40349W        W49149   8.720   3.144  28.949  0.0118 -0.2150  0.1258
40350W        W49150  18.160   3.957   1.811 -0.0797  0.1539  0.0711
40351W        W49151   6.859   3.412   6.578 -0.1396 -0.0764  0.0488
40352W        W49152   4.836   1.986  29.824  0.2136 -0.1237 -0.0037
40353W        W49153  12.445   1.114   6.964 -0.0972  0.0540  0.1022
40354W        W49154  13.511   2.654  12.128  0.1433 -0.2248  0.0050
40355W        W49155   0.911   4.302  21.794 -0.0512 -0.0850 -0.0272
40356W        W49156  16.074   0.822   4.733  0.3063 -0.0901 -0.0098
40357W        W49157   8.599   1.117  16.990  0.1257 -0.1193  0.0090
40358W        W49158  16.186   1.617  26.491  0.1486 -0.1638 -0.1641
40359W        W49159  18.731   6.699  20.017 -0.2038 -0.0140  0.0612
40360W        W49160  11.626   7.566  16.091  0.2087  0.1132  0.0966
40361W        W49161   1.187   4.081   4.638  0.0182 -0.0767  0.0148
40362W        W49162  19.908   5.984  22.165 -0.0659 -0.1528  0.2435
40363W        W49163   3.082   0.894   4.301  0.1574 -0.1950 -0.4317
40364W        W49164  20.070   5.380  14.191  0.0743 -0.0454 -0.1951
40365W        W49165  16.104   2.603  32.533 -0.0707 -0.2573  0.1212
40366W        W49166   7.517   4.360   1.829  0.1550 -0.0498 -0.0335
40367W        W49167  23.961   3.612  29.065  0.1638  0.0697 -0.0368
40368W        W49168  21.406   6.355  15.823  0.0822  0.0338  0.3400
40369W        W49169   5.916   7.504  28.550  0.3690 -0.0881  0.4503
40370W        W49170   6.568   7.362  30.772 -0.2555  0.1708  0.4728
40371W        W49171   9.478   6.218  12.510  0.1212 -0.1482 -0.3556
40372W        W49172   8.341   6.237   0.672  0.1006  0.1751 -0.1269
40373W        W49173  19.322   3.723  19.367 -0.0197  0.1358 -0.4037
40374W        W49174  21.874   2.467   7.438  0.2725  0.0047 -0.0381
40375W        W49175   3.641   0.041   9.555 -0.1815  0.1525  0.1701
40376W        W49176  10.345   3.062  23.192 -0.0237  0.1549 -0.3730
40377W        W49177  13.756   6.987  12.299 -0.0674 -0.1429  0.0800
40378W        W49178   7.522   5.875  28.369  0.0620  0.1474 -0.1606
40379W        W49179   9.435   4.954  31.106  0.0644  0.0611  0.2753
40380W        W49180  12.118   2.780  26.970 -0.0393 -0.1263 -0.0895
40381W        W49181   3.660   2.123  12.033  0.1046  0.0445 -0.3485
40382W        W49182   0.657   0.940  28.694 -0.0451 -0.1376 -0.0567
40383W        W49183   8.714   4.384  13.014 -0.0018 -0.0307 -0.2264
40384W        W49184  16.527   5.497  10.824  0.1072 -0.1434 -0.2587
40385W        W49185  24.268   2.954   3.609 -0.0612  0.0420 -0.1472
40386W        W49186  16.360   4.868   0.258  0.0591 -0.0760 -0.0388
40387W        W49187   1.622   1.362   7.250 -0.0548  0.1434 -0.1927
40388W        W49188  24.538   0.576  29.151  0.1813 -0.1647 -0.4334
40389W        W49189  20.619   2.193  16.183 -0.0032 -0.2532 -0.0616
40390W        W49190  14.316   5.277  27.782  0.0571 -0.1208 -0.0401
40391W        W49191  15.928   1.257   9.505 -0.0912  0.3852 -0.1815
40392W        W49192  15.400   5.148   4.350 -0.0991 -0.1748  0.0357
40393W        W49193   6.094   7.316  15.486  0.1539  0.3177  0.0134
40394W        W49194  15.298   5.631   6.323  0.2187  0.0191  0.0700
40395W        W49195   6.097   3.735   8.593  0.0893  0.2147  0.2242
40396W        W49196  15.933   6.280   9.990 -0.0302  0.1025 -0.1727
40397W        W49197  20.438   6.259   5.419  0.1198 -0.0120 -0.1982
40398W        W49198  13.271   2.196   8.354  0.0922  0.1894 -0.1188
40399W        W49199   0.058   0.109  25.113  0.0559  0.3298  0.0199
40400W        W49200  24.021   4.067  28.245 -0.0625  0.1567 -0.1481
40401W        W49201  10.520   1.394  16.841 -0.1833 -0.0126  0.3151
40402W        W49202  17.284   3.785   5.834  0.0381  0.2211  0.1415
40403W        W49203  21.579   5.888  29.138  0.0881  0.0114  0.1104
40404W        W49204  20.184   5.030   5.772 -0.2516 -0.2002 -0.0757
40405W        W49205   5.885   3.242  29.709  0.0166 -0.1260 -0.1240
40406W        W49206  14.809   2.385   5.346  0.1725 -0.1904 -0.3241
40407W        W49207   7.671   1.557  18.105 -0.1947  0.4084  0.1102
40408W        W49208  17.157   0.994   9.969 -0.1616  0.0336 -0.0513
40409W        W49209  23.086   3.790  26.372 -0.0429  0.3052 -0.1075
40410W        W49210  22.957   4.254   9.275  0.1667  0.2073  0.2139
40411W        W49211  22.774   5.221   7.788  0.0271  0.0358  0.0323
40412W        W49212  20.450   0.329  29.799 -0.0344 -0.1142  0.2423
40413W        W49213   0.523   7.576  30.244  0.2728 -0.2459  0.0778
40414W        W49214  19.076   0.340   1.192  0.1700  0.2820  0.3592
40415W        W49215  18.739   4.131  18.284 -0.0530 -0.0821 -0.1148
40416W        W49216   9.016   2.764   7.945  0.1478 -0.1135  0.2581
40417W        W49217  18.943   4.748  29.233  0.1590  0.1456 -0.0276
40418W        W49218   4.311   7.328  26.050 -0.1044 -0.2917 -0.4163
40419W        W49219   5.508   6.450  24.553  0.0540  0.0511  0.1273
40420W        W49220   8.235   3.113  16.890  0.0346  0.0363  0.0942
40421W        W49221   3.042   1.376  10.493 -0.1240 -0.2479 -0.0541
40422W        W49222  22.514   7.155  15.514 -0.4419 -0.0826  0.0945
40423W        W49223  15.429   4.718   4.099  0.0061  0.2506  0.1213
40424W        W49224   2.810   2.771  24.763  0.2029  0.3122 -0.3325
40425W        W49225   7.140   3.482  26.762  0.3192 -0.3168  0.0328
40426W        W49226  10.487   0.225  16.635 -0.0777 -0.0328  0.4055
40427W        W49227  18.192   5.679   7.116  0.2356  0.0896 -0.0004
40428W        W49228   3.791   1.766  21.794  0.1065 -0.0023  0.2882
40429W        W49229   0.535   5.641   9.287  0.1603 -0.0783  0.3588
40430W        W49230  24.842   3.592  17.495 -0.1884  0.1780 -0.4654
40431W        W49231   3.185   2.824  32.675  0.2240 -0.2729 -0.2366
40432W        W49232  13.655   0.776  10.750  0.0686 -0.0709  0.2461
40433W        W49233  12.415   7.661  12.332  0.2891  0.0149  0.0632
40434W        W49234   4.407   1.261   3.960 -0.4124  0.4299  0.2693
40435W        W49235   1.334   1.570  17.954 -0.0856  0.1791 -0.2354
40436W        W49236   2.989   4.992  31.861 -0.1498 -0.0377 -0.3007
40437W        W49237  18.718   4.420  29.477  0.2184 -0.1259 -0.0065
40438W        W49238  17.222   5.910   9.964  0.2745 -0.2525 -0.1327
40439W        W49239   9.776   1.151  12.924 -0.1026 -0.0663  0.2483
40440W        W49240  16.866   1.575  21.751  0.1403 -0.1572 -0.2107
40441W        W49241   1.415   4.319  21.717 -0.0069 -0.0413 -0.2342
40442W        W49242  11.974   2.838  10.359  0.1452  0.1995 -0.0231
40443W        W49243  23.572   2.981  21.666 -0.1464  0.3238 -0.2100
40444W        W49244  14.710   4.553   0.536 -0.1705  0.0594 -0.2755
40445W        W49245  10.379   5.013   6.256  0.2638 -0.0152  0.0053
40446W        W49246   1.516   5.845  26.810 -0.0929 -0.3009  0.1919
40447W        W49247  18.142   5.769  25.400 -0.3059  0.0173  0.1371
40448W        W49248   3.277   3.555   9.186  0.3149 -0.0680  0.0298
40449W        W49249  22.669   2.228  31.445  0.1498  0.2298  0.1888
40450W        W49250  15.545   2.589  25.730  0.2117  0.1363 -0.1602
40451W        W49251  22.959   3.207  28.121  0.1366  0.0845 -0.0604
40452W        W49252   2.917   5.662   1.221 -0.0162  0.0714 -0.0614
40453W        W49253   9.545   5.541  31.040 -0.1294 -0.0428 -0.1296
40454W        W49254  15.018   2.891  10.055 -0.1146 -0.1573  0.0996
40455W        W49255   0.212   1.132   0.809 -0.0350  0.2918  0.0365
40456W        W49256  14.307   6.520  21.884  0.0650  0.0061 -0.3078
40457W        W49257  23.769   0.407  30.321 -0.0230 -0.2777 -0.2429
40458W        W49258   3.401   6.935   8.679  0.0894 -0.0666  0.1587
40459W        W49259   7.909   2.683  11.966 -0.0973  0.0600 -0.3135
40460W        W49260  16.622   3.028   1.089  0.1138 -0.1577  0.0108
40461W        W49261   6.986   4.412   1.864 -0.0014  0.0932 -0.0465
40462W        W49262  11.392   5.737  11.201 -0.1979 -0.0002  0.3469
40463W        W49263   0.406   3.564  22.372  0.3271  0.2254 -0.0762
40464W        W49264   5.880   3.739   3.772  0.0149 -0.0218  0.2058
40465W        W49265  15.783   1.881  27.594 -0.3172 -0.0389 -0.2373
40466W        W49266   2.569   2.963  26.115  0.2198 -0.1206  0.1167
40467W        W49267   4.444   5.918  14.698 -0.0968 -0.3342 -0.0119
40468W        W49268  23.151   2.062  24.365  0.2401 -0.2364 -0.0484
40469W        W49269  20.114   5.716   4.383  0.2004  0.3233  0.0065
40470W        W49270  16.355   1.974  26.001  0.0410  0.0138  0.0070
40471W        W49271   6.824   5.876  23.511 -0.1256 -0.0742  0.0018
40472W        W49272  15.842   1.098  32.162  0.0244  0.0463 -0.2024
40473W        W49273   7.613   4.016   6.912 -0.2382  0.0729  0.1986
40474W        W49274   1.408   6.435  17.827 -0.2161 -0.0450 -0.2853
40475W        W49275  11.866   0.852  16.027 -0.0441 -0.2544 -0.0373
40476W        W49276   4.389   2.165  28.389 -0.0847  0.0526  0.0648
40477W        W49277  15.792   6.263  29.782 -0.1929 -0.1992  0.1869
40478W        W49278   6.704   5.851   8.400 -0.0572 -0.2666  0.1776
40479W        W49279   1.546   0.267   3.304 -0.1308  0.1582  0.0409
40480W        W49280  24.384   1.528  27.147  0.1972 -0.1120 -0.1294
40481W        W49281  24.977   1.743  28.535 -0.3177 -0.1146  0.1629
40482W        W49282   0.575   0.115   3.657 -0.2452  0.0737 -0.2555
40483W        W49283  18.357   7.732  19.858 -0.0877 -0.0440  0.1118
40484W        W49284  24.646   1.549  23.835 -0.0940 -0.3481 -0.0946
40485W        W49285   1.931   2.296   8.807  0.1535 -0.1260 -0.0899
40486W        W49286   8.287   7.370   7.345 -0.3485 -0.0023 -0.0116
40487W        W49287  21.633   2.013  22.553 -0.1078 -0.2121 -0.2098
40488W        W49288  17.404   4.103  30.587  0.0411 -0.0297 -0.2418
40489W        W49289  23.968   4.862  10.967  0.2072  0.0679 -0.2032
40490W        W49290  23.289   0.155  18.181  0.0856  0.2344  0.0648
40491W        W49291  15.735   3.082   0.549 -0.3170  0.0723  0.0367
40492W        W49292   7.081   7.347  28.950  0.2681 -0.0612 -0.1377
40493W        W49293   2.044   5.678  31.837  0.3272 -0.2145  0.2300
40494W        W49294  18.535   5.877   0.435 -0.1377 -0.1435 -0.0891
40495W        W49295  22.773   1.333  21.329 -0.0529 -0.1690  0.2449
40496W        W49296  20.665   1.741   2.416  0.1350  0.1742 -0.0125
40497W        W49297  13.762   6.088  25.868  0.2562 -0.1911  0.0349
40498W        W49298   7.302   0.785  14.273 -0.2392  0.1228 -0.1745
40499W        W49299   2.246   0.164  11.914 -0.0708  0.1586 -0.1384
40500W        W49300   9.297   0.110   2.005  0.1964 -0.0128 -0.1219
40501W        W49301   2.221   6.117   9.890 -0.0924  0.0200 -0.1469
40502W        W49302  22.559   2.605   5.683 -0.3716 -0.0471 -0.0848
40503W        W49303   4.224   1.965   9.506 -0.2653  0.1693 -0.1435
40504W        W49304  15.387   0.678   6.737  0.1320 -0.2239 -0.0335
40505W        W49305   1.007   7.606  26.026 -0.3008  0.0839 -0.1592
40506W        W49306  17.708   0.058  27.620 -0.0683  0.2148 -0.1326
40507W        W49307  19.052   3.124  24.963  0.0726  0.0027 -0.1949
40508W        W49308   2.800   5.159   1.808  0.0455 -0.0136 -0.0656
40509W        W49309  24.213   2.863  15.498  0.1948 -0.0650  0.2104
40510W        W49310   8.366   0.152   0.162  0.1737  0.2481 -0.3073
40511W        W49311   2.107   0.762  23.749 -0.0235 -0.0104 -0.1737
40512W        W49312   9.083   5.923   6.908 -0.0235 -0.0556  0.2810
40513W        W49313  18.556   7.409   4.631  0.0599 -0.0505  0.2296
40514W        W49314  12.821   2.180  14.098 -0.0468 -0.0208 -0.0467
40515W        W49315  18.456   7.441  27.194  0.0458  0.3361  0.0587
40516W        W49316  18.494   0.968  24.544  0.0104 -0.3413 -0.1273
40517W        W49317  22.664   1.497   1.680 -0.0682  0.1671 -0.1041
40518W        W49318  23.949   3.531   7.896 -0.1034 -0.2967 -0.0950
40519W        W49319   8.150   1.785   7.614 -0.1677  0.0994  0.1593
40520W        W49320  22.869   6.313   0.953 -0.0202  0.0139 -0.0614
40521W        W49321   6.320   7.813  30.473  0.1441 -0.1680 -0.2672
40522W        W49322   6.528   1.884  22.449  0.0121  0.0358  0.2075
40523W        W49323   0.448   1.231  23.573 -0.2435  0.2115  0.2972
40524W        W49324  15.657   3.455   5.940 -0.0733  0.1958  0.2653
40525W        W49325   7.765   0.103  11.298  0.0231  0.0903  0.0617
40526W        W49326  13.037   1.489  22.713 -0.0952 -0.3181  0.0620
40527W        W49327  14.770   7.071   2.521 -0.0240 -0.0084 -0.2140
40528W        W49328   7.924   4.351  31.789  0.4111 -0.0136 -0.1057
40529W        W49329  14.167   5.269  31.956  0.1619 -0.1131  0.4419
40530W        W49330  14.475   3.867  12.495 -0.1354  0.0846 -0.0896
40531W        W49331  17.100   6.817  32.322  0.0773 -0.3042  0.2662
40532W        W49332  18.831   2.767  26.406  0.0823  0.1623 -0.0686
40533W        W49333  24.547   1.015   7.162  0.1594  0.3205  0.0475
40534W        W49334  23.405   4.016  23.580  0.2707  0.1030  0.1728
40535W        W49335   6.648   4.824  24.128  0.1099 -0.1088  0.2597
40536W        W49336  15.142   5.050   5.104  0.0733  0.0997 -0.0687
40537W        W49337  11.895   7.753  16.474 -0.2334  0.0990 -0.2075
40538W        W49338  14.197   4.957   9.904 -0.1791 -0.3931  0.1989
40539W        W49339  13.664   0.177  21.995 -0.0221  0.0314  0.3490
40540W        W49340  10.089   3.516  27.253  0.1561 -0.1323  0.1145
40541W        W49341  22.816   6.783   0.665  0.0200  0.1690  0.0480
40542W        W49342   0.895   6.473   4.520  0.0359 -0.0097  0.0035
40543W        W49343  11.862   4.610   9.640 -0.0907  0.3894  0.1495
40544W        W49344  22.238   4.904  19.738 -0.1280  0.0881  0.2440
40545W        W49345  12.248   2.506  25.568  0.0519  0.0468  0.2370
40546W        W49346  11.849   4.899  24.899  0.0201  0.1460  0.0706
40547W        W49347  10.472   5.427  17.992 -0.1343  0.1372  0.1882
40548W        W49348   1.008   2.168   9.453 -0.1263  0.1650  0.1473
40549W        W49349  16.728   6.918  27.475  0.2255  0.1190  0.1070
40550W        W49350   8.901   1.363   5.376 -0.1934 -0.0545 -0.2801
40551W        W49351  15.942   2.359   5.848 -0.1877 -0.3278  0.1087
40552W        W49352   7.009   4.534  31.724  0.1438  0.0480  0.1874
40553W        W49353   3.327   3.485  21.883  0.0250  0.0509 -0.0301
40554W        W49354  12.035   1.971   6.619  0.0189 -0.0353  0.0566
40555W        W49355  16.980   4.041   0.901  0.0365 -0.1613 -0.0746
40556W        W49356  19.760   5.488  18.211  0.0716 -0.2626 -0.1655
40557W        W49357   5.618   6.306   6.126  0.0817  0.2869 -0.1309
40558W        W49358  24.471   6.415   8.030  0.0218 -0.1412  0.0317
40559W        W49359   0.128   5.846  29.311 -0.4126 -0.1274 -0.0291
40560W        W49360  22.268   6.334  22.457  0.4300 -0.0294  0.1462
40561W        W49361   1.216   5.339   3.585  0.4041  0.0144 -0.2406
40562W        W49362  17.084   1.191  25.282  0.2288  0.1580  0.4826
40563W        W49363   6.894   6.883   8.241  0.2907  0.3339  0.0564
40564W        W49364  13.784   6.182  20.919  0.1530 -0.0458 -0.1298
40565W        W49365  24.865   2.555  28.811  0.0415  0.0320 -0.1326
40566W        W49366  10.678   0.238  14.173  0.0112  0.2088  0.1492
40567W        W49367  22.867   7.145  23.272  0.0718 -0.2979 -0.0751
40568W        W49368   7.207   0.325   0.515  0.0508  0.1347 -0.1272
40569W        W49369  13.625   0.794  29.955 -0.3415  0.3352 -0.3519
40570W        W49370   0.440   6.707   7.630 -0.1086 -0.2841 -0.0003
40571W        W49371  19.275   6.825  15.444  0.1645  0.0904 -0.0081
40572W        W49372  11.172   0.281  29.827  0.0419  0.0912  0.0648
40573W        W49373  15.546   2.832  23.018  0.0973  0.1458 -0.0416
40574W        W49374  10.112   2.846   8.352  0.0342 -0.3359 -0.2211
40575W        W49375   2.583   1.161  26.664 -0.0627  0.1247  0.2342
40576W        W49376  24.485   6.123  31.147  0.0746  0.1698 -0.0316
40577W        W49377  12.118   7.703   4.853 -0.3464 -0.2915 -0.0624
40578W        W49378   9.955   0.706  29.614 -0.2825  0.1159  0.1721
40579W        W49379  15.414   1.109  10.694 -0.0836 -0.0209 -0.2716
40580W        W49380   0.111   2.531  20.807 -0.0565 -0.1493 -0.0455
40581W        W49381   1.180   6.906  29.475  0.0776 -0.0693 -0.1166
40582W        W49382   3.463   2.239  21.718  0.1323 -0.1108  0.2462
40583W        W49383  19.722   0.956   9.503 -0.1501  0.1011 -0.2141
40584W        W49384  12.862   1.151   1.721  0.0312  0.0452 -0.1138
40585W        W49385   1.490   4.918   0.422  0.1779  0.0472  0.0232
40586W        W49386   2.027   0.849  30.391  0.1710  0.1542  0.0664
40587W        W49387  17.483   1.835   3.393  0.1867  0.2387  0.2400
40588W        W49388   1.996   7.605  25.105  0.1825  0.0203 -0.1561
40589W        W49389  17.859   1.257  17.298 -0.1097 -0.0617  0.1874
40590W        W49390  18.436   4.724  16.946 -0.3121 -0.3899  0.0373
40591W        W49391  19.049   7.170   5.656  0.0680  0.2913  0.0309
40592W        W49392  12.072   6.547  13.531  0.2518 -0.1418  0.1336
40593W        W49393   8.514   5.233  12.514 -0.1727  0.1056  0.4131
40594W        W49394   4.405   2.596   3.782 -0.0052  0.0326 -0.5225
40595W        W49395  23.074   4.899   5.275 -0.0323 -0.1905 -0.0949
40596W        W49396  16.804   6.129  11.197 -0.0961 -0.1630  0.1049
40597W        W49397  19.469   0.384   5.228 -0.2250 -0.1885  0.3568
40598W        W49398  16.608   4.209   1.957 -0.3034 -0.0648  0.0323
40599W        W49399  12.927   7.722  13.187 -0.1223 -0.2514 -0.0314
40600W        W49400   7.566   7.320  15.205 -0.1341 -0.2700  0.0613
40601W        W49401  11.481   1.376  12.144  0.0168 -0.2226 -0.0943
40602W        W49402  10.408   0.309  25.854  0.1151  0.0113  0.0185
40603W        W49403   9.161   2.821   2.593 -0.1061  0.2068 -0.1229
40604W        W49404  16.884   4.187  17.211 -0.0849  0.1373  0.3716
40605W        W49405  14.457   1.922   4.009 -0.2393  0.1101  0.0891
40606W        W49406   0.983   2.659   5.152 -0.1424 -0.1744 -0.1150
40607W        W49407  10.919   7.757   8.487  0.0096 -0.2933  0.0568
40608W        W49408  12.791   6.492   2.264 -0.3412  0.1045 -0.1654
40609W        W49409  23.454   2.158   8.666 -0.0987 -0.0424 -0.0854
40610W        W49410  21.878   2.466  27.505  0.0956  0.0980 -0.0441
40611W        W49411  15.231   7.414  20.549  0.2815  0.0065  0.3731
40612W        W49412  22.019   4.069  22.140 -0.0311  0.0703 -0.0731
40613W        W49413   5.254   3.862  16.133  0.1177 -0.1694  0.4902
40614W        W49414   4.610   2.938  12.474  0.1756  0.1051  0.1627
40615W        W49415  22.914   1.579  17.880 -0.0782 -0.2482 -0.0187
40616W        W49416   7.959   1.227   8.651  0.2359 -0.1171 -0.2114
40617W        W49417   6.366   6.932  10.402  0.2539 -0.0583 -0.0612
40618W        W49418   3.966   5.092  14.033  0.0497  0.2959 -0.0878
40619W        W49419   1.225   5.985  29.952 -0.0517  0.3380  0.2547
40620W        W49420   6.043   0.204  29.259 -0.1401  0.2005  0.4088
40621W        W49421  19.456   1.368  27.643 -0.1564  0.0020  0.1099
40622W        W49422  18.174   3.128  17.026 -0.1965  0.1740 -0.1484
40623W        W49423  13.616   5.566  32.210  0.1077  0.0572 -0.0730
40624W        W49424  13.717   5.068  29.429  0.1132  0.0366  0.2057
40625W        W49425  17.134   3.131  26.234 -0.4699 -0.1516 -0.0155
40626W        W49426  16.563   4.887  21.004  0.0423 -0.2336  0.0656
40627W        W49427   2.447   2.365   6.802 -0.0150  0.0348  0.1108
40628W        W49428  12.203   6.226  21.995 -0.1274  0.3429 -0.0957
40629W        W49429  12.030   4.909  27.126 -0.2048  0.0638  0.0368
40630W        W49430  12.359   4.689  26.710 -0.1915  0.0137 -0.0220
40631W        W49431  14.692   0.544  24.514 -0.0807 -0.0333  0.0217
40632W        W49432  24.215   6.709  29.407  0.1447  0.5619  0.0608
40633W        W49433   9.979   0.369  15.798 -0.1241  0.0579  0.1579
40634W        W49434   0.386   0.317  18.943  0.4096 -0.4564 -0.1149
40635W        W49435  19.858   3.450   8.617  0.0335 -0.1824 -0.0425
40636W        W49436   3.024   0.648  10.892 -0.0277 -0.2527  0.0949
40637W        W49437   0.979   5.567   0.672 -0.0212  0.2011  0.1875
40638W        W49438   2.732   0.323   1.312  0.1550 -0.1173  0.1587
40639W        W49439  15.241   4.868  22.705  0.2799 -0.0551 -0.1097
40640W        W49440   8.214   7.500  11.158  0.0696 -0.1436 -0.0643
40641W        W49441  10.913   0.527   4.879 -0.1185  0.2558 -0.0898
40642W        W49442  15.253   0.387   7.994  0.0611  0.1175 -0.1335
40643W        W49443   1.367   7.343   7.064  0.0143 -0.1970  0.0363
40644W        W49444  12.523   2.269  28.282  0.0290 -0.0753  0.4170
40645W        W49445  15.798   3.693  22.714 -0.0861 -0.2129  0.0458
40646W        W49446  17.636   0.920  20.552  0.1439  0.0273  0.2253
40647W        W49447  18.733   4.639  19.615  0.2056 -0.2729  0.1983
40648W        W49448  22.426   6.946  30.146  0.0751  0.1153  0.0556
40649W        W49449  15.492   3.162  26.364 -0.3532  0.1011 -0.1193
40650W        W49450  16.408   5.567   9.344 -0.0470 -0.1223 -0.0347
40651W        W49451   6.169   1.923  25.616 -0.1227  0.3159  0.0687
40652W        W49452   8.735   7.254   1.263  0.1893 -0.3154  0.0507
40653W        W49453   4.258   1.394  12.288  0.1607  0.3299  0.1523
40654W        W49454  16.265   3.418  18.300 -0.0223  0.2304  0.1858
40655W        W49455  24.147   5.897  26.293 -0.2182  0.2733  0.1774
40656W        W49456  24.844   6.991   2.060  0.1050  0.3175  0.1781
40657W        W49457   0.556   0.903  20.347  0.2375 -0.0097 -0.0329
40658W        W49458   0.543   6.885   4.538 -0.0717 -0.0409 -0.1725
40659W        W49459  23.721   2.042  21.847  0.1040 -0.0106  0.3729
40660W        W49460  18.066   6.577  23.455  0.0843 -0.0936 -0.0002
40661W        W49461   3.378   5.751   1.424 -0.0313 -0.1292 -0.2423
40662W        W49462  14.469   2.606   9.035  0.0704 -0.0445 -0.0051
40663W        W49463  19.863   2.085  10.406  0.0974 -0.1548 -0.2532
40664W        W49464   9.065   1.643   1.098 -0.1682 -0.2046 -0.0185
40665W        W49465   6.631   5.789  13.754  0.0049  0.1564 -0.2516
40666W        W49466   7.709   6.607   7.310  0.2656  0.1045  0.1784
40667W        W49467  10.962   1.964  30.472 -0.0322  0.1702 -0.1639
40668W        W49468  14.956   4.664  21.893  0.0803 -0.0559 -0.3358
40669W        W49469  19.982   5.244  22.669  0.1361  0.1544  0.0213
40670W        W49470   3.914   3.185   4.665 -0.1884  0.1964 -0.2467
40671W        W49471   4.642   0.497  25.825 -0.2364 -0.1170 -0.1621
40672W        W49472  18.254   1.468   5.601 -0.1379  0.2521  0.1575
40673W        W49473  13.195   0.947  10.503 -0.2086  0.1176 -0.1862
40674W        W49474  14.247   1.379   9.684 -0.0090 -0.1401  0.0159
40675W        W49475   5.492   5.317  16.310 -0.0308 -0.2929 -0.0988
40676W        W49476  19.998   3.247  25.819  0.2096 -0.0308  0.0100
40677W        W49477   6.802   0.375  25.750  0.1363  0.0904 -0.1143
40678W        W49478  11.950   7.628  26.204 -0.0877 -0.3053  0.0072
40679W        W49479  10.704   4.231   7.215 -0.0819 -0.3752  0.1606
40680W        W49480   6.317   1.830  27.347 -0.2818  0.0384 -0.2573
40681W        W49481   0.063   5.552  24.224 -0.3934  0.0434  0.3162
40682W        W49482   9.510   0.193  24.131 -0.1816 -0.1552  0.1376
40683W        W49483  23.156   7.295   3.214  0.1391 -0.0896  0.5071
40684W        W49484  18.346   4.335   7.025 -0.0648 -0.1668 -0.0972
40685W        W49485  14.751   6.187   0.628 -0.1772  0.1076  0.0188
40686W        W49486  14.047   4.474  10.180  0.0818 -0.0885  0.3107
40687W        W49487  22.056   7.162   4.610 -0.0005  0.0953  0.1791
40688W        W49488  23.267   4.346  19.830 -0.2042 -0.0540  0.0700
40689W        W49489   2.756   2.197   1.480  0.1068 -0.0204 -0.0682
40690W        W49490  20.017   5.756   7.798 -0.0196 -0.1814  0.0934
40691W        W49491  24.907   5.890  24.655 -0.1607  0.0907 -0.3608
40692W        W49492  19.597   1.113  27.181  0.1167 -0.1034 -0.2565
40693W        W49493  11.033   3.932  26.788  0.0641  0.2421 -0.0217
40694W        W49494   2.975   4.389  28.326  0.0473 -0.0531 -0.1408
40695W        W49495  21.366   0.775  31.983  0.1369  0.0471  0.2063
40696W        W49496   8.610   1.481  10.888  0.3775 -0.3435 -0.0463
40697W        W49497   0.038   0.557  10.089  0.1815  0.0145  0.1562
40698W        W49498   4.211   3.995  26.036  0.1285 -0.2049  0.1025
40699W        W49499  24.333   4.980  28.214 -0.1042  0.1600 -0.1202
40700W        W49500   9.453   1.318   5.878 -0.1421 -0.3779  0.2185
40701W        W49501  18.526   2.980  22.059  0.1872 -0.1332  0.1321
40702W        W49502  13.326   4.588  31.592 -0.1357  0.3625 -0.0168
40703W        W49503  17.427   0.028   2.988  0.0833 -0.2638 -0.2079
40704W        W49504   8.413   3.975  15.720 -0.1401  0.2535 -0.1045
40705W        W49505  20.175   2.982  27.754 -0.0246  0.0833 -0.1125
40706W        W49506   7.664   0.523  23.165 -0.4412  0.0050  0.1038
40707W        W49507   6.015   4.701  29.445  0.3438 -0.2190  0.2986
40708W        W49508  16.273   6.490  31.579  0.1635 -0.5123 -0.1090
40709W        W49509  22.292   0.909  28.219 -0.2009 -0.1460 -0.2794
40710W        W49510   7.504   4.767  29.889 -0.0114 -0.0668  0.2365
40711W        W49511   7.738   4.441   0.486 -0.0742  0.1743 -0.0783
40712W        W49512  18.934   6.246   6.831  0.2850  0.1874 -0.0773
40713W        W49513  11.184   4.303  31.684  0.1292  0.2162 -0.2875
40714W        W49514  12.357   5.058   4.836  0.0641 -0.1726 -0.0604
40715W        W49515  16.190   4.052   8.654 -0.1546 -0.2404 -0.1542
40716W        W49516   7.345   6.648  11.668 -0.0218 -0.1823 -0.1989
40717W        W49517  24.998   6.536  29.824 -0.0343 -0.4326 -0.3729
40718W        W49518  20.382   1.147   6.049  0.0225  0.0624 -0.1277
40719W        W49519  11.669   1.917  10.365  0.0605  0.0087 -0.1485
40720W        W49520  22.940   6.909  24.413 -0.0977  0.0164  0.0519
40721W        W49521   0.236   3.998  24.461 -0.0044  0.0502  0.0672
40722W        W49522  11.850   2.231  25.767 -0.1577  0.3828  0.4096
40723W        W49523   5.614   0.102  22.706  0.2566  0.2038 -0.0094
40724W        W49524   7.125   6.381  32.563 -0.0629 -0.0820  0.2602
40725W        W49525  15.188   5.863  13.315 -0.2463  0.0148  0.3924
40726W        W49526  17.514   6.795   6.926  0.1548  0.2722  0.0274
40727W        W49527  12.645   0.618   8.988 -0.2061  0.2479 -0.0581
40728W        W49528   8.233   7.151  11.511  0.1308 -0.2546  0.2247
40729W        W49529   6.670   7.481   8.596  0.2543 -0.0035  0.0412
40730W        W49530  23.996   7.669  21.396  0.1604  0.4038 -0.1549
40731W        W49531   8.804   5.079  24.170  0.1322 -0.0160 -0.0462
40732W        W49532   7.305   1.140   9.100 -0.0525  0.0625 -0.2380
40733W        W49533  20.892   5.015   3.792  0.3751  0.1994  0.2273
40734W        W49534   5.428   7.049  25.660 -0.0648 -0.0408  0.2934
40735W        W49535  17.940   1.376   7.392 -0.0909  0.0943  0.0153
40736W        W49536  22.691   1.115  18.809  0.2772 -0.2168  0.0182
40737W        W49537   4.304   6.324  22.027  0.0626  0.0012 -0.0685
40738W        W49538  19.986   7.289  18.733 -0.5125 -0.1892 -0.3058
40739W        W49539   6.259   1.818   4.325  0.0748  0.0771 -0.0355
40740W        W49540   4.858   4.775   9.218 -0.0281 -0.0972  0.0131
40741W        W49541  21.726   5.474  28.354 -0.3199  0.0084  0.1054
40742W        W49542   6.441   2.008  23.458  0.0278 -0.1370 -0.2635
40743W        W49543   7.939   1.454  14.775 -0.1646  0.2937  0.1898
40744W        W49544  19.790   3.559   5.985  0.1112  0.1882  0.1576
40745W        W49545   1.822   6.555  29.839  0.2126 -0.0318  0.0546
40746W        W49546   6.012   2.483   2.685 -0.3577  0.1438  0.0028
40747W        W49547   5.500   1.845  14.171 -0.0252 -0.1919 -0.1597
40748W        W49548   1.330   3.608  19.252  0.0360 -0.1514 -0.0804
40749W        W49549   8.842   7.123  28.258 -0.2988 -0.1566  0.2334
40750W        W49550  11.653   7.447   1.261 -0.0704 -0.1531 -0.1953
40751W        W49551   0.813   6.675  26.580 -0.0687  0.1335 -0.0874
40752W        W49552   9.913   7.115  13.353  0.3155  0.1343 -0.1079
40753W        W49553  13.334   2.413  22.665  0.0565  0.2468 -0.1273
40754W        W49554  19.116   4.751  10.653 -0.2579 -0.2861 -0.1069
40755W        W49555   3.284   2.054  24.297  0.1529 -0.0192  0.0504
40756W        W49556  15.467   1.454  28.519  0.0475  0.1447 -0.0248
40757W        W49557   0.863   2.587   1.477  0.3115  0.0964  0.3776
40758W        W49558  19.214   5.356  24.027 -0.2371  0.0190 -0.1902
40759W        W49559  24.547   0.240  23.715  0.0377  0.1073 -0.0634
40760W        W49560  14.902   1.657   8.823 -0.1560 -0.1430  0.0759
40761W        W49561  10.027   2.115  29.650  0.0402 -0.1336  0.0845
40762W        W49562  23.474   6.144  26.959 -0.2086 -0.2371 -0.0061
40763W        W49563  24.046   3.996  30.078 -0.1669  0.0525 -0.1166
40764W        W49564   0.615   7.479   7.138 -0.2119 -0.1649 -0.1491
40765W        W49565  11.539   3.259  23.523  0.0416  0.1640 -0.1799
40766W        W49566   4.209   3.197  27.571 -0.2006  0.1144 -0.1426
40767W        W49567  15.500   3.933  26.643  0.5133  0.0817 -0.0050
40768W        W49568  12.909   4.513   2.299  0.2475  0.4425 -0.0107
40769W        W49569   8.849   6.596  15.580  0.1300 -0.0222 -0.2031
40770W        W49570   6.801   7.014  14.955  0.0074  0.1572 -0.2262
40771W        W49571  11.640   2.296   0.769 -0.3028 -0.0259  0.1918
40772W        W49572   6.582   4.589  12.632  0.0773  0.2895 -0.2814
40773W        W49573   2.081   1.976   4.119  0.0259 -0.2851 -0.2440
40774W        W49574   4.367   2.615  12.819  0.1343 -0.3156 -0.1559
40775W        W49575   7.869   0.832   4.462  0.0013 -0.0949  0.1109
40776W        W49576  15.917   5.494  10.815 -0.0205  0.3057 -0.1415
40777W        W49577  13.087   1.890   7.316  0.1893 -0.0553  0.0439
40778W        W49578  10.590   5.013   2.453  0.0282 -0.3637  0.0749
40779W        W49579  17.611   5.520   0.027  0.0302 -0.2629 -0.1300
40780W        W49580  22.314   5.526  20.938 -0.0042  0.0344 -0.0638
40781W        W49581   9.827   5.290  27.566  0.3207  0.2304  0.0872
40782W        W49582  24.338   7.104  17.705 -0.4343 -0.0380  0.1843
40783W        W49583  12.384   7.216   0.152  0.0440 -0.2512 -0.0203
40784W        W49584   5.072   2.535   6.113  0.0496  0.2723 -0.0065
40785W        W49585  10.903   0.505  12.605  0.1535  0.0817 -0.0704
40786W        W49586   5.382   0.129  11.383 -0.0521 -0.1094  0.0309
40787W        W49587   5.896   5.217  31.403 -0.3083  0.1770  0.1001
40788W        W49588   9.082   3.123   4.732  0.2003 -0.1684 -0.0528
40789W        W49589   1.070   4.055  19.206  0.0912  0.1787 -0.0392
40790W        W49590   5.408   1.151  16.311  0.2768  0.0896  0.0509
40791W        W49591  16.698   6.644  29.427  0.0816 -0.3913  0.0871
40792W        W49592   0.885   3.961   5.024 -0.1390  0.0488 -0.0503
40793W        W49593  19.752   5.577  15.853  0.0707 -0.3056  0.0265
40794W        W49594  14.559   2.529  12.571 -0.3597 -0.4288 -0.2161
40795W        W49595  23.613   6.572  27.871  0.1094 -0.1401  0.2189
40796W        W49596  21.821   7.685  28.407 -0.0041  0.4006 -0.0284
40797W        W49597  10.009   3.349  10.933 -0.0266  0.3112  0.0192
40798W        W49598  17.991   1.153   8.418  0.1853  0.2666  0.0912
40799W        W49599  17.940   6.742   4.087  0.0936  0.0355  0.0307
40800W        W49600   7.685   3.925   3.115 -0.0827 -0.1469  0.0054
40801W        W49601  17.610   0.349  18.501 -0.0141  0.0188  0.1225
40802W        W49602   5.817   0.320   4.263  0.0850  0.2944  0.0512
40803W        W49603   7.177   2.234  15.398  0.3300 -0.1745 -0.1188
40804W        W49604  22.482   2.447   3.463  0.3524 -0.3721 -0.2209
40805W        W49605  20.113   6.225   4.545 -0.2515  0.1498 -0.2238
40806W        W49606  13.776   6.347   1.763  0.1179 -0.0942  0.0960
40807W        W49607  22.726   5.321  19.074  0.0885 -0.0294 -0.2120
40808W        W49608  20.148   1.894   2.356 -0.1340  0.1712 -0.1407
40809W        W49609  24.619   5.482   9.154  0.1739 -0.1117 -0.4194
40810W        W49610  11.790   5.535   0.869  0.0379 -0.1251  0.1988
40811W        W49611   2.623   6.371  12.563  0.0443 -0.2624  0.0811
40812W        W49612  15.700   0.082   3.358 -0.1095 -0.1694  0.4079
40813W        W49613  15.172   2.578  10.385 -0.0504  0.1083 -0.3497
40814W        W49614   8.708   4.306   5.488  0.0660  0.1217  0.1008
40815W        W49615  23.229   0.528  28.032 -0.1763 -0.0369 -0.0067
40816W        W49616  16.960   0.387  28.768 -0.2353 -0.3960 -0.0598
40817W        W49617   3.284   2.121   5.169 -0.1479 -0.1315  0.0904
40818W        W49618   5.789   2.028  15.435  0.0420 -0.1077  0.1306
40819W        W49619  13.380   1.161  32.684 -0.0804 -0.0993 -0.1497
40820W        W49620   3.894   6.557  12.896  0.2031 -0.5158 -0.0100
40821W        W49621   7.353   3.828  11.961 -0.1069 -0.0935  0.1496
40822W        W49622   4.833   4.280  32.050  0.1140 -0.0437  0.3585
40823W        W49623   8.843   6.946   9.243  0.1051  0.0488 -0.0211
40824W        W49624   2.611   7.806   4.905 -0.1432 -0.0814 -0.3513
40825W        W49625  15.845   0.662  11.102  0.0656  0.0624 -0.0006
40826W        W49626  18.334   2.639   3.518 -0.1064 -0.1183  0.0717
40827W        W49627  18.822   0.395  28.276 -0.0841 -0.2103  0.0594
40828W        W49628  24.656   6.111  18.885 -0.0243 -0.0279  0.2202
40829W        W49629  11.341   1.746   4.866  0.3761 -0.1861 -0.0888
40830W        W49630   6.735   0.075   4.327  0.1255  0.0531  0.0692
40831W        W49631  16.146   2.683  30.162  0.0302 -0.0890  0.2291
40832W        W49632  10.151   5.501  31.627  0.0911  0.0369  0.0821
40833W        W49633   9.240   1.266  25.113  0.0883 -0.1081  0.0962
40834W        W49634  14.831   7.767  20.620  0.0723  0.0723  0.0327
40835W        W49635   1.268   4.914   9.184 -0.1256 -0.1195  0.2078
40836W        W49636   0.142   6.839  21.765 -0.0849  0.1854 -0.0221
40837W        W49637  21.311   2.846  25.924  0.1727  0.1900 -0.1871
40838W        W49638   9.717   2.094  27.015  0.3391 -0.3620  0.1163
40839W        W49639  14.644   0.739   1.852 -0.3062 -0.0286  0.0332
40840W        W49640   8.470   1.031   1.381  0.2503 -0.6110 -0.0936
40841W        W49641  17.137   3.238   1.858  0.0081  0.1492  0.0819
40842W        W49642   4.776   0.971   4.466 -0.2510  0.0532  0.3501
40843W        W49643  23.237   2.865  22.836 -0.1148 -0.1326  0.1616
40844W        W49644   8.227   6.469  24.203  0.0752 -0.1007 -0.1073
40845W        W49645   2.653   3.036  29.076  0.0639  0.2851 -0.1427
40846W        W49646   4.045   5.190   4.987  0.1533  0.2356  0.1389
40847W        W49647  21.996   1.246  19.617 -0.1224 -0.2299 -0.0495
40848W        W49648  22.608   5.476   7.359  0.1221  0.1250  0.2342
40849W        W49649  11.765   5.950  31.194 -0.1924  0.1123  0.1815
40850W        W49650  22.506   2.389  29.418  0.1572 -0.0190  0.2195
40851W        W49651  12.097   3.253   8.189  0.1928 -0.0335 -0.1989
40852W        W49652   9.852   6.770   3.405  0.0088 -0.1088  0.4696
40853W        W49653  20.118   7.413  27.302 -0.0437  0.1521 -0.0119
40854W        W49654   8.473   7.028   2.463 -0.1485  0.1494  0.1501
40855W        W49655  15.047   0.011   3.640 -0.3851 -0.4603 -0.0988
40856W        W49656  17.164   3.894   6.944  0.0251  0.4125  0.0468
40857W        W49657  11.341   6.225  25.008  0.1836  0.0463  0.1235
40858W        W49658  14.135   0.640  13.438 -0.0897 -0.1816 -0.0913
40859W        W49659  22.706   7.511   9.792 -0.2044  0.4213  0.2545
40860W        W49660   6.502   5.355   3.018 -0.0259 -0.3421 -0.0298
40861W        W49661   2.983   7.679  32.124 -0.0028  0.3010  0.1216
40862W        W49662  19.427   4.170   6.564  0.2666  0.1301 -0.4637
40863W        W49663   6.498   5.613  29.801  0.1598  0.2345  0.2213
40864W        W49664  16.027   3.901   3.329 -0.0512  0.1423 -0.3336
40865W        W49665  15.396   2.201  29.717 -0.1306 -0.1509 -0.2445
40866W        W49666   7.985   0.735   0.520  0.2282 -0.1098  0.1736
40867W        W49667   8.414   0.924  30.903  0.2094 -0.1414  0.3183
40868W        W49668   4.703   4.570  31.093  0.0670  0.1088 -0.0935
40869W        W49669  22.729   3.218  19.786 -0.0817  0.3734 -0.2829
40870W        W49670  23.468   2.660  18.067 -0.1576 -0.0187  0.0995
40871W        W49671   7.315   4.645   3.364 -0.2978  0.0034 -0.2886
40872W        W49672   0.222   3.008  24.458 -0.1221  0.1147 -0.5202
40873W        W49673  16.361   6.163  10.315  0.1966 -0.0535  0.2384
40874W        W49674  20.310   4.921   7.550  0.0385  0.1595 -0.3607
40875W        W49675   4.417   5.083   9.802 -0.2170  0.3067 -0.0281
40876W        W49676  15.719   2.065  31.153  0.1320  0.1768  0.1657
40877W        W49677  14.929   6.625  31.420 -0.0853 -0.1483 -0.1979
40878W        W49678   8.013   2.631   2.400 -0.0954  0.2058 -0.0074
40879W        W49679  22.377   2.031  32.379 -0.0004  0.0820  0.2194
40880W        W49680  23.745   0.134   1.581  0.2612  0.1176  0.2767
40881W        W49681  12.581   0.241  28.702  0.0034  0.0976 -0.1275
40882W        W49682  12.237   2.701   5.385  0.1696 -0.2065  0.0643
40883W        W49683   7.317   1.565  30.784  0.1377 -0.1669 -0.2044
40884W        W49684   6.621   7.447  13.049 -0.0265 -0.3554  0.0547
40885W        W49685  15.384   7.373  26.693  0.0268  0.0400  0.1438
40886W        W49686  12.489   2.195  30.457 -0.0483 -0.0274 -0.2944
40887W        W49687   8.846   6.197  11.376  0.2899  0.0371 -0.1291
40888W        W49688  24.878   3.164  20.136  0.2454 -0.1663  0.1866
40889W        W49689  10.581   0.824  27.891  0.0753 -0.1175  0.1288
40890W        W49690  20.583   6.415  28.335 -0.3001  0.0669 -0.1693
40891W        W49691   3.700   4.469   1.128 -0.0490  0.1541 -0.0698
40892W        W49692  13.835   3.654   8.919 -0.0878 -0.3225  0.2219
40893W        W49693   9.148   7.107  29.752  0.0279  0.0802  0.4033
40894W        W49694   1.739   0.797   2.545 -0.0725  0.1972  0.2091
40895W        W49695  23.056   2.296  25.863 -0.1834 -0.1144 -0.0098
40896W        W49696  10.198   4.563   2.557 -0.1002  0.0717  0.0856
40897W        W49697   2.701   0.495   6.264  0.0868 -0.0642  0.0088
40898W        W49698  16.744   0.387  30.854  0.1568  0.1026  0.2759
40899W        W49699  17.074   7.279  22.245  0.2589  0.0044  0.0595
40900W        W49700  10.101   2.179  31.568  0.2680  0.5263 -0.1201
40901W        W49701  21.968   0.108  26.687 -0.1294  0.3224  0.1277
40902W        W49702   0.509   3.134  28.709  0.0422  0.3322 -0.2699
40903W        W49703  24.982   7.101  26.636 -0.3738 -0.0971 -0.2319
40904W        W49704   6.475   2.343   2.479 -0.2689  0.2306 -0.2251
40905W        W49705   5.016   1.364   0.397 -0.1932 -0.1440 -0.2918
40906W        W49706   6.048   2.371  15.766  0.0444  0.2874 -0.0755
40907W        W49707  17.872   7.376   1.403  0.0405 -0.0870 -0.1479
40908W        W49708  12.158   3.201   9.530  0.3061  0.1683 -0.0528
40909W        W49709  23.005   4.848  22.593  0.1401 -0.1754  0.3240
40910W        W49710   6.723   7.108  10.043  0.2489  0.1612  0.0088
40911W        W49711  17.540   7.726  25.568  0.1737 -0.4030 -0.1618
40912W        W49712   1.873   1.077  24.536 -0.0003 -0.1032  0.0160
40913W        W49713   5.999   4.150   1.138  0.2152  0.0916 -0.1234
40914W        W49714  12.159   2.284  22.366  0.1216 -0.0020 -0.2421
40915W        W49715   3.487   5.161  31.007 -0.0706 -0.1906  0.1794
40916W        W49716  24.518   2.093  22.471 -0.2289  0.2269  0.0718
40917W        W49717  19.564   4.677  14.339 -0.0498  0.2128  0.0473
40918W        W49718   5.938   6.106  10.116  0.0984  0.1474 -0.1418
40919W        W49719  15.241   7.444   0.422  0.0819  0.2634 -0.2275
40920W        W49720   2.229   4.672   7.552 -0.1632 -0.0056  0.0965
40921W        W49721  10.037   3.613  31.967 -0.1106 -0.0420 -0.2484
40922W        W49722  19.789   0.585   1.735  0.0955  0.2193 -0.2760
40923W        W49723  14.506   2.160  29.281  0.0756 -0.2251  0.3420
40924W        W49724  17.444   4.825  16.735  0.0376  0.0976 -0.3414
40925W        W49725  10.414   1.240   5.534 -0.2094 -0.1490 -0.0482
40926W        W49726   7.742   1.201   5.845  0.1961  0.1057 -0.0505
40927W        W49727  12.525   1.614   5.425  0.2493 -0.2339  0.0800
40928W        W49728  21.557   5.529   2.163  0.0112 -0.0830 -0.3155
40929W        W49729  12.728   3.043   0.058 -0.3705 -0.0434 -0.0569
40930W        W49730   6.799   6.897  30.617  0.0948  0.0381 -0.1571
40931W        W49731   5.764   7.013  12.589  0.1594  0.1099  0.1720
40932W        W49732  24.361   5.213   0.949 -0.1221 -0.1613 -0.0613
40933W        W49733  17.301   0.757  24.997  0.0185 -0.0781 -0.1298
40934W        W49734   9.007   3.410  14.382  0.0410 -0.2062 -0.1933
40935W        W49735   4.395   3.144   3.703  0.2220 -0.1010  0.1811
40936W        W49736  19.979   0.970  26.656  0.1519 -0.1190  0.1115
40937W        W49737  15.071   6.730   4.990 -0.1840  0.1829  0.2627
40938W        W49738  17.166   7.170   7.204 -0.0384  0.2164 -0.0926
40939W        W49739  23.987   0.496  32.003  0.0097 -0.1429  0.0009
40940W        W49740  22.925   1.470  19.230 -0.0106  0.2596  0.0128
40941W        W49741  22.160   6.170  25.776  0.0353  0.0568  0.4339
40942W        W49742  24.748   2.164  16.303 -0.2605  0.2662 -0.1288
40943W        W49743   8.055   7.549  28.352  0.1367 -0.1644  0.4890
40944W        W49744  22.308   6.947   2.137  0.3301  0.1291  0.1008
40945W        W49745  23.271   1.730  31.977 -0.2661 -0.5059  0.0106
40946W        W49746  19.564   4.434  22.788  0.1886  0.0906 -0.0569
40947W        W49747  21.456   0.432  29.602 -0.0388 -0.0541  0.1872
40948W        W49748  21.340   1.487   8.890 -0.0910  0.0229 -0.0638
40949W        W49749  17.746   7.136  17.520 -0.1782  0.0238  0.2648
40950W        W49750   5.290   5.185  22.094  0.0740 -0.0593 -0.1280
40951W        W49751  21.510   5.058   4.417  0.0255 -0.1102  0.2819
40952W        W49752  21.362   2.769   2.901 -0.3053  0.1513 -0.0111
40953W        W49753  17.809   3.964  31.546  0.1719  0.2187 -0.0771
40954W        W49754  16.443   7.614  17.948  0.1322 -0.0252 -0.4319
40955W        W49755   3.536   1.658  30.386 -0.0132  0.1120 -0.0500
40956W        W49756   0.770   0.880  22.085  0.0707 -0.0497  0.0177
40957W        W49757   9.741   3.877  12.750 -0.2359  0.0287  0.1550
40958W        W49758   2.449   2.178  26.929  0.2814  0.0156 -0.0407
40959W        W49759   9.007   4.015   8.479  0.0513  0.3060 -0.3112
40960W        W49760   8.618   1.504   0.886 -0.1158 -0.1895 -0.1396
40961W        W49761  22.691   1.289   8.270 -0.1217  0.1157 -0.1360
40962W        W49762  21.448   0.444  14.551  0.0187 -0.3494 -0.1322
40963W        W49763   4.566   3.898  27.357 -0.1795  0.3410 -0.3362
40964W        W49764   7.437   3.335  27.724  0.0804  0.2784 -0.1821
40965W        W49765  15.140   5.762  12.050 -0.1981  0.0230  0.0096
40966W        W49766  13.787   5.030   2.999 -0.0161  0.1368 -0.2207
40967W        W49767  22.910   5.826  21.824  0.0331 -0.0612  0.0568
40968W        W49768   1.213   1.392   1.319 -0.1081 -0.1547  0.2354
40969W        W49769  14.015   3.547  32.053 -0.0937 -0.1987  0.1343
40970W        W49770  14.016   4.134  24.803 -0.1051 -0.1991 -0.1525
40971W        W49771  19.750   1.252   8.895 -0.3862  0.0314 -0.0441
40972W        W49772  20.465   4.976   8.943 -0.1875 -0.1186  0.0864
40973W        W49773   1.470   5.394   5.872  0.1488 -0.2517  0.1146
40974W        W49774  24.109   6.885  18.940  0.0360  0.0527  0.2009
40975W        W49775  17.817   5.178   0.326 -0.1990  0.2052 -0.0113
40976W        W49776  23.233   6.528   7.748  0.0185 -0.0958 -0.1586
40977W        W49777  15.482   1.147  23.572 -0.0412 -0.0687  0.3284
40978W        W49778  20.699   7.310   1.289  0.1575 -0.0433  0.1123
40979W        W49779   2.593   2.111  29.646 -0.0790 -0.2179 -0.2795
40980W        W49780   0.397   3.714  30.831 -0.0526  0.0303 -0.0997
40981W        W49781  17.833   6.234  26.005  0.0497  0.0431  0.0157
40982W        W49782  20.742   6.034   8.157  0.0450 -0.3671 -0.1707
40983W        W49783  18.462   7.185   8.022 -0.2301  0.1732  0.4153
40984W        W49784   9.190   3.917   7.546  0.1609  0.1669 -0.0484
40985W        W49785   8.814   4.456  30.444  0.1079  0.0440 -0.1056
40986W        W49786  21.655   5.501  24.127  0.1131  0.2734 -0.1058
40987W        W49787  16.643   3.881   3.586  0.1126  0.1052  0.0317
40988W        W49788  13.439   6.028   6.761 -0.0836  0.1810  0.1043
40989W        W49789   6.825   1.715  12.236  0.0322  0.2931 -0.0667
40990W        W49790  20.717   7.422  27.328 -0.2908  0.0338 -0.1655
40991W        W49791  21.641   4.601  17.149  0.2424  0.1621  0.0581
40992W        W49792  21.936   4.174   4.478  0.1059  0.0308  0.4533
40993W        W49793   4.742   5.862  27.790  0.1886 -0.0453 -0.0715
40994W        W49794   8.518   2.368  32.550 -0.2231  0.1445 -0.1158
40995W        W49795  14.730   3.659  28.489 -0.1055  0.0736  0.1340
40996W        W49796  19.189   2.957   4.998  0.0248 -0.2961 -0.0593
40997W        W49797  10.650   1.472  18.366 -0.2213  0.2297  0.0685
40998W        W49798  23.457   2.140  31.718  0.0484  0.2328  0.0712
40999W        W49799   9.478   5.021  32.266  0.1834 -0.1835  0.2026
41000W        W49800  19.999   4.903  15.437 -0.1280  0.4969  0.0102
41001W        W49801  21.810   6.229  24.473  0.0457  0.1513  0.2056
41002W        W49802  19.614   0.932   2.594  0.0700 -0.0557  0.2388
41003W        W49803   4.710   2.499   8.864  0.1222  0.0993 -0.2209
41004W        W49804  14.581   5.410   3.304 -0.0178 -0.2489  0.2033
41005W        W49805   8.506   3.849   5.269 -0.1916 -0.3542  0.1758
41006W        W49806  16.586   5.065   9.112 -0.0298 -0.2121 -0.3072
41007W        W49807  13.658   3.345  22.670  0.0344 -0.1324  0.1237
41008W        W49808  12.157   5.843  24.060 -0.2633  0.3996  0.1429
41009W        W49809  12.468   7.092  28.740  0.0261 -0.2800 -0.1623
41010W        W49810  19.144   2.174   3.256  0.2479 -0.2546  0.1650
41011W        W49811   2.256   2.087  28.983  0.1016  0.0892  0.1631
41012W        W49812   7.110   4.510  30.015 -0.1128  0.0618  0.1154
41013W        W49813   8.746   5.670  15.951 -0.1248 -0.0551 -0.0588
41014W        W49814  10.607   1.156  27.052  0.0100  0.0752  0.0558
41015W        W49815  19.720   0.740  20.705 -0.1530 -0.0453 -0.2203
41016W        W49816   5.644   0.944  22.172  0.1881  0.3976 -0.0412
41017W        W49817   4.402   6.362  29.768 -0.0016 -0.0949  0.0870
41018W        W49818  19.469   2.651  31.997 -0.3153  0.0559 -0.0198
41019W        W49819  16.716   4.776  22.406  0.0313  0.2822  0.2108
41020W        W49820  14.051   7.647  30.690  0.1102 -0.0927  0.0222
41021W        W49821   2.047   3.688  22.228 -0.0282 -0.0680  0.0334
41022W        W49822  15.866   4.563  30.610 -0.1453 -0.0727 -0.1769
41023W        W49823   9.975   5.086  13.112 -0.1077  0.0747  0.2072
41024W        W49824  16.470   7.217  27.800 -0.0040 -0.2136  0.1507
41025W        W49825   1.082   4.573  21.327 -0.0757  0.0750  0.2665
41026W        W49826   3.724   0.137  29.791 -0.0147 -0.2897  0.1992
41027W        W49827  10.247   1.150   1.312 -0.0401  0.0950  0.2887
41028W        W49828  17.564   5.901  29.732 -0.3367  0.0441 -0.1883
41029W        W49829   5.241   2.186  29.489 -0.1324 -0.4934 -0.1408
41030W        W49830   0.924   0.594  20.052  0.0554 -0.1239  0.1058
41031W        W49831  20.387   7.372   2.768 -0.2976 -0.1118 -0.0680
41032W        W49832   9.985   6.251   8.460  0.0621  0.3302  0.0767
41033W        W49833   2.785   3.142  29.621 -0.1376  0.1682  0.0671
41034W        W49834   3.200   3.605  30.513  0.2584  0.0655  0.0406
41035W        W49835  17.091   5.544  25.764  0.0157 -0.1901  0.0045
41036W        W49836   9.226   1.333   8.650 -0.1391  0.3299  0.0361
41037W        W49837   3.631   1.446   4.099  0.1782 -0.0132 -0.0273
41038W        W49838  21.381   1.010   4.057 -0.0077 -0.4556 -0.0044
41039W        W49839  11.738   4.843  15.161  0.1134 -0.3068  0.1007
41040W        W49840   5.296   6.119  24.105 -0.1130 -0.1139 -0.3838
41041W        W49841  22.061   0.329   0.542  0.2603 -0.1204 -0.0475
41042W        W49842  20.262   1.481  16.300  0.2571  0.2134  0.1420
41043W        W49843  10.198   6.613  32.180  0.1280  0.0914 -0.2539
41044W        W49844   1.997   6.590   6.974  0.0041  0.0802 -0.0702
41045W        W49845  17.291   6.287   5.855  0.0928  0.1194  0.1088
41046W        W49846  14.303   1.310   1.487  0.2483  0.0894 -0.0025
41047W        W49847  11.956   7.776   7.374  0.0399 -0.0815 -0.4849
41048W        W49848  13.063   3.995  13.672  0.1437 -0.2075 -0.2620
41049W        W49849   1.204   7.814   2.969 -0.0838  0.1126 -0.0919
41050W        W49850  15.002   4.005   7.830 -0.2191 -0.0607  0.0435
41051W        W49851   6.714   4.767  23.601  0.0478  0.2607  0.0631
41052W        W49852  19.211   2.575  29.689  0.2566  0.2928 -0.0713
41053W        W49853   1.248   0.856  19.257  0.1696 -0.2757 -0.0507
41054W        W49854   3.186   3.391  12.153  0.0568 -0.3536 -0.1791
41055W        W49855   2.942   2.969   4.511  0.0492  0.0822 -0.0451
41056W        W49856  19.022   4.291  15.327 -0.1527 -0.0264 -0.1622
41057W        W49857   9.328   3.264  30.414 -0.0921  0.2908 -0.0717
41058W        W49858  20.260   7.807   5.376  0.1102 -0.0965 -0.0467
41059W        W49859  16.465   3.104   6.794 -0.1271  0.2054  0.1598
41060W        W49860   0.671   2.058  29.549 -0.2560 -0.2782 -0.0773
41061W        W49861   4.013   3.716   3.999  0.1161  0.0759 -0.2803
41062W        W49862  16.425   4.185  11.640 -0.4575 -0.0108 -0.0619
41063W        W49863  15.124   5.346   9.392 -0.0314  0.0003  0.3555
41064W        W49864  21.776   7.034   8.526  0.2776  0.0008  0.1225
41065W        W49865  20.705   4.481  17.698  0.0024 -0.1186 -0.0111
41066W        W49866  16.111   1.937  21.901  0.0980 -0.1049 -0.0401
41067W        W49867  13.774   4.071  28.509  0.0076  0.1078  0.0567
41068W        W49868  22.885   0.089  32.669 -0.1141 -0.0576 -0.1574
41069W        W49869   7.102   1.949  25.124 -0.1753 -0.1966  0.3116
41070W        W49870   6.899   2.266   3.809  0.2238  0.0706  0.0263
41071W        W49871  15.515   7.077   8.483 -0.5085  0.2515  0.0434
41072W        W49872   9.671   5.547  30.013  0.0271 -0.0128 -0.2695
41073W        W49873  23.178   1.361  26.944 -0.1682  0.0022 -0.1216
41074W        W49874  22.910   7.423  23.686  0.1495 -0.4538 -0.2140
41075W        W49875  18.891   2.017  27.916  0.1144 -0.1001  0.0081
41076W        W49876  20.245   6.441  15.420  0.4110 -0.1733 -0.2235
41077W        W49877  20.389   2.731  17.287  0.0447  0.2580  0.3285
41078W        W49878   1.230   6.280   3.494 -0.0978  0.2042 -0.2379
41079W        W49879   0.897   4.806  28.525  0.2084 -0.2001 -0.2838
41080W        W49880  10.847   7.138   5.740 -0.1237 -0.1340  0.2904
41081W        W49881  23.994   3.554  24.655  0.0640  0.1530  0.2202
41082W        W49882  13.398   4.987  25.017  0.0485  0.1536  0.0436
41083W        W49883  19.984   7.465   0.172 -0.1561 -0.1909 -0.0202
41084W        W49884  19.901   5.811   4.820  0.0854  0.1123 -0.1740
41085W        W49885   3.499   0.643  23.567  0.0465 -0.0522  0.0385
41086W        W49886   5.748   5.930  13.275 -0.1016  0.1586  0.2313
41087W        W49887   9.567   0.425   9.880 -0.1168 -0.1135  0.2372
41088W        W49888   6.500   5.771  16.897 -0.0334 -0.0326 -0.2396
41089W        W49889  12.273   6.491  24.510 -0.0690  0.0063 -0.1738
41090W        W49890   4.352   3.001  11.149  0.1408 -0.0700  0.1362
41091W        W49891  11.493   0.726  14.065 -0.1343  0.0179  0.2188
41092W        W49892  16.257   6.668  20.815  0.1150 -0.0192 -0.2697
41093W        W49893   5.502   4.433  30.661 -0.0760 -0.0910  0.2294
41094W        W49894   4.099   2.576  28.337 -0.1607  0.4581 -0.2350
41095W        W49895  24.962   6.490   1.991  0.2359 -0.1408 -0.2451
41096W        W49896  22.708   6.719  24.890 -0.3715  0.2152  0.0303
41097W        W49897  24.712   2.370  18.382 -0.2466  0.0687 -0.1068
41098W        W49898  18.369   0.104   2.014 -0.2651  0.1059  0.0893
41099W        W49899  14.511   1.196  27.878  0.0993  0.1479  0.0259
41100W        W49900  12.829   1.994   6.856 -0.0232  0.0727 -0.1498
41101W        W49901  21.766   6.014  32.454  0.2364 -0.1974 -0.1482
41102W        W49902   0.413   7.102   5.542 -0.0163 -0.1149  0.1561
41103W        W49903  17.297   3.696  27.411  0.0558  0.2459  0.0161
41104W        W49904   2.453   3.039   4.636 -0.1666 -0.2420 -0.2023
41105W        W49905   9.181   4.662  15.771 -0.0594 -0.0639 -0.0054
41106W        W49906   7.508   6.732  32.007 -0.1985 -0.0189 -0.1145
41107W        W49907   4.362   6.295  16.372 -0.2344 -0.1949  0.1487
41108W        W49908  24.891   3.763   8.868  0.0157 -0.3790 -0.2265
41109W        W49909  20.491   3.784   5.759 -0.2424  0.2227 -0.3464
41110W        W49910  18.171   6.898  10.036 -0.0461 -0.0480 -0.2903
41111W        W49911  19.397   4.609  29.015 -0.1419 -0.0406 -0.1308
41112W        W49912   7.067   6.180  29.769  0.2090 -0.1600 -0.1025
41113W        W49913  12.514   5.390  15.105  0.3160 -0.2588  0.0358
41114W        W49914  10.647   5.531   4.465  0.0179  0.1026  0.1213
41115W        W49915  24.074   5.939  30.893  0.0699  0.0064  0.2074
41116W        W49916   1.168   5.637   7.202  0.0471  0.3667  0.1094
41117W        W49917  23.047   0.364  10.962  0.0429  0.1343  0.2886
41118W        W49918   6.829   5.720  25.734 -0.2184 -0.2169 -0.1937
41119W        W49919  14.146   5.812   8.466 -0.0955  0.1581 -0.0954
41120W        W49920  18.342   1.383  24.790 -0.2909  0.2536 -0.0629
41121W        W49921   8.790   1.207  11.922 -0.0043  0.1578 -0.1414
41122W        W49922  20.331   3.371  21.517  0.0529 -0.0161 -0.1747
41123W        W49923   8.532   3.124  18.179 -0.0945 -0.1092  0.2986
41124W        W49924  11.717   6.562   8.962  0.0420  0.2494  0.1613
41125W        W49925  18.952   7.092  16.055 -0.1604 -0.0524  0.2052
41126W        W49926   9.148   5.512   2.208  0.0700  0.0726  0.1934
41127W        W49927  22.489   6.037  24.668 -0.1824  0.3878 -0.2573
41128W        W49928  15.130   0.281  25.790 -0.2641  0.2071 -0.1532
41129W        W49929   4.113   7.653   1.234 -0.0445  0.0589 -0.0037
41130W        W49930   3.631   5.406  22.711 -0.0282 -0.0097 -0.1515
41131W        W49931  10.478   6.959  16.994  0.1368 -0.2923 -0.0854
41132W        W49932  23.193   1.983   9.111 -0.1000 -0.3288  0.0141
41133W        W49933  16.404   1.046   8.827  0.3181 -0.1243  0.2486
41134W        W49934  18.379   1.825   1.277  0.0667 -0.0845 -0.1690
41135W        W49935  11.658   3.148   9.621  0.0049  0.1577 -0.0799
41136W        W49936   1.199   5.528  23.551  0.0086 -0.0543 -0.1518
41137W        W49937   0.347   1.431  28.456  0.1799 -0.1591 -0.1294
41138W        W49938   8.542   2.809   9.848 -0.3874 -0.1883  0.1816
41139W        W49939  23.026   6.223  29.085  0.1147  0.0839 -0.0508
41140W        W49940  10.184   6.390   6.056 -0.0037  0.0344 -0.0938
41141W        W49941  23.809   3.477  24.164  0.1806 -0.0718  0.1264
41142W        W49942   3.808   6.878  28.651  0.2326  0.1309  0.0512
41143W        W49943   6.361   1.010  30.538  0.2866 -0.0579  0.2510
41144W        W49944   3.223   5.736  10.301 -0.4627  0.1911 -0.0570
41145W        W49945  12.318   5.899   7.577 -0.3147  0.1717  0.2229
41146W        W49946  10.631   6.558   9.161  0.4217  0.1140 -0.0796
41147W        W49947  12.372   7.478   9.452  0.4726  0.0588 -0.0321
41148W        W49948   8.265   5.077   6.645 -0.3780 -0.1943  0.2265
41149W        W49949   0.875   4.867   3.018  0.1159 -0.3805 -0.0070
41150W        W49950   9.928   3.711   8.751 -0.3535  0.3007 -0.0547
41151W        W49951   7.357   4.263  24.203  0.0320  0.0011 -0.0208
41152W        W49952  17.252   5.485  27.881 -0.0561  0.0343  0.0157
41153W        W49953  11.749   6.243  13.921 -0.3305 -0.1309  0.1117
41154W        W49954  17.245   2.821  31.570 -0.2922  0.0569 -0.0845
41155W        W49955  22.055   3.667  21.706 -0.1615  0.2002 -0.0780
41156W        W49956   4.018   1.508   9.422  0.1831 -0.0933  0.3424
41157W        W49957  22.721   6.106   4.483 -0.0161  0.0608 -0.1471
41158W        W49958   2.445   0.213  26.907 -0.0532  0.0116  0.0157
41159W        W49959  20.213   6.616   5.682  0.2506 -0.3286 -0.0307
41160W        W49960   5.990   6.245   2.307  0.0729  0.0280  0.0303
41161W        W49961   7.765   5.809  28.778 -0.2873  0.0856 -0.0071
41162W        W49962  12.067   6.980  23.675  0.1357 -0.0581  0.0160
41163W        W49963   4.445   0.028   0.436 -0.0832  0.0525  0.0017
41164W        W49964  10.271   5.161  27.775 -0.0216 -0.0990 -0.0502
41165W        W49965  15.084   5.896  11.458  0.0341  0.2381 -0.2358
41166W        W49966  22.681   7.609  18.304 -0.1029 -0.3651  0.2920
41167W        W49967   1.905   1.976  27.815 -0.0083 -0.2820  0.0365
41168W        W49968   5.959   1.477   3.499  0.3075 -0.3312  0.0069
41169W        W49969  16.278   0.131  31.362  0.2309 -0.2281  0.0927
41170W        W49970  22.409   5.509   6.898  0.0531 -0.1918  0.0038
41171W        W49971  15.224   6.474  25.141 -0.0380 -0.1640  0.2152
41172W        W49972   0.890   3.771  10.265 -0.0210 -0.1365 -0.1884
41173W        W49973  12.084   6.406  23.479  0.1268  0.0564  0.1085
41174W        W49974  15.672   7.787   6.320 -0.1606 -0.4015 -0.2346
41175W        W49975   1.792   2.832  31.507 -0.0931 -0.1215  0.1047
41176W        W49976  13.131   3.334  31.232 -0.2710  0.2629  0.0784
41177W        W49977   8.741   5.944  32.584  0.3353 -0.0739  0.3104
41178W        W49978  23.711   3.490  20.512 -0.0447  0.0602  0.1210
41179W        W49979   9.905   6.306  18.042 -0.2019 -0.2503 -0.0846
41180W        W49980  24.595   6.683  10.213 -0.3501  0.0353 -0.0178
41181W        W49981  24.269   2.149  22.921  0.2752  0.2054  0.0281
41182W        W49982   8.610   2.369  17.473 -0.0642  0.2965  0.0659
41183W        W49983  23.888   4.702   5.212  0.1038 -0.0916 -0.1363
41184W        W49984   8.211   4.300   9.884 -0.0839 -0.0205 -0.1278
41185W        W49985  23.340   2.685  20.930  0.1018 -0.2207  0.1679
41186W        W49986   3.678   2.636   3.101  0.0754  0.1572  0.0112
41187W        W49987  23.499   2.025   7.851 -0.1621  0.2027 -0.4044
41188W        W49988  22.486   6.709  20.469 -0.0735 -0.3121 -0.0135
41189W        W49989  10.011   3.387   6.050 -0.1237 -0.0707 -0.0030
41190W        W49990  18.589   4.445  21.215  0.1146  0.0599 -0.1527
41191W        W49991   4.216   2.689   7.710  0.1016 -0.1434  0.1612
41192W        W49992  23.455   1.703   7.365  0.4083 -0.1491 -0.2262
41193W        W49993  11.382   7.594  10.394 -0.1521 -0.1364 -0.2924
41194W        W49994   2.012   1.088   0.776 -0.1488 -0.0573 -0.0150
41195W        W49995   1.173   1.347   7.455  0.1390  0.2988 -0.0970
41196W        W49996   0.929   5.448  10.126 -0.3711 -0.0407  0.0499
41197W        W49997   5.702   1.977  22.251  0.3107 -0.1907  0.1081
41198W        W49998   4.752   2.198  27.951  0.1549  0.2256 -0.0740
41199W        W49999   3.697   3.152  13.414 -0.1253  0.0097 -0.2695
41200W        W50000  13.843   1.537  21.510  0.2535 -0.1670  0.1353
41201W        W50001  14.766   5.094   1.916  0.2287  0.2340  0.0179
41202W        W50002  22.916   4.194  30.645  0.1902 -0.0604 -0.1560
41203W        W50003   0.481   0.258   8.242 -0.1978 -0.2940  0.0097
41204W        W50004  14.956   6.943  10.917 -0.1150  0.2256  0.0506
41205W        W50005  17.949   7.249  19.935 -0.1945  0.0121 -0.1401
41206W        W50006  24.323   4.524  10.793 -0.0656  0.3473  0.3763
41207W        W50007   6.552   6.994  24.137  0.1130 -0.1970  0.0426
41208W        W50008   9.391   4.302  25.943  0.2400  0.0988 -0.0378
41209W        W50009  11.883   6.281  31.877  0.0016 -0.3966 -0.0678
41210W        W50010  18.658   4.302  19.222  0.0595  0.3118 -0.4440
41211W        W50011  24.962   5.389  19.844  0.1393 -0.2831 -0.1274
41212W        W50012  23.764   3.288  26.836  0.1244  0.6172 -0.2523
41213W        W50013  24.912   3.857   9.351  0.1473  0.1801 -0.1048
41214W        W50014  17.564   4.844  23.884  0.2254  0.2199 -0.0842
41215W        W50015   8.336   2.163   8.604  0.0448 -0.1058  0.0888
41216W        W50016   4.824   1.453   4.266  0.0065  0.0801  0.2296
41217W        W50017  11.194   2.251  12.763  0.1159  0.1213 -0.1302
41218W        W50018   7.975   4.337   6.937 -0.1254  0.0051  0.2721
41219W        W50019   1.003   7.124  10.426  0.0444 -0.0461  0.3569
41220W        W50020   4.520   5.779  26.695 -0.2286 -0.1176 -0.1362
41221W        W50021  20.265   2.961  32.238 -0.1104 -0.2226  0.0894
41222W        W50022   6.772   4.886   4.691  0.1973  0.2208  0.0924
41223W        W50023  21.224   0.061  17.478 -0.3710 -0.1532 -0.2792
41224W        W50024   4.505   7.046  32.657 -0.2362 -0.1445  0.2452
41225W        W50025   8.174   7.664  23.867  0.0619 -0.3657 -0.2565
41226W        W50026  11.122   1.103  15.538 -0.0213 -0.1558 -0.5023
41227W        W50027  16.654   3.867   8.767 -0.2809 -0.0168  0.1014
41228W        W50028  21.591   7.586  20.164 -0.0122  0.1449 -0.3682
41229W        W50029  19.300   3.569  25.234 -0.3438  0.4882 -0.2865
41230W        W50030  10.692   2.079  14.717  0.0153 -0.0938  0.1534
41231W        W50031  19.211   4.044  21.103  0.3566  0.1125  0.1396
41232W        W50032   2.035   4.072  22.642  0.0238 -0.0932 -0.0453
41233W        W50033  18.654   0.703   6.668  0.0150 -0.1602 -0.2304
41234W        W50034  11.254   0.615  27.285  0.0197 -0.3106  0.1888
41235W        W50035   9.011   4.735   2.579 -0.2747  0.0971  0.3177
41236W        W50036  11.356   3.915  28.409 -0.0231  0.0603  0.3000
41237W        W50037   7.837   3.262   2.575 -0.0947  0.0815 -0.1806
41238W        W50038   8.323   6.159   0.110 -0.3130  0.1395 -0.2388
41239W        W50039  10.432   2.195  14.330  0.0224  0.2672 -0.0712
41240W        W50040   7.457   6.053   9.447 -0.0069 -0.1590  0.1213
41241W        W50041  10.475   3.881   4.446 -0.1128  0.0739 -0.1405
41242W        W50042   9.460   4.615   3.912 -0.0129 -0.2642  0.0187
41243W        W50043  23.528   1.802   1.589  0.1393 -0.4579 -0.3198
41244W        W50044  18.382   0.057   7.561 -0.0998 -0.0070 -0.0914
41245W        W50045  10.099   2.323  24.437 -0.1599 -0.1729 -0.0175
41246W        W50046  12.740   0.171   2.759  0.1321  0.1993 -0.0954
41247W        W50047   0.230   2.282   2.875 -0.1807 -0.0728  0.1610
41248W        W50048   7.181   2.262  11.299  0.1080  0.0845  0.1037
41249W        W50049  18.068   6.903  21.679  0.1611 -0.1164 -0.2382
41250W        W50050   9.458   6.819   4.448 -0.2439 -0.2850 -0.0576
41251W        W50051  22.026   5.912   3.558  0.0866  0.0640 -0.2825
41252W        W50052  12.624   3.739  29.509 -0.1169 -0.0494  0.1273
41253W        W50053  22.042   5.876  28.696 -0.1159 -0.0772  0.2095
41254W        W50054   5.892   6.199  12.897 -0.1082 -0.0843 -0.1172
41255W        W50055  19.013   1.758  23.282  0.2371  0.0600  0.1760
41256W        W50056   8.473   5.937  22.579  0.1571 -0.0726 -0.1242
41257W        W50057   7.096   7.672   4.581  0.0796  0.2814  0.1286
41258W        W50058   2.228   3.056  11.077  0.1999 -0.1107 -0.0523
41259W        W50059  15.607   1.446   6.972  0.4079  0.2726  0.1616
41260W        W50060  12.440   4.481  23.775  0.1769 -0.1198  0.0864
41261W        W50061  13.274   2.538  15.102  0.2550 -0.2165 -0.0991
41262W        W50062  10.173   0.403   3.973  0.1848  0.0893  0.3223
41263W        W50063   5.272   5.155   3.495 -0.0609 -0.1320  0.2580
41264W        W50064   3.980   2.060  20.915 -0.2276 -0.2029 -0.1717
41265W        W50065  19.483   1.403   3.384 -0.1005 -0.0912 -0.0324
41266W        W50066  19.576   3.105  22.119  0.2258  0.0097  0.1856
41267W        W50067   8.294   2.157   3.757 -0.1754 -0.0237  0.1101
41268W        W50068  21.173   1.296  22.488  0.0782 -0.2253  0.0053
41269W        W50069  10.702   4.388  11.191 -0.2321 -0.2235 -0.0142
41270W        W50070  15.377   6.895   0.494 -0.0261  0.0186  0.0215
41271W        W50071   9.435   2.718  17.342  0.1896  0.0164 -0.1288
41272W        W50072  13.678   0.333  10.045  0.1404 -0.0941 -0.2578
41273W        W50073  13.223   1.662  22.263 -0.0037 -0.2192  0.2424
41274W        W50074   4.551   4.116   6.491 -0.3997  0.1776 -0.0523
41275W        W50075  10.801   5.010  15.137  0.0077 -0.0611 -0.0382
41276W        W50076  13.416   5.466  11.497  0.2007  0.1734  0.0679
41277W        W50077   0.450   1.071   3.599 -0.0839 -0.1253 -0.0577
41278W        W50078  19.244   6.416  28.707  0.1110 -0.3471  0.0243
41279W        W50079  24.052   3.301  21.417 -0.0647  0.0852 -0.0315
41280W        W50080  14.369   3.971  21.612 -0.1655 -0.0478  0.0487
41281W        W50081  22.886   1.283  32.527 -0.0968 -0.0122 -0.0419
41282W        W50082  11.355   5.433  16.737  0.2477 -0.1666  0.1199
41283W        W50083  19.761   0.279   4.000 -0.1414 -0.3129 -0.1582
41284W        W50084  10.646   3.115  28.989 -0.1543  0.1225  0.2040
41285W        W50085  11.288   1.775  16.190  0.1249  0.0174 -0.0127
41286W        W50086  11.966   5.319   0.418  0.0712  0.1352  0.3135
41287W        W50087   5.935   5.994  28.174  0.0111  0.1531  0.2812
41288W        W50088   4.369   7.008   8.399  0.0247 -0.0220  0.3588
41289W        W50089  21.534   0.071  31.145  0.0850 -0.0628 -0.2904
41290W        W50090   0.253   0.159  27.484 -0.1061 -0.2990 -0.4044
41291W        W50091   6.578   0.879   2.816 -0.1010 -0.0014 -0.3759
41292W        W50092  10.962   0.801   6.307  0.0055 -0.0714  0.2367
41293W        W50093  22.377   5.638   4.416 -0.1984  0.0637  0.1239
41294W        W50094  17.750   6.730  19.922  0.0258  0.0413 -0.3166
41295W        W50095   3.790   1.387  11.683 -0.0870 -0.0536  0.2814
41296W        W50096  24.826   1.724   1.439  0.1691  0.0953 -0.0287
41297W        W50097  22.515   7.621  24.366 -0.0595  0.0269  0.0425
41298W        W50098  10.887   3.586  29.297 -0.0426  0.1777 -0.3841
41299W        W50099  23.849   6.394   6.387  0.2839 -0.0251  0.1465
41300W        W50100   7.052   2.729  30.753 -0.0777  0.0910 -0.0719
41301W        W50101  19.782   7.512  30.262 -0.0414  0.1000  0.0739
41302W        W50102  19.658   4.027   6.115  0.0397  0.1232  0.1582
41303W        W50103   4.944   6.816   2.521  0.0010  0.1013 -0.1716
41304W        W50104  13.885   5.311   6.396  0.0173 -0.0334  0.0651
41305W        W50105  20.452   5.361  19.812  0.3352  0.1987  0.1692
41306W        W50106   9.747   7.238  17.429 -0.0599  0.2899 -0.0352
41307W        W50107  24.139   3.093  24.088 -0.0240 -0.2604 -0.0288
41308W        W50108  24.910   4.357  25.307  0.0272  0.1217 -0.1105
41309W        W50109   6.736   2.577  23.003  0.4050 -0.1576  0.0602
41310W        W50110   9.051   5.514  29.751  0.0174  0.0285 -0.3711
41311W        W50111  22.611   6.457  24.500 -0.3056  0.1071 -0.1983
41312W        W50112   5.299   4.708   1.883 -0.0512 -0.3379  0.1918
41313W        W50113  12.858   1.458  28.494  0.2122  0.0220  0.0487
41314W        W50114   7.907   6.863  11.859 -0.3528 -0.1738  0.1551
41315W        W50115  10.917   3.163  14.142  0.1096  0.1175  0.0911
41316W        W50116  21.506   1.881   9.830 -0.5513  0.2216 -0.3490
41317W        W50117   5.768   2.192   3.032 -0.0136  0.2170  0.0564
41318W        W50118  19.271   2.329  16.051 -0.0302  0.1072 -0.3082
41319W        W50119   7.515   4.250   5.583  0.0707  0.3913 -0.0236
41320W        W50120   9.027   6.331   2.611  0.3155 -0.2492  0.0124
41321W        W50121  12.316   5.941  25.770 -0.2012  0.0558 -0.0300
41322W        W50122   2.061   7.525   0.029  0.0903 -0.1732 -0.0012
41323W        W50123  23.215   2.482  31.490 -0.1956 -0.0155 -0.0579
41324W        W50124   6.481   3.537  13.572 -0.0337  0.3246  0.1649
41325W        W50125   3.986   3.159   2.479 -0.1026 -0.2070 -0.2449
41326W        W50126   0.884   6.353  28.144 -0.3252 -0.2386  0.1444
41327W        W50127  14.086   6.113   6.805 -0.0274  0.1390  0.1544
41328W        W50128  22.229   2.224  24.649 -0.0176  0.1878 -0.1756
41329W        W50129  10.650   4.024  13.076  0.0501  0.0365 -0.0093
41330W        W50130  14.664   2.450  23.249 -0.0210 -0.1372 -0.1744
41331W        W50131  19.196   6.509  24.617 -0.0421 -0.2237 -0.1524
41332W        W50132  22.911   0.128  20.224  0.2352 -0.1404  0.0865
41333W        W50133  22.413   3.300  32.359  0.0828  0.0745  0.2353
41334W        W50134  10.192   4.685  12.878 -0.0120 -0.4139 -0.0914
41335W        W50135  21.193   7.338   1.127  0.0878  0.3471 -0.0157
41336W        W50136   5.555   2.914   1.724  0.2042 -0.0999 -0.1368
41337W        W50137  11.728   2.735  28.790  0.0569 -0.1716  0.1281
41338W        W50138   6.137   6.350   8.966  0.3646  0.2802  0.1443
41339W        W50139   5.570   6.022   2.210 -0.2811  0.1974 -0.0966
41340W        W50140  23.728   0.808   4.534 -0.1444 -0.0498 -0.0504
41341W        W50141  15.598   4.792   9.910 -0.0409  0.1328 -0.3210
41342W        W50142  10.402   1.869  13.977 -0.4027  0.0878 -0.0445
41343W        W50143   8.191   1.039   6.086  0.0090 -0.1084 -0.1296
41344W        W50144  16.430   3.621  27.195  0.1903 -0.2166 -0.1432
41345W        W50145  21.160   6.915  17.408 -0.0640  0.0222 -0.1442
41346W        W50146   5.034   1.023   7.302  0.1980 -0.0345  0.3263
41347W        W50147   1.038   2.296   5.492 -0.3821  0.0608  0.1026
41348W        W50148  18.118   0.770   6.671  0.1830 -0.1463 -0.3263
41349W        W50149  10.918   4.831   2.086 -0.1203  0.1687 -0.1577
41350W        W50150   2.553   6.564   2.506  0.3491 -0.0035  0.2446
41351W        W50151   2.288   3.762  19.713 -0.1243  0.1140 -0.1072
41352W        W50152   0.766   0.467  20.494 -0.0205 -0.1873  0.2441
41353W        W50153   6.205   5.868   0.391  0.0669  0.4214  0.2011
41354W        W50154  19.175   0.260   6.068  0.2263 -0.1320  0.2081
41355W        W50155   4.012   1.366  28.742  0.3628 -0.0454  0.0361
41356W        W50156   0.451   5.736  23.833  0.1529  0.3382 -0.1225
41357W        W50157  17.604   2.105   7.528 -0.2117  0.0480 -0.1501
41358W        W50158  16.281   5.277  20.222 -0.3883 -0.2799  0.0488
41359W        W50159   5.109   7.762  30.118  0.0433  0.0244  0.2397
41360W        W50160  24.030   4.991  17.027  0.1314 -0.0876  0.3769
41361W        W50161   4.479   6.232   3.015 -0.0896 -0.1652  0.3130
41362W        W50162  19.438   7.563  27.386  0.0239 -0.2183 -0.3754
41363W        W50163  16.549   0.128   6.844  0.0347 -0.2975 -0.0667
41364W        W50164  22.790   6.813  27.741  0.1234 -0.0159 -0.0168
41365W        W50165   6.029   1.241   7.921 -0.0713  0.1196 -0.0032
41366W        W50166  23.412   3.459   2.812 -0.0001 -0.0990  0.2790
41367W        W50167   4.864   6.521  31.009  0.1711  0.1023  0.2544
41368W        W50168  10.243   7.325  30.048  0.0928  0.0340  0.1035
41369W        W50169   0.489   6.665   8.172  0.0587  0.1586  0.1938
41370W        W50170  12.994   2.853  29.447  0.2512  0.0578  0.0634
41371W        W50171   2.607   5.516   8.734  0.1972  0.2718  0.0111
41372W        W50172   0.191   3.992  26.310 -0.0473  0.2614  0.1435
41373W        W50173   7.474   6.934   6.133 -0.0798  0.1316 -0.1515
41374W        W50174  10.131   7.501   0.618  0.1991  0.1013  0.2216
41375W        W50175  23.177   2.698  18.977 -0.4325 -0.2814 -0.4428
41376W        W50176   2.046   5.771  27.092  0.0482 -0.1890 -0.0433
41377W        W50177   1.075   2.806   4.253 -0.0420  0.1852  0.2035
41378W        W50178  14.942   6.694  24.022 -0.0936  0.2975  0.3043
41379W        W50179  12.925   5.988  27.952 -0.2069 -0.0118  0.1276
41380W        W50180   7.441   5.013  30.703 -0.0654  0.1333  0.1793
41381W        W50181  15.801   7.386   8.235 -0.2118 -0.0124  0.0318
41382W        W50182   8.854   7.754  11.993 -0.0052  0.0445  0.1361
41383W        W50183  13.062   6.332  12.582 -0.0018  0.3391  0.1055
41384W        W50184  20.288   5.779  23.869  0.1957 -0.1197  0.1803
41385W        W50185   6.064   6.912  23.419  0.2432  0.1669  0.1216
41386W        W50186  22.825   0.811  28.398 -0.0027 -0.1143 -0.3001
41387W        W50187   7.148   3.519  16.984  0.0609  0.0994  0.0819
41388W        W50188  19.340   0.262  28.319  0.2496  0.0584  0.1032
41389W        W50189  15.238   2.096  25.901 -0.0803 -0.0072 -0.1191
41390W        W50190  23.440   1.090  24.857  0.1864 -0.0697  0.1279
41391W        W50191  17.184   0.789  11.926  0.1671  0.0086  0.0917
41392W        W50192   6.378   4.911   4.304  0.3664 -0.2051 -0.3204
41393W        W50193  21.982   0.174   4.261  0.1588  0.0108  0.0804
41394W        W50194   1.665   6.803  28.005 -0.1832  0.0522  0.0022
41395W        W50195   6.031   5.777  11.112 -0.0671 -0.1119  0.3727
41396W        W50196   7.763   5.458  27.152  0.0097 -0.0365  0.1429
41397W        W50197  18.997   0.364  18.148  0.6043  0.1329  0.2673
41398W        W50198   5.200   5.951  28.571 -0.0293 -0.2138  0.0966
41399W        W50199  14.004   5.623  25.986 -0.0796  0.2722 -0.1834
41400W        W50200  22.629   2.913  17.386 -0.1012 -0.0177  0.0451
41401W        W50201   9.098   4.941   6.311 -0.0582 -0.1557  0.1040
41402W        W50202  14.189   1.931   9.638  0.0017 -0.0541  0.1675
41403W        W50203   8.932   5.179  31.125 -0.1895 -0.3671  0.0501
41404W        W50204  12.044   4.869   6.161 -0.0839 -0.1329  0.0737
41405W        W50205  22.007   4.397  19.047 -0.0031  0.0678  0.2036
41406W        W50206  14.570   1.014   9.842 -0.0795  0.0468  0.1313
41407W        W50207   9.410   5.481   4.474 -0.5477 -0.1607 -0.1568
41408W        W50208  24.337   4.937   4.848 -0.2296 -0.0640  0.1087
41409W        W50209   8.276   5.427  26.699  0.0915 -0.2633  0.1112
41410W        W50210  10.343   7.509  23.760  0.2137 -0.2284  0.1314
41411W        W50211   5.470   7.666  16.580 -0.0757 -0.2856 -0.1848
41412W        W50212   8.823   1.325  24.791 -0.1060 -0.1014  0.1901
41413W        W50213  11.302   2.144   9.371  0.0630  0.1624  0.0093
41414W        W50214   1.902   0.553  26.662 -0.2031  0.1177 -0.3237
41415W        W50215  11.372   2.086   6.395 -0.0716  0.1744  0.0893
41416W        W50216  23.068   0.079  20.702  0.0433  0.0830  0.1798
41417W        W50217   1.481   3.976  24.517  0.2506 -0.2478 -0.0456
41418W        W50218  10.208   0.096  31.442  0.0520 -0.1056  0.1855
41419W        W50219  21.969   1.128  28.541 -0.0553 -0.1694 -0.2981
41420W        W50220   3.378   2.601  27.044 -0.2611 -0.1508 -0.0457
41421W        W50221  17.633   0.787   9.606  0.3205  0.0446 -0.2351
41422W        W50222   0.198   2.170  19.172  0.1854 -0.0322 -0.2088
41423W        W50223  10.214   1.055   9.085 -0.1347 -0.0846  0.1910
41424W        W50224  13.679   2.143  30.503  0.0611 -0.3073  0.2132
41425W        W50225   4.338   7.789   3.606 -0.3989 -0.0193 -0.2585
41426W        W50226  13.432   6.342   4.519  0.1426 -0.0935  0.2668
41427W        W50227  13.080   4.078  30.300 -0.0633  0.0520  0.0917
41428W        W50228   7.334   0.916  32.235 -0.3533  0.1428  0.0273
41429W        W50229   1.153   1.164  21.178  0.1356  0.1157  0.1269
41430W        W50230  21.089   3.444  28.075  0.3432  0.3754 -0.1417
41431W        W50231   6.879   7.219   3.693 -0.2303 -0.0868 -0.0587
41432W        W50232  18.451   3.043   1.004 -0.3343  0.1128  0.0681
41433W        W50233  16.009   5.162   2.748 -0.0470  0.2119 -0.1237
41434W        W50234  18.994   2.042   8.922  0.0780  0.1670  0.0187
41435W        W50235   8.558   6.370  17.723  0.2144 -0.0910 -0.0296
41436W        W50236  13.026   3.649   4.667 -0.1209  0.4260 -0.0726
41437W        W50237  13.134   4.474  11.568  0.1575  0.1932  0.0399
41438W        W50238   9.472   3.538  25.037  0.0326 -0.2713  0.0083
41439W        W50239  22.049   4.152  23.930  0.0833  0.2124 -0.0048
41440W        W50240  13.663   3.665  24.979 -0.0470 -0.0771  0.1692
41441W        W50241   9.128   1.107   4.309  0.2866 -0.0421 -0.1908
41442W        W50242  23.847   5.497  30.235  0.0091 -0.0202 -0.1825
41443W        W50243  21.216   0.470  31.171  0.0089  0.0647  0.3151
41444W        W50244  19.626   5.616  26.218 -0.0782  0.1846  0.2251
41445W        W50245   1.348   3.555   0.509  0.1297  0.0053  0.1220
41446W        W50246   3.511   6.751   0.359  0.3140 -0.1529 -0.1155
41447W        W50247  14.105   1.941  31.963 -0.1638  0.0730 -0.0527
41448W        W50248  24.885   3.347   0.290  0.1896 -0.0146 -0.3619
41449W        W50249  20.701   6.425  31.287  0.0151 -0.0433  0.2644
41450W        W50250  22.044   6.012  28.092  0.3251  0.2151  0.0331
41451W        W50251   7.765   3.558  27.262 -0.0383 -0.2948  0.0412
41452W        W50252  19.156   4.914   2.315 -0.0876 -0.6374  0.0800
41453W        W50253   6.534   3.567   7.782 -0.0330 -0.0311  0.1235
41454W        W50254   7.649   1.792   0.491  0.0794 -0.0830 -0.0024
41455W        W50255  18.433   0.278   8.500  0.1098  0.1526 -0.0115
41456W        W50256  15.939   0.965  29.169  0.0875  0.0064 -0.2767
41457W        W50257  12.918   1.523   5.773  0.0159 -0.0129 -0.1234
41458W        W50258   6.045   0.126  28.250  0.1171  0.2278  0.4736
41459W        W50259   2.744   6.004  23.480  0.2582 -0.1234  0.1108
41460W        W50260   8.543   4.789  27.829 -0.1108  0.2963  0.3542
41461W        W50261  15.803   2.090   8.078  0.1767  0.0181 -0.2698
41462W        W50262  13.517   7.655   0.960  0.0305  0.0266 -0.2899
41463W        W50263  21.922   0.959  26.186  0.2224  0.1056 -0.0114
41464W        W50264  24.414   0.558  25.035 -0.0162  0.1453 -0.1458
41465W        W50265   7.991   4.458  23.604 -0.1029  0.1333 -0.0026
41466W        W50266  16.410   1.054  23.991  0.0427 -0.0763 -0.1682
41467W        W50267  22.919   4.100   5.643 -0.4185 -0.1611 -0.0540
41468W        W50268   3.076   3.696  32.706 -0.3545 -0.1337 -0.2512
41469W        W50269  21.457   6.482  32.056 -0.1005  0.0551 -0.2416
41470W        W50270  18.540   2.775   9.494 -0.0903  0.0159  0.0444
41471W        W50271   7.492   4.458   6.591  0.2346 -0.0624 -0.0949
41472W        W50272  18.908   0.709  28.971  0.3073 -0.0342 -0.0659
41473W        W50273  21.367   7.367   2.004 -0.1218 -0.0864 -0.0292
41474W        W50274  16.701   0.076   4.273 -0.2585  0.2791  0.1865
41475W        W50275   4.885   1.412  15.128 -0.2760 -0.0862  0.0927
41476W        W50276   9.308   6.262   5.114 -0.1414 -0.0579 -0.0188
41477W        W50277  13.819   6.072   1.266 -0.0351  0.0987  0.0331
41478W        W50278   8.565   4.741   9.994 -0.1934  0.1141  0.1407
41479W        W50279  15.988   3.851  26.897 -0.1649 -0.0552 -0.1558
41480W        W50280  14.104   5.870   5.546  0.0115 -0.0661  0.2032
41481W        W50281  19.199   2.904   9.911  0.1617 -0.0640  0.2260
41482W        W50282  17.548   1.848  21.237  0.0818  0.2095 -0.2555
41483W        W50283  12.750   6.838  30.553  0.2620  0.2510  0.3019
41484W        W50284  23.257   1.781  17.556 -0.1599 -0.1125  0.2628
41485W        W50285  17.933   5.633  23.647  0.0469 -0.0512 -0.3664
41486W        W50286  21.633   6.822   5.311 -0.0463  0.1369  0.2493
41487W        W50287  16.587   3.995   1.510 -0.1602 -0.2594  0.1250
41488W        W50288  13.251   3.949   9.286  0.1364  0.2357 -0.1527
41489W        W50289  16.269   4.048  27.907  0.1084  0.2204 -0.1369
41490W        W50290  23.312   1.213   7.278  0.2327 -0.1473 -0.3063
41491W        W50291  20.182   5.734  16.092 -0.2527  0.0486  0.0033
41492W        W50292   3.462   0.411  31.857 -0.1486 -0.2762  0.2641
41493W        W50293   6.309   1.786  31.766 -0.0247  0.0869  0.2783
41494W        W50294  16.261   4.380   4.469 -0.0131 -0.0335  0.1390
41495W        W50295  23.681   6.730  19.323 -0.1316  0.0861 -0.0840
41496W        W50296   9.454   5.217  12.107  0.2161  0.1184 -0.2266
41497W        W50297  19.884   2.201   3.707 -0.0587  0.0379 -0.0263
41498W        W50298   0.917   1.717   9.663 -0.0834  0.1869 -0.0749
41499W        W50299   1.507   5.309  19.281 -0.3634  0.0809  0.2484
41500W        W50300  21.330   3.534  24.173  0.3119 -0.1764  0.0540
41501W        W50301  17.899   3.390  28.177  0.0789  0.0216 -0.1479
41502W        W50302   7.852   0.097  24.359 -0.2038  0.1411  0.2159
41503W        W50303  19.920   5.053   0.187 -0.0246 -0.0144 -0.2150
41504W        W50304  18.450   6.271   6.623  0.2147 -0.1539 -0.4213
41505W        W50305  14.599   2.865  28.537  0.2322 -0.0209 -0.0613
41506W        W50306  11.284   6.423  16.748  0.2836  0.1394  0.1575
41507W        W50307  21.141   2.688  21.998 -0.0753  0.3244 -0.2808
41508W        W50308   8.556   7.037  30.004  0.2720 -0.2991  0.0674
41509W        W50309  21.556   1.573  22.263  0.0434  0.0555 -0.1228
41510W        W50310  22.404   1.663  22.544  0.0857  0.1623 -0.2849
41511W        W50311   2.371   4.515   8.024 -0.4123 -0.0539  0.1406
41512W        W50312   3.526   4.994   6.605 -0.0500 -0.3308  0.2562
41513W        W50313  18.041   6.142   6.379 -0.0558  0.0284 -0.1083
41514W        W50314  15.051   6.603  23.026 -0.1850  0.1922  0.0693
41515W        W50315  10.185   7.431  12.272  0.0425 -0.0703 -0.1245
41516W        W50316  15.087   3.731  24.532  0.3250  0.2137  0.0192
41517W        W50317   2.830   3.151  12.456  0.0044  0.2976 -0.0540
41518W        W50318   1.818   3.771  24.836 -0.1930 -0.1282 -0.0526
41519W        W50319  10.667   3.164  23.548  0.0639  0.2015  0.1746
41520W        W50320  20.712   5.953  28.057 -0.0025  0.6042  0.0400
41521W        W50321   2.397   7.075  11.859 -0.1246  0.0450 -0.1425
41522W        W50322  12.117   5.528   6.755  0.1382 -0.3063 -0.0327
41523W        W50323  11.889   4.074  14.206 -0.1049 -0.0679 -0.0624
41524W        W50324   3.003   0.900   1.208  0.0484  0.1175  0.1173
41525W        W50325  24.740   0.512   9.223  0.1061  0.0986 -0.2401
41526W        W50326  22.762   0.631  17.242 -0.2381 -0.1805  0.1123
41527W        W50327   2.849   5.728  21.713 -0.1348  0.0091 -0.2244
41528W        W50328  24.349   1.095  24.062 -0.1438  0.0659 -0.0963
41529W        W50329  10.872   4.250  12.178  0.1949  0.0243 -0.1618
41530W        W50330   9.991   1.515   9.288  0.1416  0.0711 -0.2288
41531W        W50331  11.057   3.421  30.617 -0.2003  0.1872 -0.3038
41532W        W50332   3.587   1.922   7.258  0.1589 -0.4154 -0.1324
41533W        W50333  16.738   2.601  26.984 -0.1502  0.0620  0.0645
41534W        W50334  16.228   3.167   6.347  0.2374 -0.2935  0.0560
41535W        W50335  17.935   2.022  15.611  0.1051  0.0499 -0.1172
41536W        W50336   1.259   0.987  27.347 -0.1830 -0.1199  0.0721
41537W        W50337   0.342   3.528   3.753 -0.2785 -0.2761 -0.1215
41538W        W50338  22.297   7.664   8.097  0.0586  0.1597  0.1422
41539W        W50339  10.510   0.967   3.318 -0.2113 -0.0643 -0.1128
41540W        W50340  10.050   5.371  28.205 -0.1625 -0.2353  0.1981
41541W        W50341  19.323   5.785  30.566 -0.2864  0.0752 -0.2583
41542W        W50342  18.181   0.946  25.029  0.2351 -0.1333  0.0928
41543W        W50343  18.055   4.781   5.964 -0.0639 -0.0861 -0.0830
41544W        W50344  11.958   0.097  21.783  0.1865  0.1609  0.2584
41545W        W50345   2.428   2.253   5.054  0.2549  0.2036 -0.1286
41546W        W50346  22.321   0.967  32.231  0.2388  0.3155  0.0163
41547W        W50347   4.950   3.658  26.939  0.1832  0.0035 -0.0763
41548W        W50348   4.518   1.998  10.439  0.1855  0.1756 -0.0198
41549W        W50349  19.615   1.849  30.302 -0.2542 -0.1953 -0.0436
41550W        W50350   9.971   1.526  11.609 -0.0871  0.0047 -0.0650
41551W        W50351  21.469   2.241   6.670 -0.3705 -0.0487 -0.2029
41552W        W50352  17.103   5.957  16.406  0.1992  0.1417 -0.3295
41553W        W50353  18.890   6.609  31.022  0.2414 -0.1218  0.0380
41554W        W50354  19.973   2.787   9.377 -0.2026 -0.0474  0.1475
41555W        W50355  19.180   2.475  27.835  0.3102  0.1438  0.1691
41556W        W50356  19.125   4.063   0.659 -0.2157 -0.0057  0.1355
41557W        W50357  11.811   5.176  10.336 -0.2172  0.0175  0.0321
41558W        W50358  22.722   6.654  15.555  0.3160 -0.0907  0.1832
41559W        W50359   7.532   0.308   8.695 -0.0045 -0.1350 -0.3892
41560W        W50360  12.709   6.102  32.047  0.1025 -0.0375 -0.0179
41561W        W50361   6.921   1.837  11.692 -0.0736 -0.1191 -0.2985
41562W        W50362  14.124   7.353   3.676  0.0965 -0.0639  0.1554
41563W        W50363   7.646   5.875  25.992 -0.1938 -0.1559 -0.0626
41564W        W50364  11.170   1.499  27.838 -0.4344 -0.1099 -0.0728
41565W        W50365   0.950   6.186  17.739  0.1601  0.0993 -0.2467
41566W        W50366  20.495   1.295  31.035 -0.1295  0.5490 -0.0542
41567W        W50367  18.849   3.148   1.830  0.0945 -0.0153 -0.1458
41568W        W50368  15.417   4.402  27.414 -0.0362  0.1274 -0.2699
41569W        W50369   8.717   3.853  28.098  0.0776 -0.0944  0.2053
41570W        W50370  13.391   2.993  27.696 -0.2557  0.0514 -0.2680
41571W        W50371  19.699   2.039  20.444  0.1937  0.1165  0.1069
41572W        W50372  11.946   0.099  17.322  0.1403 -0.0884 -0.0106
41573W        W50373   6.946   4.984   3.622  0.4542  0.3004 -0.2435
41574W        W50374  13.516   2.572   2.270  0.1442 -0.0914  0.0248
41575W        W50375  15.553   1.958   7.202  0.1668 -0.1688  0.0857
41576W        W50376   8.497   0.854   8.973  0.0449 -0.0446 -0.2154
41577W        W50377  14.260   6.084  23.181 -0.0753  0.0191 -0.1216
41578W        W50378  16.438   3.407  10.915  0.1237 -0.0482  0.2370
41579W        W50379  22.580   1.210  24.873 -0.1142 -0.2724  0.2955
41580W        W50380  15.804   5.413   4.630  0.2277  0.2860 -0.0952
41581W        W50381  23.146   5.098  25.721  0.0721 -0.0247 -0.0733
41582W        W50382   8.097   4.522  27.820  0.2657 -0.0612  0.0211
41583W        W50383   2.577   2.330  12.090  0.0846  0.0456 -0.2676
41584W        W50384  20.969   5.632   2.656  0.0139  0.1423 -0.5135
41585W        W50385  19.294   3.411   7.794  0.1756  0.3036 -0.1376
41586W        W50386  22.190   3.469  15.075  0.0038 -0.1771 -0.3230
41587W        W50387  19.691   7.731  19.156 -0.0793 -0.0671 -0.1772
41588W        W50388   8.555   6.687  14.334 -0.1676 -0.1805  0.3353
41589W        W50389   8.091   6.974  15.394 -0.0180  0.0477 -0.3244
41590W        W50390   2.432   4.158  12.667  0.0882 -0.0354  0.0440
41591W        W50391  16.443   7.127  10.015 -0.1562  0.0999 -0.0211
41592W        W50392  24.811   2.799   6.184 -0.0091  0.0689 -0.0092
41593W        W50393  20.155   7.340   6.264 -0.2792  0.1370  0.1966
41594W        W50394  11.468   4.576  28.753 -0.0805  0.1711  0.1505
41595W        W50395   2.067   5.121  26.422 -0.2045  0.1686  0.3422
41596W        W50396   9.352   5.539  26.906  0.2003  0.0145 -0.0081
41597W        W50397  20.610   7.719  24.768  0.1045 -0.1981  0.1738
41598W        W50398  22.442   5.467   2.177 -0.2762  0.0346  0.1994
41599W        W50399  13.641   7.257  32.504 -0.2494  0.0773 -0.1313
41600W        W50400   2.165   4.365   1.355 -0.0593 -0.0698  0.0762
41601W        W50401  20.100   5.975  27.403  0.1055  0.2034  0.0583
41602W        W50402  19.793   3.450   1.115  0.2976  0.0373  0.0913
41603W        W50403  11.849   4.516  23.257 -0.1697 -0.1274  0.0689
41604W        W50404  19.420   1.462  19.530 -0.1479  0.1043  0.2784
41605W        W50405  10.184   7.560   2.362 -0.0358 -0.2622  0.2218
41606W        W50406  16.425   4.397  10.296 -0.1186 -0.0923  0.0659
41607W        W50407  21.024   5.149  15.557 -0.1748  0.0852  0.3087
41608W        W50408  23.841   2.854  23.190  0.1903  0.0516 -0.0573
41609W        W50409  12.868   5.260   3.115  0.0268 -0.0169  0.1145
41610W        W50410   6.274   6.919  15.071  0.3806 -0.0358 -0.3588
41611W        W50411  12.983   1.819   5.407  0.0158 -0.1910 -0.1598
41612W        W50412   8.904   5.679  16.461  0.1552 -0.1695  0.2713
41613W        W50413  10.632   6.678  26.900 -0.0224  0.1851  0.1835
41614W        W50414  16.110   5.086   9.214  0.1390 -0.2973 -0.1454
41615W        W50415  14.144   6.233  31.943  0.0782  0.1645  0.0925
41616W        W50416  24.823   0.339  11.516 -0.1824  0.0617  0.1192
41617W        W50417   4.439   7.003   0.903  0.5466 -0.2311 -0.1140
41618W        W50418  22.872   4.961   5.775 -0.1043 -0.0509  0.2716
41619W        W50419   6.704   1.324   1.148  0.1124  0.0052  0.1809
41620W        W50420  21.020   5.061  24.036 -0.1404  0.0020 -0.3554
41621W        W50421  14.468   4.809   1.557 -0.1417  0.1199  0.1568
41622W        W50422  16.714   7.246  25.036  0.0980  0.2581  0.0208
41623W        W50423   7.389   5.809   2.033 -0.0468 -0.0282  0.5188
41624W        W50424  14.513   6.587   2.688 -0.0151  0.1266 -0.1249
41625W        W50425   2.048   5.168  10.911  0.3496  0.1644  0.1915
41626W        W50426  21.227   6.531  29.021 -0.0875  0.0985  0.0530
41627W        W50427  10.199   0.650   8.632 -0.2560 -0.0792 -0.3487
41628W        W50428   4.790   5.035  26.625 -0.2016  0.1748  0.0057
41629W        W50429  20.628   1.237   2.640 -0.0002 -0.1547  0.0016
41630W        W50430  18.056   2.275   3.606  0.0172  0.1803 -0.1178
41631W        W50431  12.599   0.192  28.246 -0.0939 -0.5061  0.0257
41632W        W50432  20.936   0.403  29.385  0.0627 -0.2140 -0.0479
41633W        W50433   8.972   5.072  15.124 -0.1331 -0.1846 -0.2376
41634W        W50434   7.441   1.728   3.130 -0.0656  0.0963  0.0255
41635W        W50435   8.571   6.785  25.017 -0.1633 -0.1186 -0.1083
41636W        W50436   4.815   5.906   6.042  0.0759 -0.1670 -0.3766
41637W        W50437   3.574   5.325  10.552  0.1177  0.1058 -0.0819
41638W        W50438   0.037   6.596  22.705  0.0253 -0.1357  0.0077
41639W        W50439   2.929   4.119   5.417  0.1258  0.4032 -0.0857
41640W        W50440   9.392   0.451   7.756  0.1835  0.1104 -0.0862
41641W        W50441  24.175   5.996   3.913 -0.1420 -0.0283  0.0068
41642W        W50442  16.970   2.425  16.634  0.0991 -0.0581 -0.2765
41643W        W50443  12.081   3.989  10.170  0.0583  0.0558 -0.2434
41644W        W50444  22.315   6.505  32.192  0.1254 -0.1746  0.3078
41645W        W50445  10.427   5.021  16.902 -0.1580 -0.3296 -0.0282
41646W        W50446   9.526   1.484  28.231  0.1469  0.1198  0.0657
41647W        W50447   8.804   3.619  31.618  0.2120 -0.3617 -0.0520
41648W        W50448   5.006   1.899  10.253  0.0535 -0.2099 -0.3699
41649W        W50449   6.434   7.424   2.370 -0.0598 -0.4515  0.1574
41650W        W50450  16.384   4.263   3.394  0.0255  0.3362 -0.0534
41651W        W50451   8.033   0.149   8.869 -0.6887  0.4446  0.0891
41652W        W50452   0.668   7.804   0.299  0.0253 -0.2897  0.3313
41653W        W50453  13.810   0.819   6.310 -0.0248 -0.1530 -0.0049
41654W        W50454  12.501   0.912  30.940  0.1675 -0.1624 -0.3001
41655W        W50455  21.999   4.261  29.031 -0.2335 -0.1586  0.2323
41656W        W50456  20.541   1.566  13.815  0.0545  0.1316 -0.1921
41657W        W50457   3.883   2.045  24.992  0.2119 -0.1044  0.1240
41658W        W50458  20.157   0.436   9.477 -0.1284 -0.4339  0.2355
41659W        W50459   8.734   2.392   3.989 -0.0707  0.2778  0.0814
41660W        W50460   8.526   4.308   0.880  0.1445 -0.1988  0.0511
41661W        W50461   3.229   7.387   4.844  0.0091  0.4684  0.4062
41662W        W50462   1.395   3.107  22.051  0.1697 -0.2708 -0.0132
41663W        W50463  13.548   5.904   1.686 -0.2280  0.1966  0.0212
41664W        W50464   0.240   1.772  31.158 -0.1965  0.0621  0.1602
41665W        W50465  24.624   5.853  24.262  0.0187  0.1551  0.2200
41666W        W50466  22.611   3.430   3.453 -0.2034  0.3240  0.1569
41667W        W50467   6.130   7.575  29.371 -0.0271 -0.1512  0.2480
41668W        W50468  12.469   1.763   7.340  0.1444 -0.1317  0.1952
41669W        W50469   2.051   7.043  27.750  0.0833 -0.3658  0.0580
41670W        W50470  20.695   6.223   9.569  0.0680 -0.0147 -0.1697
41671W        W50471  18.194   3.135  30.569 -0.0053 -0.0498 -0.1793
41672W        W50472  13.141   0.455  22.746  0.3236  0.1862  0.0370
41673W        W50473  15.914   1.147  32.688  0.3245  0.2154 -0.0333
41674W        W50474  11.708   4.197  22.939 -0.0133  0.0215 -0.2235
41675W        W50475  17.290   1.452   4.011  0.0834 -0.2866  0.0384
41676W        W50476  21.268   6.642  27.083  0.3813 -0.1028  0.1084
41677W        W50477   0.530   2.086  31.430  0.1725  0.2399  0.0122
41678W        W50478   9.731   7.626  12.391  0.2281  0.2392 -0.0972
41679W        W50479   7.289   2.902  10.337 -0.1064 -0.2071 -0.2675
41680W        W50480   2.452   5.444  26.739 -0.2689 -0.2046  0.5089
41681W        W50481   3.496   5.898  27.853  0.0919 -0.1225 -0.0180
41682W        W50482  19.222   6.667  20.114  0.0278 -0.2325 -0.3505
41683W        W50483   5.214   2.482  11.797 -0.1645  0.0367 -0.1147
41684W        W50484   6.559   4.108  25.099 -0.1832  0.0289 -0.1845
41685W        W50485  19.697   4.913  28.629 -0.0792 -0.0598  0.0890
41686W        W50486   7.139   6.475  31.535  0.0184  0.0537  0.1790
41687W        W50487   6.289   4.884  25.273  0.2582  0.0778  0.0664
41688W        W50488   7.860   4.167  10.359  0.0218 -0.2466 -0.0110
41689W        W50489  11.630   7.126  32.304  0.0910  0.0340 -0.0618
41690W        W50490   4.061   0.483   5.955  0.1617  0.1676 -0.2720
41691W        W50491  17.063   0.411   4.380  0.0534  0.0253 -0.1620
41692W        W50492  10.296   3.146  12.253 -0.0189 -0.2012 -0.0641
41693W        W50493  14.446   3.529  21.724  0.2041  0.2641 -0.1007
41694W        W50494  24.658   0.350   4.697  0.2198  0.0379  0.1731
41695W        W50495  10.327   6.033  15.388 -0.3283  0.2684  0.0927
41696W        W50496  11.057   7.485   6.020  0.0028  0.1295 -0.0265
41697W        W50497  19.371   6.900   4.078 -0.4102  0.0585  0.1181
41698W        W50498   0.377   7.427   2.925  0.0884  0.1346 -0.1511
41699W        W50499  15.571   3.624   4.370  0.1536  0.0220 -0.3026
41700W        W50500  12.669   3.860   6.541  0.0108 -0.0188  0.3423
41701W        W50501   5.847   1.470  28.987  0.3256 -0.0575  0.2382
41702W        W50502   4.038   6.085   7.476 -0.0861 -0.4678 -0.0902
41703W        W50503  12.710   6.644  25.296 -0.0343 -0.1576 -0.0493
41704W        W50504  10.674   5.404  12.437  0.1032  0.0210  0.0350
41705W        W50505  16.684   1.409  10.524 -0.0582  0.0176  0.0397
41706W        W50506   8.812   2.568   9.268 -0.1774 -0.2638  0.1242
41707W        W50507  22.689   6.833  25.895 -0.0873  0.2642 -0.0340
41708W        W50508   2.387   7.061  12.338  0.1531 -0.1375 -0.2115
41709W        W50509  21.084   6.968  30.181 -0.2176  0.0168  0.0195
41710W        W50510  13.675   4.246  31.733  0.0308 -0.0992 -0.1669
41711W        W50511  21.963   2.450  29.541  0.0931  0.1024  0.0965
41712W        W50512  13.612   2.480   2.900  0.1046  0.0870 -0.1547
41713W        W50513   5.910   1.954  14.947  0.0165  0.0651 -0.1052
41714W        W50514  12.809   2.477  11.558  0.0332  0.0640  0.0023
41715W        W50515   4.638   1.468  25.541  0.1299 -0.0642 -0.0862
41716W        W50516   5.914   2.348   7.328  0.2075  0.0610  0.1186
41717W        W50517  21.821   1.270  26.562  0.1295 -0.0049  0.0556
41718W        W50518  19.602   0.296  24.010  0.0044  0.0365 -0.1735
41719W        W50519   5.409   2.273  28.550 -0.0369 -0.0413 -0.1606
41720W        W50520   0.516   6.679  16.649 -0.0944 -0.0040 -0.0220
41721W        W50521  15.343   6.222   0.850  0.3240  0.0873 -0.0781
41722W        W50522   2.505   4.447  30.574  0.2880 -0.2030  0.1435
41723W        W50523  11.946   2.035  24.296  0.2084  0.0798  0.0656
41724W        W50524  15.039   7.415  29.577 -0.1872 -0.0164  0.2178
41725W        W50525  15.523   1.568  25.084  0.0567  0.1538  0.0480
41726W        W50526  19.844   1.568  26.490 -0.1161  0.1511 -0.1685
41727W        W50527  19.834   3.460  14.431  0.0629  0.1609  0.2450
41728W        W50528  10.029   2.717  23.357  0.1041  0.0029  0.1792
41729W        W50529  11.471   2.728   2.399 -0.0636 -0.0551  0.2048
41730W        W50530  20.963   1.708  10.439  0.2009  0.0939 -0.0025
41731W        W50531   4.343   1.925  29.716  0.1098  0.0647  0.1590
41732W        W50532  14.157   7.000  31.123  0.1874  0.0392 -0.0873
41733W        W50533  19.204   3.830  17.638  0.1608 -0.0758 -0.2494
41734W        W50534  22.753   6.258  32.137  0.0327  0.1969  0.0937
41735W        W50535   5.735   5.439   0.410 -0.1276  0.0829 -0.0131
41736W        W50536  12.334   1.182   4.226  0.2649  0.0776  0.0118
41737W        W50537  17.835   1.464  16.843 -0.1953 -0.2237 -0.2289
41738W        W50538  21.277   2.309   7.533  0.1970  0.1424 -0.1337
41739W        W50539  14.693   1.007   5.426 -0.0896 -0.5099  0.0735
41740W        W50540  21.264   6.102   8.075  0.1629  0.0843 -0.1319
41741W        W50541  24.346   5.406  26.064  0.1567 -0.2382 -0.0350
41742W        W50542  11.279   1.281   8.385  0.1245  0.0135  0.1091
41743W        W50543  22.947   0.500   3.308 -0.0070 -0.3472 -0.0483
41744W        W50544   6.968   6.127  27.056 -0.0979 -0.0352  0.2228
41745W        W50545  14.059   5.721  13.626  0.1156  0.2703 -0.0921
41746W        W50546   9.823   0.710  16.580 -0.2724  0.2147  0.3082
41747W        W50547  12.797   2.959  32.243 -0.2038  0.2331  0.0383
41748W        W50548  11.837   4.477  26.889 -0.1225 -0.0049 -0.1183
41749W        W50549   8.168   5.369  29.610 -0.0166  0.1173  0.0700
41750W        W50550  10.220   6.042  12.660 -0.0256 -0.0901  0.0002
41751W        W50551  16.707   5.372  11.722  0.0898  0.1989  0.1934
41752W        W50552  13.221   0.392  22.217  0.1951 -0.1337 -0.1847
41753W        W50553   0.131   6.374  31.886 -0.2375  0.3319 -0.0462
41754W        W50554   2.170   3.866  27.376  0.2732  0.0179  0.0579
41755W        W50555  11.356   0.330   2.922 -0.2671  0.0981  0.0097
41756W        W50556   1.363   3.031  21.213  0.0814  0.0120  0.0017
41757W        W50557   8.880   1.830   0.628 -0.1379  0.1234 -0.0741
41758W        W50558  13.475   2.299   3.341  0.2848  0.0164  0.1261
41759W        W50559  12.922   3.336   1.227 -0.1910 -0.1149 -0.2709
41760W        W50560   1.242   1.333   9.594 -0.1128  0.0161  0.2741
41761W        W50561  23.070   2.719  23.859  0.0221 -0.4485  0.0558
41762W        W50562   2.889   4.256  22.949 -0.1380 -0.1689 -0.1837
41763W        W50563  20.466   0.792   3.943  0.1021  0.1076  0.1834
41764W        W50564  16.061   5.282   0.109 -0.3651 -0.1178 -0.0962
41765W        W50565  20.079   2.657  14.487  0.2359 -0.1539  0.3812
41766W        W50566  18.103   2.976   1.986  0.1812  0.0931  0.1625
41767W        W50567  12.855   1.045  31.353  0.0549  0.0708 -0.0842
41768W        W50568  14.514   3.666   6.473 -0.0331  0.1384  0.2636
41769W        W50569   6.637   7.413  13.545  0.0433 -0.0670  0.0998
41770W        W50570  21.439   1.033  26.287  0.1618 -0.1609  0.0680
41771W        W50571  19.766   1.694  27.950  0.0924  0.0959  0.1616
41772W        W50572   4.157   5.176   8.899 -0.2030  0.3509  0.4281
41773W        W50573  13.502   2.373  25.186  0.1798 -0.2716 -0.0986
41774W        W50574   4.693   2.370  10.124 -0.0058 -0.0307  0.1927
41775W        W50575  10.295   6.204   8.897 -0.0741 -0.1140 -0.0851
41776W        W50576  18.070   2.815  17.413 -0.1753  0.0761 -0.0952
41777W        W50577  17.405   4.334  16.858  0.1957  0.0688  0.0660
41778W        W50578  19.439   2.577  17.402 -0.1857  0.3549  0.0767
41779W        W50579   5.851   4.089  27.212 -0.1266 -0.1129  0.5045
41780W        W50580  15.948   7.068  22.152  0.1241  0.1092 -0.0595
41781W        W50581  17.943   7.210   5.373 -0.4332  0.1719  0.2847
41782W        W50582   0.946   7.773   9.087  0.0834  0.1279  0.2881
41783W        W50583  19.715   0.970  22.776  0.0618 -0.0483 -0.0811
41784W        W50584   4.260   5.854   8.346 -0.3709  0.1377 -0.2396
41785W        W50585  10.135   4.208  25.236 -0.0457 -0.1193 -0.1042
41786W        W50586  17.533   3.754   3.059 -0.0870  0.0929 -0.0344
41787W        W50587  14.238   2.843  32.332 -0.0850  0.0812 -0.0509
41788W        W50588  17.341   3.689  19.368 -0.2567 -0.0711  0.2950
41789W        W50589  20.041   6.054   2.803  0.0400  0.1213 -0.3195
41790W        W50590  12.244   0.015  22.713 -0.2120  0.1313 -0.0115
41791W        W50591  17.814   3.519  30.798 -0.0286 -0.3956  0.0071
41792W        W50592   1.303   2.163  20.855  0.1447 -0.0590 -0.1307
41793W        W50593  23.810   1.775   3.632  0.1029  0.0695  0.1596
41794W        W50594  17.601   2.689  28.867  0.1146  0.2236  0.1837
41795W        W50595  18.484   4.428   4.131  0.0285 -0.0264  0.4202
41796W        W50596   2.210   5.586  25.973 -0.1793 -0.0741  0.2254
41797W        W50597  13.037   4.531  29.840  0.0331  0.1617  0.0360
41798W        W50598  21.027   1.635  28.586 -0.0907 -0.0454  0.0871
41799W        W50599   9.856   3.828  26.164  0.1320 -0.2298 -0.0158
41800W        W50600  16.877   4.552  19.808 -0.0312  0.4345  0.2534
41801W        W50601  20.441   0.351  16.595  0.2907  0.0789 -0.1066
41802W        W50602   0.788   3.494  28.353 -0.2546  0.2946  0.3378
41803W        W50603   6.362   1.493  16.760 -0.2692  0.1443 -0.0927
41804W        W50604   9.666   2.627  12.821  0.1442 -0.0611 -0.1637
41805W        W50605  11.128   1.979   7.842 -0.0747  0.0667 -0.2571
41806W        W50606  19.055   0.956   2.660 -0.0915 -0.1478  0.0921
41807W        W50607  23.374   4.671  28.921 -0.1935 -0.0626 -0.3456
41808W        W50608   7.434   0.691   2.759 -0.1059  0.0113  0.0454
41809W        W50609   2.095   0.055   2.347 -0.1016 -0.1147 -0.0106
41810W        W50610   7.586   1.405   0.926 -0.0602  0.0594 -0.1869
41811W        W50611  20.254   4.471  30.684  0.0369  0.0585 -0.1011
41812W        W50612  16.572   4.573  20.395  0.1012 -0.1714 -0.0803
41813W        W50613  12.225   0.874  14.739 -0.0574  0.0899  0.1189
41814W        W50614   1.468   0.893  31.654 -0.0212  0.0015  0.0777
41815W        W50615  17.398   4.221  10.454  0.1340 -0.2124 -0.1819
41816W        W50616  15.154   5.479   6.788  0.1146 -0.1420  0.0914
41817W        W50617   5.235   5.595   9.079  0.0333 -0.1638  0.3038
41818W        W50618  17.523   6.792  30.216  0.1272  0.0557 -0.1470
41819W        W50619  11.058   0.422   5.342  0.0043 -0.1049  0.2309
41820W        W50620   3.027   6.646  22.958 -0.0483 -0.0469 -0.0064
41821W        W50621  16.904   3.803   9.190 -0.0685 -0.1108 -0.1574
41822W        W50622  13.390   2.337  23.985 -0.0289  0.0055 -0.2581
41823W        W50623  21.406   3.269  24.628  0.0517 -0.0174 -0.0813
41824W        W50624   9.917   6.052  26.402 -0.2038  0.0634  0.2361
41825W        W50625  10.654   4.013  26.480  0.1937 -0.3396 -0.0578
41826W        W50626  13.290   2.135  14.829 -0.1019  0.0242  0.0304
41827W        W50627   6.954   3.581  14.616 -0.1679  0.2065 -0.3295
41828W        W50628  17.267   2.488  29.593  0.0392 -0.1851  0.0503
41829W        W50629   6.478   0.986  27.350  0.0322 -0.1480 -0.1722
41830W        W50630  13.126   3.042   0.393 -0.0894 -0.1234 -0.3418
41831W        W50631  17.770   7.038   1.731  0.0216  0.2298  0.1888
41832W        W50632   0.470   6.683  29.982  0.2658 -0.0006  0.0729
41833W        W50633   0.996   3.086  32.500  0.0096 -0.0847  0.0339
41834W        W50634  15.335   7.601  25.528 -0.3219  0.1839 -0.2851
41835W        W50635   6.933   1.785   1.425  0.0622 -0.3149  0.2207
41836W        W50636  10.710   2.175  10.768 -0.0780  0.1504  0.5689
41837W        W50637  13.726   6.165   7.197 -0.1117  0.1534 -0.1407
41838W        W50638  13.972   0.519   3.451 -0.1118 -0.0211  0.1359
41839W        W50639   6.968   5.849  23.978 -0.1230 -0.1145  0.1604
41840W        W50640  18.995   6.812  24.296 -0.1654  0.1628  0.2552
41841W        W50641  18.082   4.861  31.167 -0.0824 -0.3276  0.4674
41842W        W50642  24.306   1.003  30.831  0.2559  0.0389  0.3094
41843W        W50643  13.407   7.452  28.575 -0.1434 -0.0107 -0.2189
41844W        W50644  14.372   7.053   4.673  0.1176  0.0591  0.0733
41845W        W50645  15.050   0.329   7.023 -0.1246 -0.2846 -0.3530
41846W        W50646   5.788   2.557  16.297 -0.0226  0.0946  0.1785
41847W        W50647  16.169   4.206   9.264  0.2426  0.3494  0.0814
41848W        W50648  24.413   6.212  25.520  0.1767  0.0021  0.1566
41849W        W50649   6.214   5.866   4.473  0.2945  0.4636 -0.0967
41850W        W50650   9.380   6.798  16.299  0.1413 -0.2513  0.2476
41851W        W50651   6.431   7.620  25.526  0.2375  0.0312  0.2468
41852W        W50652  21.278   0.889   4.581 -0.1851 -0.1086 -0.1323
41853W        W50653   7.542   4.072   1.428  0.2667 -0.1385  0.0251
41854W        W50654   6.949   2.618  23.994 -0.2502 -0.2114 -0.3343
41855W        W50655  20.957   7.807   8.394  0.1441  0.0381 -0.2476
41856W        W50656  17.166   4.638  17.192  0.6439  0.0342 -0.0899
41857W        W50657  23.407   3.744   6.982 -0.2069  0.1396  0.0745
41858W        W50658   8.127   3.531   8.592  0.3496 -0.0565  0.1456
41859W        W50659   9.712   7.192  29.894 -0.0047 -0.1380  0.0030
41860W        W50660   3.831   0.470  24.243  0.0271  0.0979  0.1465
41861W        W50661  17.515   4.858  18.476  0.1082  0.0552  0.1268
41862W        W50662  15.207   5.510  24.873  0.0719  0.2116 -0.3397
41863W        W50663  16.647   2.719   3.413 -0.1245  0.2809 -0.0305
41864W        W50664   7.329   7.545  16.872 -0.0487 -0.0600 -0.0532
41865W        W50665  17.214   7.766   5.636  0.4358 -0.1843 -0.1516
41866W        W50666  14.869   6.878   4.555  0.4101 -0.0098  0.1098
41867W        W50667   4.349   1.985   1.845 -0.1055  0.1887  0.1630
41868W        W50668  19.847   2.272   2.143  0.1117  0.2693 -0.2314
41869W        W50669  17.475   0.990  19.768  0.4483 -0.1318  0.0023
41870W        W50670  12.211   3.521   5.843  0.0158 -0.1263 -0.1862
41871W        W50671  19.611   0.766   6.552  0.0982 -0.1644 -0.0296
41872W        W50672   9.013   7.743  18.133  0.1335 -0.0368 -0.0200
41873W        W50673  20.422   2.292   4.973 -0.2013 -0.1862  0.3702
41874W        W50674  22.491   5.104  24.018 -0.1149 -0.0544 -0.3998
41875W        W50675  22.797   3.991   1.225 -0.3122 -0.1482  0.2105
41876W        W50676  21.958   3.775   1.630  0.0428  0.0325  0.0851
41877W        W50677   7.356   6.554  16.928 -0.0303 -0.0079 -0.0858
41878W        W50678  17.268   0.738  18.394 -0.1088  0.0436  0.0840
41879W        W50679   2.342   1.373  22.554  0.1398  0.0999  0.1494
41880W        W50680   2.079   2.106   0.243 -0.2975  0.1693 -0.0996
41881W        W50681  21.038   1.124  16.683  0.0823  0.4131 -0.1082
41882W        W50682  11.232   6.515  27.643 -0.3437 -0.0082 -0.3110
41883W        W50683  12.569   0.561  29.747 -0.1359  0.0637  0.1498
41884W        W50684  21.330   2.558   5.368  0.1746 -0.0134 -0.1276
41885W        W50685  22.123   2.447   6.547  0.0857  0.1740 -0.1677
41886W        W50686   1.927   1.791   4.607 -0.3970  0.0746  0.0204
41887W        W50687  18.098   0.691  15.538  0.1714  0.1186  0.0111
41888W        W50688   0.727   0.538  29.184 -0.3674 -0.0547  0.0292
41889W        W50689  19.801   6.229  28.696  0.0820 -0.2097 -0.1210
41890W        W50690  14.682   5.110  29.977  0.1580  0.0603  0.2897
41891W        W50691  18.693   7.644  32.374  0.1012  0.2206 -0.1348
41892W        W50692   6.979   2.293   6.540 -0.2724  0.1179 -0.0667
41893W        W50693  23.236   2.240   9.558 -0.0227 -0.0300 -0.0231
41894W        W50694   3.619   1.610  25.203 -0.2182 -0.1516  0.1058
41895W        W50695  17.234   0.523  22.686 -0.1581  0.1698  0.1874
41896W        W50696  21.915   6.424   3.614 -0.2298  0.0080 -0.1580
41897W        W50697  19.911   4.721   7.783 -0.0989  0.1260  0.0273
41898W        W50698   6.168   7.099  16.474 -0.0177 -0.1505 -0.0276
41899W        W50699   9.209   7.161  12.500 -0.1993 -0.1657 -0.0133
41900W        W50700  21.771   6.713  15.766  0.0448  0.0124  0.0147
41901W        W50701   5.464   4.467  29.396  0.2062  0.3594 -0.0085
41902W        W50702  16.673   5.907  19.880 -0.1496 -0.0481 -0.0970
41903W        W50703   5.078   6.474  28.564 -0.0166  0.0244  0.0194
41904W        W50704  14.984   3.149   7.760 -0.0324 -0.0163  0.1474
41905W        W50705  24.571   7.073  25.878  0.3932  0.0484 -0.1032
41906W        W50706   0.996   5.038   0.745  0.0046  0.0143 -0.2445
41907W        W50707  19.817   2.077  27.473 -0.1566  0.1221  0.2085
41908W        W50708  13.422   7.383   2.504  0.1297  0.1667  0.0510
41909W        W50709  11.027   5.239  25.990 -0.0549  0.0895  0.0690
41910W        W50710  10.951   4.530  27.191  0.3318  0.0513  0.1504
41911W        W50711   2.542   6.433  23.060  0.1710 -0.2600 -0.0902
41912W        W50712  24.084   0.315  23.677  0.2201  0.1566 -0.2057
41913W        W50713   9.286   3.268   8.841  0.3126  0.0356  0.0603
41914W        W50714   6.267   6.687  16.779  0.1847  0.1774 -0.0359
41915W        W50715   1.304   7.171  25.812 -0.2747  0.2855  0.1108
41916W        W50716  19.340   4.295   3.634  0.0619  0.0897 -0.1827
41917W        W50717  15.656   3.044  11.137 -0.3867 -0.1033 -0.3570
41918W        W50718   9.856   3.704   6.449  0.0018 -0.0457 -0.2241
41919W        W50719  17.169   0.980   2.919  0.0367  0.1709  0.1641
41920W        W50720  16.478   2.005  11.212 -0.2830  0.0329  0.0845
41921W        W50721   6.701   7.131  22.799  0.0307  0.0812 -0.0436
41922W        W50722   7.032   4.722   8.388 -0.0059 -0.3403  0.1751
41923W        W50723  19.734   2.293  17.808 -0.0634 -0.1223  0.0353
41924W        W50724   7.794   2.012   3.831 -0.1339  0.3115  0.0455
41925W        W50725  11.619   1.082  10.460  0.0648 -0.2351  0.1517
41926W        W50726   2.346   7.634  26.118 -0.0390  0.5402 -0.0870
41927W        W50727  11.059   6.144  11.354 -0.0366  0.1018  0.1754
41928W        W50728   6.188   2.635  30.876  0.0173 -0.0572 -0.0515
41929W        W50729  22.206   6.469  15.548 -0.4275 -0.1203  0.3187
41930W        W50730   6.485   6.146  29.704 -0.0721 -0.4548 -0.3726
41931W        W50731  16.099   3.155  19.472  0.1525 -0.2093  0.0092
41932W        W50732  18.548   5.849  25.018 -0.3031 -0.1513  0.2718
41933W        W50733  21.378   6.722  20.809  0.1953 -0.1780 -0.1355
41934W        W50734   3.548   0.601   6.589  0.1730 -0.1122  0.0404
41935W        W50735  17.700   2.417  20.416 -0.1549  0.0611 -0.0441
41936W        W50736  19.232   0.956  26.233  0.2825 -0.0204  0.0870
41937W        W50737   8.497   4.839   1.523  0.0600  0.0477  0.2020
41938W        W50738   0.661   0.285  22.786  0.0354 -0.1243 -0.1356
41939W        W50739  18.256   1.887  22.956  0.1036  0.2338  0.0653
41940W        W50740  21.659   4.492   6.827 -0.1130  0.0898 -0.1650
41941W        W50741  23.521   5.308  29.881  0.2095 -0.0990 -0.2598
41942W        W50742  15.541   3.274  32.426  0.1742  0.1351  0.2372
41943W        W50743  21.152   0.085  23.361  0.3874  0.0614 -0.2163
41944W        W50744   2.320   1.499   9.155  0.1817  0.1671  0.1198
41945W        W50745  22.404   3.221   0.842 -0.2426 -0.0771 -0.2614
41946W        W50746  10.981   4.402  29.574  0.0925 -0.0882  0.2143
41947W        W50747   7.672   5.844   6.295  0.0133  0.0737  0.2438
41948W        W50748  22.414   3.969  25.088 -0.0852  0.0449 -0.1926
41949W        W50749  22.048   2.928  28.755 -0.0617 -0.2831  0.1525
41950W        W50750   9.132   4.632  25.693 -0.0703  0.1187  0.1663
41951W        W50751   5.024   7.496  11.287 -0.3742  0.1686  0.0179
41952W        W50752  20.846   7.160  20.291  0.3965  0.1230  0.0016
41953W        W50753   3.425   7.745  22.906  0.0513 -0.0155 -0.1598
41954W        W50754  22.658   1.756  24.636  0.1399  0.1141 -0.0644
41955W        W50755  24.101   0.061   1.936  0.4078 -0.2685 -0.0641
41956W        W50756  19.805   6.028  29.733 -0.2799 -0.3342 -0.0403
41957W        W50757   1.543   7.691   7.372  0.0872  0.0145 -0.2748
41958W        W50758   4.893   4.153  16.313  0.0346 -0.0312  0.1478
41959W        W50759   5.115   4.822  29.358 -0.3473  0.0050 -0.0266
41960W        W50760  11.841   7.330   9.537  0.0702 -0.0141 -0.0680
41961W        W50761  10.817   4.917  12.377 -0.0325  0.1211 -0.1267
41962W        W50762  20.509   5.269  26.096  0.1019  0.0690 -0.1819
41963W        W50763  15.066   3.035  27.414  0.2929  0.2640  0.1386
41964W        W50764  18.539   2.099  28.844 -0.0882  0.0431  0.0552
41965W        W50765  19.538   5.353  21.899  0.1138  0.3196  0.1693
41966W        W50766   1.542   3.262   6.793 -0.2655 -0.1268 -0.0404
41967W        W50767   5.087   2.521   9.807 -0.0598 -0.3449  0.0523
41968W        W50768  11.565   3.128  30.049 -0.1682  0.1625 -0.3425
41969W        W50769   7.421   0.671   4.355  0.1201  0.2246 -0.1236
41970W        W50770  17.795   0.733  31.095  0.0529  0.2506 -0.2830
41971W        W50771  15.315   1.816   0.436  0.3914  0.1531 -0.0076
41972W        W50772   3.228   0.758   1.633  0.2341  0.0788 -0.2710
41973W        W50773  16.336   2.047  18.063  0.2493  0.0638  0.0709
41974W        W50774   6.165   1.867  28.329  0.1267 -0.0875  0.2707
41975W        W50775   8.161   0.959  28.719 -0.0774 -0.1232  0.1369
41976W        W50776  18.446   4.993   0.736 -0.0810 -0.2182 -0.2566
41977W        W50777  18.821   2.850  25.914  0.0106  0.2307 -0.0521
41978W        W50778   3.962   6.759  30.269 -0.1833 -0.2634 -0.2769
41979W        W50779   9.663   7.532   9.590  0.1219  0.0716  0.0059
41980W        W50780   8.285   5.438  11.250  0.2545 -0.1216 -0.1853
41981W        W50781  24.859   5.253  22.380  0.3849  0.0383 -0.0505
41982W        W50782  13.395   1.750   6.380 -0.2478  0.2392 -0.1581
41983W        W50783   0.535   0.294  28.459  0.1943 -0.0197  0.0789
41984W        W50784  16.258   4.371   1.200  0.2473  0.1302 -0.0322
41985W        W50785  14.960   5.920   7.089  0.4089 -0.1365  0.3057
41986W        W50786   8.094   1.632   6.686  0.1686 -0.1472 -0.1118
41987W        W50787  14.032   0.377   9.651 -0.1554 -0.2425 -0.1118
41988W        W50788   3.042   4.278  23.833  0.2988 -0.0538 -0.2338
41989W        W50789   4.418   5.888   9.184 -0.1509 -0.0432 -0.3859
41990W        W50790  23.336   6.091   3.409 -0.1300 -0.0937 -0.0842
41991W        W50791  18.892   6.403   2.935  0.0889  0.1885 -0.0513
41992W        W50792   7.864   4.542   4.497  0.1905  0.0505 -0.0125
41993W        W50793   6.197   6.653   9.510  0.0275  0.1798 -0.2015
41994W        W50794   7.833   7.396  23.230 -0.3528  0.0794  0.0426
41995W        W50795  15.600   7.149   5.384 -0.0619  0.1472  0.1610
41996W        W50796  17.219   7.025   3.421 -0.0926  0.0999  0.0870
41997W        W50797   2.235   1.382  10.675  0.0179 -0.2507 -0.0784
41998W        W50798  20.930   3.269  20.509  0.2324  0.0073  0.2467
41999W        W50799   5.323   5.001   6.592 -0.0884  0.2385  0.1786
42000W        W50800  11.724   5.882  28.225 -0.0055  0.1580 -0.2027
42001W        W50801  13.624   1.627   4.479  0.2672  0.1664 -0.0399
42002W        W50802   7.476   0.322  17.558 -0.0153  0.0536 -0.1924
42003W        W50803  14.983   0.917  29.598 -0.2023  0.2003  0.1194
42004W        W50804  14.913   5.343  27.771 -0.3101 -0.2023 -0.3219
42005W        W50805  15.662   1.891  30.665 -0.0754 -0.1189  0.1050
42006W        W50806  16.954   6.212  24.362 -0.1522  0.2496 -0.1043
42007W        W50807   3.293   3.427  14.068  0.1439  0.0057 -0.1937
42008W        W50808   1.634   1.699  29.937 -0.1316 -0.2231 -0.1667
42009W        W50809  19.989   2.340  28.272 -0.1569  0.2690 -0.1467
42010W        W50810   6.658   4.450  14.242  0.0897  0.0487 -0.0993
42011W        W50811  16.321   0.480  11.271 -0.1885  0.1795  0.1991
42012W        W50812  13.389   6.702  27.123 -0.0086  0.2157 -0.1011
42013W        W50813  10.972   0.330   8.820 -0.0810  0.1612 -0.0131
42014W        W50814   5.209   2.582   1.896  0.2584  0.1832 -0.0271
42015W        W50815  17.089   5.709   1.762  0.1089  0.0819  0.0591
42016W        W50816   8.579   6.189  26.295  0.1506 -0.1213 -0.1830
42017W        W50817  24.289   2.188  16.817 -0.1595  0.0869 -0.3506
42018W        W50818   4.286   7.356  28.614 -0.0601  0.2947  0.3007
42019W        W50819   2.704   7.010  29.577 -0.1130  0.2685 -0.2013
42020W        W50820  17.360   4.312  19.558 -0.0955  0.0849  0.0415
42021W        W50821  22.283   4.734  23.177  0.0380  0.0995  0.1448
42022W        W50822  10.948   6.859  18.019 -0.2872 -0.3003  0.0342
42023W        W50823   5.887   4.598  28.206 -0.1649  0.0755 -0.1318
42024W        W50824  24.275   3.062  18.553 -0.0060  0.0608 -0.0741
42025W        W50825   3.460   6.118   6.661 -0.0393 -0.0130  0.0748
42026W        W50826   4.444   1.581   1.348  0.0477 -0.1179  0.0560
42027W        W50827  17.949   6.434  22.513 -0.0269  0.2271  0.1433
42028W        W50828  15.420   5.741  30.071 -0.0235  0.0054  0.0319
42029W        W50829   0.080   0.047   2.768  0.0420 -0.0285  0.0318
42030W        W50830  13.509   7.286   2.976  0.0982 -0.1342 -0.0155
42031W        W50831  23.216   1.577  22.329  0.3660  0.1870  0.0496
42032W        W50832  18.398   0.090   4.588  0.0189 -0.0604  0.1009
42033W        W50833   7.401   5.297   9.867  0.0963 -0.0906  0.1862
42034W        W50834   7.003   3.488   5.753  0.2977  0.0198 -0.0192
42035W        W50835   3.012   1.821   7.591  0.3348 -0.2084  0.0763
42036W        W50836  14.793   1.177  26.716  0.0399 -0.1464  0.0480
42037W        W50837  10.886   1.480   7.914  0.1881  0.1877  0.0295
42038W        W50838  15.486   0.473   0.957 -0.1052  0.1842 -0.0567
42039W        W50839  25.029   6.416  18.248 -0.2015 -0.1688  0.0226
42040W        W50840  17.555   3.521  17.160  0.1035  0.1599  0.4007
42041W        W50841  22.979   3.059   1.584  0.0743  0.0713 -0.2485
42042W        W50842   7.336   4.577  25.461  0.3543  0.2023  0.1761
42043W        W50843  11.022   0.205  14.617  0.0946 -0.1468 -0.1370
42044W        W50844   8.263   4.888   3.701 -0.0020 -0.1955 -0.1733
42045W        W50845  24.756   7.430  22.032  0.1145  0.0730  0.1683
42046W        W50846  17.010   0.571  26.790 -0.1211  0.0070 -0.3039
42047W        W50847  18.249   7.388  21.527 -0.1681 -0.3663 -0.0286
42048W        W50848  14.864   0.203   4.661 -0.2618  0.3584  0.0877
42049W        W50849  17.435   5.009  19.426  0.0152 -0.1001 -0.0543
42050W        W50850  13.261   3.637  30.159 -0.1575  0.3361 -0.0298
42051W        W50851   7.299   5.604  29.565  0.1999 -0.0040  0.1833
42052W        W50852  15.230   7.333   8.137 -0.0622  0.1661 -0.3043
42053W        W50853  21.602   4.948   7.125  0.2077 -0.0755  0.1983
42054W        W50854  10.497   0.292  30.584  0.0402  0.0859 -0.0977
42055W        W50855  18.651   3.716  24.469  0.1358 -0.3430 -0.0141
42056W        W50856   8.701   1.840  23.528  0.3470  0.1865  0.1295
42057W        W50857  16.436   6.230  12.067 -0.2900  0.0605 -0.1618
42058W        W50858  10.870   6.422  10.087  0.0839 -0.1141 -0.0878
42059W        W50859   7.730   3.266  18.441 -0.0083 -0.0447  0.1081
42060W        W50860   5.490   1.923  22.751 -0.1814 -0.0433  0.1463
42061W        W50861   7.762   5.701  14.998  0.1471 -0.2744 -0.1268
42062W        W50862  24.242   0.174   4.872  0.1643  0.1323  0.0144
42063W        W50863  17.357   5.593  28.891 -0.0345  0.1267  0.1698
42064W        W50864   5.285   4.649  32.131 -0.0365  0.0979  0.0439
42065W        W50865  13.393   1.593  20.905  0.0512  0.1375  0.0869
42066W        W50866  13.701   2.877  24.030 -0.0940 -0.2821  0.0998
42067W        W50867   3.551   6.979   0.761  0.1223  0.0058 -0.1030
42068W        W50868  24.519   5.535   1.441 -0.1402  0.1390 -0.1490
42069W        W50869   8.635   4.303   2.323  0.0250 -0.2820  0.1859
42070W        W50870  18.872   1.498  28.349 -0.1317  0.3432 -0.4214
42071W        W50871  23.435   3.029   4.568  0.1596 -0.1767  0.2525
42072W        W50872   4.235   6.912  13.721 -0.0021 -0.0210 -0.0775
42073W        W50873   9.420   7.292  13.216  0.2991 -0.0665 -0.1487
42074W        W50874   0.825   2.875  26.900  0.0071  0.2750 -0.0997
42075W        W50875   4.818   1.775  28.796 -0.2043  0.3737  0.0030
42076W        W50876   2.497   5.051  20.601  0.1869 -0.1264 -0.2250
42077W        W50877   6.917   5.070   2.004 -0.1178 -0.3434 -0.0704
42078W        W50878  24.783   2.466   8.095  0.1298 -0.0446 -0.0253
42079W        W50879  22.964   0.683   9.114  0.0022 -0.0970 -0.1016
42080W        W50880  12.137   1.563  23.989  0.1020  0.1313 -0.0465
42081W        W50881   5.461   3.986  14.237 -0.7102  0.0545 -0.4281
42082W        W50882  20.586   2.367   8.776 -0.2157 -0.1301  0.0098
42083W        W50883  18.240   0.491   9.027 -0.1332  0.2381  0.1453
42084W        W50884  21.903   4.566   6.407 -0.0642  0.3137 -0.1459
42085W        W50885   9.815   6.685  29.225 -0.2781 -0.1223  0.0086
42086W        W50886  16.265   0.308  20.739 -0.0566  0.1460 -0.1684
42087W        W50887  19.987   5.526  24.601 -0.1851 -0.1227  0.1971
42088W        W50888  10.692   3.371  25.943  0.0392  0.3020  0.2542
42089W        W50889  13.585   2.299  23.413  0.0445  0.1008  0.1793
42090W        W50890  24.038   3.300  23.220  0.1385  0.3454  0.0498
42091W        W50891   5.102   3.146  14.233  0.1970  0.0712 -0.0174
42092W        W50892  22.381   1.388   9.418  0.1224  0.0729 -0.0578
42093W        W50893  11.804   3.767  31.997 -0.0410 -0.2094 -0.3950
42094W        W50894  18.728   1.667   8.633  0.2373 -0.0963 -0.1748
42095W        W50895  22.710   1.640  25.162 -0.0827 -0.1152 -0.2168
42096W        W50896  16.228   7.022   2.188  0.1714  0.0719  0.2183
42097W        W50897  18.720   4.568  15.634  0.1813 -0.0660 -0.2023
42098W        W50898  17.915   0.375  32.171 -0.0193 -0.0718  0.3121
42099W        W50899  20.477   4.532  18.653 -0.1273  0.0585 -0.0735
42100W        W50900   0.443   3.099  23.994  0.2452  0.0538 -0.2501
42101W        W50901  12.943   2.679  23.803 -0.2442  0.0776  0.2189
42102W        W50902  22.611   6.144  21.490 -0.2113  0.1020 -0.1227
42103W        W50903   2.230   0.064  29.896 -0.0653 -0.2154 -0.3177
42104W        W50904   3.827   1.227   1.651  0.3116  0.2200 -0.0628
42105W        W50905   2.329   4.255  26.168  0.2800  0.2868 -0.1322
42106W        W50906  23.892   7.040  22.168 -0.1165 -0.2717 -0.0460
42107W        W50907  20.980   6.409  18.124 -0.0719  0.2874 -0.0145
42108W        W50908  23.794   2.823   6.172  0.2587 -0.1147  0.2696
42109W        W50909  10.380   1.763   8.195  0.0599  0.0604  0.0468
42110W        W50910   3.777   3.655   2.127 -0.0174  0.0734 -0.1294
42111W        W50911  15.625   5.242  23.537 -0.3703 -0.2194  0.0504
42112W        W50912  14.652   2.247   3.670  0.0538  0.1718 -0.1344
42113W        W50913  21.531   2.074   3.668 -0.1752 -0.4124 -0.1865
42114W        W50914  13.407   7.640  29.937 -0.1832  0.2239 -0.1255
42115W        W50915  14.844   5.758  30.825 -0.1450  0.0315 -0.0536
42116W        W50916   3.141   3.929   4.488 -0.0995 -0.2636 -0.1321
42117W        W50917  16.918   1.205  12.179  0.0805 -0.2062 -0.2261
42118W        W50918   7.316   3.811  22.117 -0.0135 -0.3995  0.1458
42119W        W50919  21.512   7.728  18.895 -0.1292  0.1269  0.0042
42120W        W50920  21.956   1.990  26.009 -0.3570  0.3383  0.0535
42121W        W50921  21.956   5.308   6.756 -0.0873 -0.0662 -0.0500
42122W        W50922   9.339   1.804  25.419  0.0860 -0.0811 -0.0964
42123W        W50923   7.174   1.902  32.172 -0.0262  0.1092  0.0530
42124W        W50924  22.132   4.777  18.017  0.0392 -0.0461 -0.2748
42125W        W50925  24.562   1.038  15.813  0.4957  0.1209 -0.1121
42126W        W50926   8.657   4.643   9.182  0.0543  0.1858 -0.0614
42127W        W50927   1.642   1.820  25.488 -0.0291 -0.0226 -0.0659
42128W        W50928  16.787   6.773  21.024 -0.0897 -0.2304  0.0359
42129W        W50929  11.865   3.685  31.148 -0.0308 -0.0012 -0.1509
42130W        W50930  19.935   2.965  15.216  0.1091  0.0264  0.1698
42131W        W50931   3.648   4.070   6.656  0.2713 -0.3469 -0.0704
42132W        W50932  23.017   2.493  16.122 -0.0378 -0.0522 -0.0982
42133W        W50933  19.050   5.710  18.823 -0.2021  0.1426  0.0147
42134W        W50934  12.561   4.378  25.882  0.5280 -0.0585  0.1126
42135W        W50935   3.446   3.732  28.971  0.1000 -0.0791 -0.1491
42136W        W50936  14.637   6.477  27.569  0.0021  0.1122 -0.0620
42137W        W50937  14.383   1.043   4.179  0.2653  0.1976 -0.0186
42138W        W50938   0.725   0.255  21.392 -0.0814 -0.0840 -0.1065
42139W        W50939   6.710   5.787   0.447  0.1086 -0.0848 -0.1069
42140W        W50940  22.976   5.887  22.868  0.0268 -0.3745 -0.1574
42141W        W50941  21.264   3.902   3.710 -0.1688 -0.1704  0.3622
42142W        W50942  14.353   2.745  21.375 -0.3773  0.0852 -0.1122
42143W        W50943  23.301   0.421  20.419 -0.0755 -0.1912  0.1892
42144W        W50944  20.995   3.483  26.749 -0.2149  0.0724 -0.0983
42145W        W50945   5.046   1.870   2.217 -0.2403 -0.2972  0.2235
42146W        W50946   9.929   0.377  29.973 -0.1219  0.0388 -0.1351
42147W        W50947  22.133   3.598  17.352  0.0915 -0.0906 -0.0321
42148W        W50948  23.437   1.546  30.784 -0.2062  0.1414 -0.0160
42149W        W50949   2.810   5.509  12.904 -0.2011  0.0751  0.0204
42150W        W50950  10.780   3.510   9.698  0.1785 -0.1755  0.0728
42151W        W50951   4.158   4.622  13.876 -0.0566  0.1213  0.0703
42152W        W50952   9.730   3.657  14.436 -0.0525 -0.1378  0.0613
42153W        W50953  11.690   5.770  15.187 -0.1010 -0.0519  0.3379
42154W        W50954  23.987   3.420  17.625 -0.0179  0.0728 -0.1208
42155W        W50955  17.949   5.353  20.703 -0.1542  0.1336  0.0488
42156W        W50956  17.363   4.826  17.578 -0.0477  0.0920 -0.1150
42157W        W50957   9.551   5.189   4.947 -0.0440 -0.3357  0.3017
42158W        W50958  17.840   5.511   7.568 -0.0486 -0.2202 -0.1222
42159W        W50959  13.747   5.214   9.006 -0.0269 -0.1847 -0.0438
42160W        W50960  21.245   2.255  22.299 -0.1170  0.3224  0.1254
42161W        W50961  19.566   2.523  24.439  0.1048 -0.0882  0.0747
42162W        W50962  11.553   4.495  11.026  0.1914  0.3373 -0.1403
42163W        W50963   9.903   2.647   9.905  0.0609 -0.1125 -0.2202
42164W        W50964   0.981   1.066  17.943  0.1157  0.0726 -0.2562
42165W        W50965  23.682   5.432   6.623 -0.1662 -0.0930  0.0052
42166W        W50966  24.474   2.497   5.856 -0.0943  0.0660 -0.2736
42167W        W50967   8.535   5.789   8.733  0.0852 -0.1142  0.0330
42168W        W50968  23.779   0.885  26.283 -0.0846 -0.1834 -0.1689
42169W        W50969  18.573   2.992   7.252 -0.3338 -0.1410  0.2809
42170W        W50970  11.071   1.228  32.694  0.1100 -0.3318 -0.1733
42171W        W50971  11.124   4.594  10.796 -0.1152 -0.1408  0.0354
42172W        W50972   0.165   0.083   6.076 -0.0952 -0.0754  0.0123
42173W        W50973   4.239   4.075  13.260 -0.1992 -0.1707 -0.1580
42174W        W50974   9.016   5.695  29.302 -0.2867 -0.0029 -0.1580
42175W        W50975   7.532   5.384  25.012 -0.0355  0.0157  0.0866
42176W        W50976  20.741   5.903   1.584  0.0161 -0.1797  0.2071
42177W        W50977  24.466   7.168  22.394  0.2421  0.0502 -0.1759
42178W        W50978  20.902   3.267   2.557  0.1423 -0.3643 -0.1070
42179W        W50979  18.863   2.654   4.674  0.0088 -0.3410 -0.1407
42180W        W50980  14.716   7.298  20.765 -0.1855 -0.1713  0.4696
42181W        W50981  22.260   0.196  24.449  0.0321 -0.1453  0.0082
42182W        W50982  15.300   7.324  27.301  0.0316 -0.2099 -0.0615
42183W        W50983   5.647   4.780  24.659 -0.0769 -0.1037  0.1274
42184W        W50984  11.835   5.626   8.821 -0.0688  0.0121 -0.3106
42185W        W50985  14.189   0.596   0.335 -0.1268  0.2627  0.0295
42186W        W50986  12.628   6.967  25.747  0.0020  0.1712 -0.1938
42187W        W50987  17.058   6.253   8.750 -0.0998 -0.1248 -0.2165
42188W        W50988   4.678   5.908  28.505 -0.0021  0.0970  0.0358
42189W        W50989   7.362   0.228  24.496 -0.1478 -0.0610  0.0550
42190W        W50990  18.630   7.446   0.660 -0.0334 -0.2081  0.2505
42191W        W50991   5.676   3.138   8.403  0.0431  0.3370  0.2035
42192W        W50992  14.663   5.349  20.593 -0.0457  0.1126  0.2837
42193W        W50993  17.209   6.741  23.162  0.1623  0.0441 -0.0242
42194W        W50994  23.141   7.453  27.680 -0.2374  0.0031  0.1642
42195W        W50995  20.511   3.258  17.638 -0.0591 -0.1343  0.1031
42196W        W50996   6.456   7.791  14.729 -0.0796 -0.0184 -0.0892
42197W        W50997  13.971   6.192  22.251 -0.3229 -0.0140 -0.1142
42198W        W50998   6.433   4.917  25.773 -0.1998  0.2497 -0.2302
42199W        W50999  13.613   3.722   8.470 -0.3162 -0.1996  0.2434
42200W        W51000   0.740   2.844  29.803  0.0475 -0.0741  0.1831
42201W        W51001   9.421   0.815  15.771  0.0281  0.3499  0.2840
42202W        W51002  10.940   4.468  26.727  0.0437  0.1121 -0.1538
42203W        W51003  18.725   3.920   4.118 -0.1195  0.0353  0.1441
42204W        W51004   7.467   0.305  31.913 -0.1601 -0.0111 -0.0655
42205W        W51005  22.941   5.925  29.593  0.3931 -0.3497 -0.1066
42206W        W51006  23.891   2.956  18.229  0.3392  0.1019  0.2249
42207W        W51007  12.557   3.064   3.104  0.0130  0.3699 -0.1782
42208W        W51008  11.446   3.749  27.044 -0.1948 -0.0357 -0.1547
42209W        W51009  23.613   3.391  19.046  0.0404 -0.2096 -0.1749
42210W        W51010  18.732   3.364  30.916 -0.0787 -0.1624  0.0789
42211W        W51011  21.183   1.972  25.483 -0.0899 -0.0327 -0.1044
42212W        W51012  14.811   6.024  28.549  0.3106 -0.0378  0.3428
42213W        W51013   0.841   7.489   3.774  0.0719 -0.0305  0.0115
42214W        W51014   2.934   7.246   2.466 -0.0288 -0.1948  0.2435
42215W        W51015  24.071   0.198  29.930  0.3997 -0.0979  0.3006
42216W        W51016   3.623   1.707   3.687  0.1442 -0.0812 -0.2220
42217W        W51017  12.579   0.065  15.600  0.2570  0.1929  0.0254
42218W        W51018  15.117   4.887   7.949 -0.1572 -0.0055  0.0413
42219W        W51019   6.400   2.713  32.119 -0.0243 -0.0652  0.0741
42220W        W51020  11.735   0.299  23.451 -0.0105 -0.1425 -0.0276
42221W        W51021  13.455   2.639  30.201 -0.1922  0.0739  0.2155
42222W        W51022  15.289   5.118   0.708 -0.1750  0.1684  0.1559
42223W        W51023  22.617   1.458   4.556  0.2173 -0.2935  0.0483
42224W        W51024  20.510   6.706   7.064 -0.3737 -0.3545 -0.0283
42225W        W51025  15.388   6.899   6.856 -0.3195 -0.0763 -0.1475
42226W        W51026   6.369   3.383   8.991  0.5725  0.1943 -0.0036
42227W        W51027  23.070   6.667  26.544 -0.1944 -0.0797 -0.0657
42228W        W51028   1.946   3.672  26.167 -0.1714  0.3067 -0.1206
42229W        W51029   4.918   3.252   4.399 -0.1451  0.0311  0.1417
42230W        W51030   1.760   5.448  20.392  0.1725 -0.2045  0.1479
42231W        W51031  13.448   2.316  11.158  0.0720 -0.0198 -0.2868
42232W        W51032  19.189   0.525  27.957 -0.0096  0.0277  0.1123
42233W        W51033   7.504   0.995   1.671  0.1356 -0.3118  0.0758
42234W        W51034  22.305   5.057  21.874  0.1779  0.2787  0.2025
42235W        W51035  17.096   7.813  24.356 -0.1694  0.0923 -0.1774
42236W        W51036   2.470   2.772   2.266  0.1613  0.2011  0.2257
42237W        W51037  22.487   2.995   3.230 -0.1545  0.0401 -0.2559
42238W        W51038   3.702   2.762  31.241  0.2678  0.1232 -0.0410
42239W        W51039  22.137   7.547  26.291  0.0365  0.0711  0.0791
42240W        W51040  12.635   5.496  10.834  0.1495 -0.0839  0.2688
42241W        W51041  11.305   5.678  28.429 -0.0184 -0.1494  0.3085
42242W        W51042  10.602   7.447  29.753  0.0663 -0.1712  0.0784
42243W        W51043   9.698   6.863  11.054 -0.1942  0.0934  0.1395
42244W        W51044   4.432   6.118  14.019 -0.2412  0.0788  0.0199
42245W        W51045  12.468   5.853  15.088  0.1285  0.0653  0.0613
42246W        W51046   1.280   6.934   5.771  0.2045 -0.2376 -0.2820
42247W        W51047   9.590   3.231  17.295  0.0290 -0.0128  0.1516
42248W        W51048   8.787   5.219  15.566 -0.1232  0.0017  0.0568
42249W        W51049   3.964   6.216   5.573 -0.2418  0.0518 -0.2020
42250W        W51050  15.455   2.403  11.892  0.0564 -0.0938 -0.1729
42251W        W51051   3.417   0.909  13.472  0.0375  0.0100 -0.1994
42252W        W51052   1.968   0.862  25.361  0.2286  0.2719 -0.2846
42253W        W51053   5.398   1.183  31.285 -0.3563  0.1361  0.0243
42254W        W51054   0.862   2.125  28.264 -0.1819  0.3206  0.0795
42255W        W51055  11.993   1.711  10.771  0.2164 -0.0332 -0.0284
42256W        W51056  10.275   6.384  13.064 -0.1032 -0.0078  0.2207
42257W        W51057   6.967   7.616  22.883  0.2070 -0.0711  0.0439
42258W        W51058   8.631   7.505  13.786 -0.0001  0.2711  0.3428
42259W        W51059   8.761   2.648  16.855 -0.3493  0.1933 -0.3852
42260W        W51060  13.549   2.714  13.438  0.0500 -0.1526 -0.1807
42261W        W51061   6.028   2.473   9.041  0.1492  0.1740 -0.0463
42262W        W51062  21.238   1.184  26.746  0.1661 -0.2130  0.1928
42263W        W51063  19.501   3.642  16.926 -0.2243  0.4085 -0.1909
42264W        W51064   0.322   4.736  31.264  0.3443  0.1506 -0.0886
42265W        W51065  16.008   5.002  10.961 -0.0182 -0.2414 -0.2429
42266W        W51066  22.190   0.022   9.945 -0.1210 -0.1287 -0.1002
42267W        W51067  11.281   2.191  24.761 -0.3056 -0.0046  0.2336
42268W        W51068  25.005   7.219  16.211  0.0028  0.1418 -0.2831
42269W        W51069   6.448   7.504  16.598 -0.0558  0.0039 -0.1306
42270W        W51070   9.419   1.524   3.946 -0.0110 -0.0757 -0.1276
42271W        W51071  16.580   3.005  11.197  0.0005  0.1689 -0.1105
42272W        W51072  17.792   2.996   8.482 -0.1963  0.0865  0.0704
42273W        W51073   0.518   2.184  32.516 -0.0549 -0.1153  0.1763
42274W        W51074  18.107   7.408  26.836 -0.2211 -0.0131  0.2621
42275W        W51075  12.762   7.613  21.571  0.0090 -0.0347 -0.2210
42276W        W51076   2.827   7.773  12.830 -0.0767  0.0705 -0.0438
42277W        W51077   1.641   0.413   2.841  0.0277  0.0044 -0.1671
42278W        W51078   0.324   5.519  20.223 -0.2064  0.0200  0.0795
42279W        W51079   3.246   5.021   2.333  0.1772  0.0914  0.0859
42280W        W51080  19.441   6.272  19.415 -0.2502  0.0688  0.3844
42281W        W51081  21.447   1.022   7.081 -0.0442 -0.2369 -0.1112
42282W        W51082  22.266   7.111  29.674  0.1261  0.1219 -0.4220
42283W        W51083  22.157   0.910   2.711  0.0644  0.1711 -0.0642
42284W        W51084   3.629   0.294  23.229 -0.2708  0.0322  0.1177
42285W        W51085  15.810   6.968  24.544  0.0302  0.2011  0.1566
42286W        W51086   1.561   1.743  26.956 -0.0243 -0.1882 -0.0270
42287W        W51087   1.925   2.121   2.917 -0.1002  0.3172 -0.0092
42288W        W51088  22.120   4.968  32.135  0.1984  0.1877  0.0840
42289W        W51089   4.784   6.868   4.841 -0.0982 -0.0799  0.1759
42290W        W51090  14.932   6.669  30.898  0.2327 -0.0542 -0.0903
42291W        W51091  22.944   0.605  15.020  0.0770  0.1068  0.0948
42292W        W51092   0.089   2.773  25.833  0.0209 -0.0479 -0.1274
42293W        W51093  23.908   2.682   3.431 -0.1987  0.0778 -0.0423
42294W        W51094   0.949   5.917  20.918  0.0595  0.0860 -0.0468
42295W        W51095  11.677   4.201   1.201 -0.0063 -0.1363 -0.2294
42296W        W51096   8.951   4.955   8.371  0.1575 -0.0586  0.1950
42297W        W51097   4.080   6.710  29.582  0.1227 -0.1733  0.0413
42298W        W51098  11.169   6.535  26.288 -0.3981 -0.1223  0.0277
42299W        W51099  24.958   3.198  21.216 -0.0759 -0.1315 -0.1328
42300W        W51100   3.686   7.170   6.651  0.2591 -0.0733 -0.2346
42301W        W51101  18.335   6.450   6.010  0.2374  0.0059  0.1986
42302W        W51102  20.761   6.744  29.303  0.2968  0.1722 -0.0347
42303W        W51103   6.648   2.892   5.774 -0.1826  0.1072  0.0483
42304W        W51104   1.830   6.361   3.835 -0.0810  0.2457  0.1915
42305W        W51105   0.330   4.605   5.008  0.1222 -0.1264  0.1662
42306W        W51106   7.359   1.117  22.952  0.0157 -0.1673 -0.2811
42307W        W51107   2.946   6.361   3.437  0.1367 -0.3227  0.1321
42308W        W51108  18.768   2.039   8.095 -0.1387 -0.1601 -0.0274
42309W        W51109  19.640   0.249   7.371 -0.1123  0.2234 -0.0310
42310W        W51110   5.709   0.039   5.269  0.1646  0.2644  0.3993
42311W        W51111  16.368   4.733   6.393  0.1600 -0.0823  0.0141
42312W        W51112  21.349   1.523   7.142 -0.0213 -0.2152 -0.0279
42313W        W51113  17.790   5.217  29.937  0.1782 -0.2824  0.1034
42314W        W51114  20.316   1.944  25.442 -0.1027 -0.1330 -0.1076
42315W        W51115  16.257   4.661  21.257  0.2004  0.1818 -0.0913
42316W        W51116  15.451   5.091  30.701 -0.0192 -0.1691 -0.2210
42317W        W51117  13.051   2.227  13.655 -0.0302 -0.0904 -0.4735
42318W        W51118   4.707   2.072  31.656  0.2588  0.2004 -0.0546
42319W        W51119  13.803   1.659  29.377  0.0178 -0.1387 -0.0201
42320W        W51120  15.613   7.414   2.794  0.0709  0.0974  0.0796
42321W        W51121  19.062   0.625   7.917  0.1534 -0.2173  0.0847
42322W        W51122  12.525   0.648   7.223  0.0116  0.0869  0.1863
42323W        W51123   6.171   3.748  30.570  0.3495 -0.1796 -0.2144
42324W        W51124  16.968   6.130   1.361  0.1649  0.3430 -0.0552
42325W        W51125   8.052   7.789   2.999  0.0560 -0.2227  0.3198
42326W        W51126  13.290   1.701  32.229 -0.2823 -0.1882 -0.0974
42327W        W51127   8.596   5.321  32.684 -0.0946  0.0084  0.1210
42328W        W51128  17.040   7.332  19.139  0.0505 -0.1258 -0.3829
42329W        W51129   9.332   4.809   2.933  0.1171 -0.1639 -0.1992
42330W        W51130  17.328   3.527  18.831  0.0499 -0.3023  0.1372
42331W        W51131  23.408   3.462   2.261  0.0185  0.0866  0.2622
42332W        W51132   0.190   6.895  20.869 -0.0026  0.0581  0.0140
42333W        W51133   5.830   0.101  30.675  0.2811 -0.0489  0.1602
42334W        W51134   8.897   0.373  13.989 -0.2741  0.0488 -0.1621
42335W        W51135   7.928   3.088  17.977 -0.1680 -0.0257  0.3115
42336W        W51136   1.005   7.040  23.930  0.0382  0.1629 -0.0328
42337W        W51137   7.941   7.002  13.547  0.1604 -0.1074 -0.0050
42338W        W51138  10.968   6.102  28.781  0.2503 -0.2243 -0.2094
42339W        W51139   5.587   2.483   4.460 -0.1516 -0.0545  0.2230
42340W        W51140  13.778   1.328  31.932 -0.2427 -0.0939 -0.2471
42341W        W51141  11.840   2.234   1.229  0.4566  0.3111 -0.1399
42342W        W51142  23.760   2.623   3.899  0.0487  0.0058 -0.1342
42343W        W51143  16.023   4.877   1.766 -0.1294  0.1891 -0.1514
42344W        W51144   9.473   2.099   0.011 -0.3261  0.0345 -0.0831
42345W        W51145  16.758   3.386  10.392 -0.0065  0.0708  0.0600
42346W        W51146   6.019   6.271  28.623  0.0320 -0.3418  0.3322
42347W        W51147  16.629   0.625  12.050  0.0403  0.1589  0.2295
42348W        W51148  22.122   0.963  25.151  0.0062 -0.2036  0.1177
42349W        W51149   2.475   4.605   6.385  0.0581 -0.0625 -0.2692
42350W        W51150  21.976   4.999  24.002  0.2696 -0.2004 -0.0161
42351W        W51151   8.594   0.141  14.648  0.2215 -0.1902 -0.0919
42352W        W51152  21.148   7.511  15.032 -0.1357 -0.1609 -0.0400
42353W        W51153   0.030   2.446  10.575  0.0170  0.5280  0.0176
42354W        W51154   6.144   4.393   1.550  0.1829 -0.2671 -0.1601
42355W        W51155  23.783   5.025  26.924  0.1310  0.2987  0.0456
42356W        W51156  19.756   2.069  23.780 -0.0469  0.1101  0.3565
42357W        W51157  11.034   4.791  17.614 -0.0671  0.2978 -0.2311
42358W        W51158  23.666   2.395  10.555 -0.1842 -0.1523 -0.1842
42359W        W51159   0.109   0.457   3.721  0.0174  0.0273 -0.0779
42360W        W51160   9.137   2.990  27.165  0.0126 -0.4291 -0.2396
42361W        W51161  22.027   0.823  31.519 -0.2908 -0.2908 -0.1494
42362W        W51162   8.624   6.649   8.386  0.2126  0.1206 -0.1578
42363W        W51163  23.519   6.014  22.053  0.0009 -0.1614 -0.0929
42364W        W51164  19.158   5.302   1.307 -0.4077 -0.1352 -0.0281
42365W        W51165  14.513   4.154   6.501  0.1553 -0.0941 -0.0072
42366W        W51166   2.530   6.971  21.945  0.0556 -0.0400 -0.2165
42367W        W51167  18.194   7.352  30.438 -0.0417 -0.3115  0.0073
42368W        W51168   8.383   6.216  30.369 -0.2690 -0.3032  0.0791
42369W        W51169  17.235   5.943  20.444 -0.0100  0.0101  0.0397
42370W        W51170   0.448   6.432   4.794 -0.0639 -0.2781  0.1056
42371W        W51171  13.676   1.830  31.257  0.0106  0.0757 -0.0529
42372W        W51172   6.856   4.280  10.854 -0.1423 -0.0363 -0.3291
42373W        W51173   0.783   2.792  24.318 -0.0184 -0.2764 -0.0001
42374W        W51174  12.374   6.584  28.719  0.3820  0.0874 -0.0170
42375W        W51175   7.213   0.615  11.919 -0.2656 -0.2432 -0.1173
42376W        W51176  13.459   4.113   6.116  0.2507  0.1578  0.0271
42377W        W51177  24.280   1.567  28.196  0.2210 -0.0711 -0.0152
42378W        W51178  21.471   4.748  24.658 -0.0184  0.1272 -0.0646
42379W        W51179   4.511   1.618   9.794 -0.0898 -0.1605 -0.1330
42380W        W51180  19.203   1.990   1.838  0.2683  0.2205 -0.0884
42381W        W51181  14.887   4.269   7.344 -0.0559  0.0104 -0.0365
42382W        W51182  19.214   0.380  21.275  0.3849 -0.0749 -0.0460
42383W        W51183  23.148   3.700  21.789  0.4083 -0.0045  0.1167
42384W        W51184  12.772   3.799  12.251 -0.0166  0.0341 -0.0263
42385W        W51185  19.498   1.176  24.518  0.1574 -0.4630 -0.0865
42386W        W51186  19.724   6.962   2.111 -0.3134 -0.1295  0.1621
42387W        W51187   3.293   6.057  26.751  0.2232  0.1323 -0.1653
42388W        W51188  14.289   0.341  26.650 -0.2272 -0.0132  0.0596
42389W        W51189  20.427   2.378  21.259  0.5040  0.0886 -0.3456
42390W        W51190  23.914   5.851  21.453  0.0135  0.1941  0.3068
42391W        W51191   7.298   6.437  27.277 -0.1791  0.1133 -0.0375
42392W        W51192   2.701   1.663   3.220  0.0502  0.1471 -0.1553
42393W        W51193   3.946   0.982   8.600 -0.1717  0.1210 -0.0127
42394W        W51194  10.604   6.816  15.163 -0.1104 -0.2633 -0.1506
42395W        W51195  15.015   5.996   6.030 -0.0901 -0.0349 -0.1484
42396W        W51196  21.325   2.006  19.976 -0.0285  0.1709  0.0623
42397W        W51197  12.687   5.694   5.467  0.1711 -0.0802 -0.1401
42398W        W51198  19.881   3.479   3.757  0.4661  0.0809  0.0483
42399W        W51199  21.371   6.010  24.278 -0.3507  0.0670  0.2938
42400W        W51200  19.286   2.836   7.852 -0.0369 -0.1248  0.1423
42401W        W51201   3.429   1.341  27.316 -0.0724 -0.1827 -0.0886
42402W        W51202  23.475   2.075   0.278 -0.2663  0.1617 -0.2600
42403W        W51203   5.689   0.215  17.876 -0.1250  0.2242 -0.2442
42404W        W51204  20.630   2.573   8.353 -0.1614 -0.1995  0.5428
42405W        W51205   5.173   3.171   8.187 -0.2483  0.0280 -0.0901
42406W        W51206   4.494   6.815   2.240  0.0809  0.0538 -0.4009
42407W        W51207  16.249   5.114  25.620 -0.1529  0.1340 -0.0303
42408W        W51208  23.560   3.709  18.603 -0.1644 -0.0559  0.1717
42409W        W51209  11.879   6.885  30.164 -0.2756  0.0142 -0.0726
42410W        W51210  19.178   4.028   8.580 -0.2049  0.1464  0.1361
42411W        W51211  14.661   4.136   9.073 -0.3493  0.0374  0.2712
42412W        W51212  17.383   5.497  30.012 -0.4019  0.0004 -0.2037
42413W        W51213   0.045   6.720  27.760 -0.0231  0.0268 -0.1392
42414W        W51214  20.885   1.685   1.182  0.0138  0.2403 -0.0375
42415W        W51215   3.464   3.192  31.554 -0.2906 -0.0367 -0.1648
42416W        W51216   2.771   6.304   8.519  0.1103  0.1028 -0.0391
42417W        W51217   1.004   5.899  25.979  0.0610  0.1173  0.3790
42418W        W51218  19.885   0.627  27.097  0.3059 -0.0019  0.0644
42419W        W51219   2.557   6.010  12.059  0.0232  0.3201 -0.0256
42420W        W51220  21.865   0.928  16.949  0.2782 -0.0778 -0.1581
42421W        W51221   3.695   2.225  26.274  0.1742 -0.0279 -0.0682
42422W        W51222  13.051   0.310   8.970 -0.0850  0.0403 -0.0171
42423W        W51223   1.748   3.872  18.515  0.2412  0.0686 -0.2167
42424W        W51224   2.333   3.339  26.402 -0.0122  0.0705  0.0776
42425W        W51225  20.705   1.211   9.533 -0.0231  0.0350  0.0042
42426W        W51226  13.917   0.913   5.164  0.1524 -0.0478  0.1718
42427W        W51227   5.297   6.937  24.536 -0.1105 -0.1010 -0.0414
42428W        W51228  24.807   6.488   0.474  0.0401  0.0345  0.1395
42429W        W51229  19.236   3.457  26.804 -0.0789 -0.0174  0.1020
42430W        W51230  21.659   3.354   4.120  0.2968 -0.1534 -0.1367
42431W        W51231  23.566   5.172  16.956  0.1827  0.1340 -0.0478
42432W        W51232  13.048   0.906   8.324  0.0364  0.2773  0.1111
42433W        W51233  21.145   3.610  32.602  0.1318  0.5082  0.1167
42434W        W51234   4.809   2.954  26.182 -0.3049  0.0161 -0.2081
42435W        W51235  10.718   0.974  13.328  0.1082 -0.0715 -0.0648
42436W        W51236  18.027   0.444  19.026 -0.1993 -0.1038 -0.0180
42437W        W51237  24.871   3.789   5.967  0.1375 -0.0538 -0.1778
42438W        W51238  14.397   4.836  10.318 -0.1676  0.1474  0.1384
42439W        W51239  12.057   5.516   7.351 -0.2390 -0.0589 -0.2679
42440W        W51240  11.176   4.254   0.871 -0.2549  0.1107 -0.1109
42441W        W51241  21.571   5.336  22.766  0.1173  0.1731  0.2098
42442W        W51242   7.006   3.109  27.513 -0.0518 -0.0330 -0.0307
42443W        W51243  11.049   1.824   1.429  0.0021 -0.1665  0.0205
42444W        W51244  10.652   2.898  24.807  0.0486  0.0384  0.0282
42445W        W51245   2.225   5.390  28.614  0.0587  0.1980 -0.2167
42446W        W51246   6.272   2.244  15.308  0.1238  0.0577 -0.0114
42447W        W51247  15.571   6.061  27.496  0.0875  0.0109 -0.1364
42448W        W51248  12.718   4.153  30.830 -0.4269 -0.3334  0.0211
42449W        W51249   4.211   0.789   9.759 -0.2730 -0.0956  0.2468
42450W        W51250  15.969   2.706  31.518 -0.3357 -0.1394  0.3088
42451W        W51251  16.588   0.018   6.357  0.0076  0.0414 -0.1440
42452W        W51252   6.810   1.052  15.561  0.2819  0.4161  0.1020
42453W        W51253  21.691   0.499  31.348 -0.0332  0.3205 -0.0671
42454W        W51254  24.068   3.405  14.828 -0.0372  0.1538 -0.1550
42455W        W51255   3.119   5.847   5.098 -0.1037 -0.1776  0.1855
42456W        W51256  24.854   6.837  25.079 -0.0782  0.0123 -0.1894
42457W        W51257  21.739   4.641  14.623 -0.2528  0.0127  0.1999
42458W        W51258  16.090   6.155   0.665 -0.3290 -0.3597 -0.2591
42459W        W51259   2.381   5.428   2.287 -0.0372 -0.4524  0.0307
42460W        W51260   5.272   3.400   9.679  0.2243  0.2756 -0.0823
42461W        W51261  22.555   5.865  27.086 -0.1399 -0.0159 -0.0671
42462W        W51262  14.652   4.077  22.183  0.1777 -0.2514  0.0795
42463W        W51263  20.517   0.226   1.515 -0.0742 -0.2088 -0.0482
42464W        W51264  22.321   5.092  18.858 -0.1404  0.1718 -0.1609
42465W        W51265  24.282   4.365   1.012 -0.0407  0.1112 -0.1938
42466W        W51266  10.467   2.809  25.248  0.1819 -0.1871  0.0229
42467W        W51267   1.514   6.316  11.439  0.0866  0.1884  0.3163
42468W        W51268  24.835   3.443  29.705  0.0051 -0.0316  0.1518
42469W        W51269  19.547   0.770  16.509  0.2758  0.3421 -0.2998
42470W        W51270  16.124   2.052  24.620  0.0060 -0.2561 -0.1060
42471W        W51271  13.830   1.331   5.551  0.0147 -0.1744 -0.0364
42472W        W51272  23.353   7.312  15.275  0.0815 -0.0785  0.1686
42473W        W51273  15.551   1.212  22.106 -0.2266 -0.0386 -0.2825
42474W        W51274   1.905   1.294   8.212  0.1386  0.0149 -0.0415
42475W        W51275   2.754   6.612  29.966  0.0111 -0.1966 -0.3055
42476W        W51276   3.138   2.057   7.154  0.1637 -0.0194 -0.2180
42477W        W51277   1.667   1.032   9.542  0.1861 -0.0651 -0.3516
42478W        W51278  15.161   1.985   5.523  0.1787  0.1741 -0.1600
42479W        W51279  19.458   6.598  29.412  0.2504 -0.0169  0.2052
42480W        W51280   6.249   3.511  29.417 -0.0527  0.4802  0.0212
42481W        W51281  23.462   7.090  10.544  0.0323 -0.2935 -0.0024
42482W        W51282  20.389   7.636  22.428 -0.0294  0.1094 -0.0941
42483W        W51283  22.186   6.679  30.942  0.1236 -0.0022  0.1986
42484W        W51284  18.429   6.697  22.584  0.1842  0.1078 -0.0369
42485W        W51285  22.194   0.294  15.309 -0.0355  0.1070  0.2090
42486W        W51286   9.688   5.893   2.013  0.1394 -0.1446  0.3554
42487W        W51287  19.764   6.341   9.151 -0.0308 -0.0577 -0.2869
42488W        W51288  11.237   4.817  15.364  0.0972  0.0028 -0.1244
42489W        W51289  14.437   5.408   0.238 -0.1851 -0.1614 -0.0997
42490W        W51290   3.198   1.989   8.293 -0.3397 -0.0065 -0.1326
42491W        W51291  16.630   7.231  19.942 -0.3171 -0.2358  0.1394
42492W        W51292   2.113   0.077   0.881 -0.2833  0.0917  0.0556
42493W        W51293  13.504   1.428  30.891  0.1556  0.1009  0.1741
42494W        W51294   8.905   6.216  14.578 -0.1180 -0.0964 -0.0993
42495W        W51295   1.901   5.147   0.011  0.0085  0.0184 -0.0462
42496W        W51296  24.177   5.918   1.666  0.1997  0.0459 -0.0142
42497W        W51297  12.160   2.551  13.745 -0.1432  0.5829 -0.1329
42498W        W51298   0.334   5.881  21.658 -0.0117 -0.1132 -0.1315
42499W        W51299  17.109   3.014   3.156  0.0068 -0.0003 -0.4153
42500W        W51300  11.540   2.160  26.549 -0.1702  0.2754  0.2600
42501W        W51301  20.921   0.883  17.135  0.0331  0.0313 -0.0954
42502W        W51302   8.984   5.680  13.380  0.0800  0.0370  0.0422
42503W        W51303  24.370   0.550   4.181 -0.0361  0.4069  0.0740
42504W        W51304  23.305   2.918   8.013 -0.1648 -0.1900 -0.1405
42505W        W51305   1.761   0.106   1.398 -0.0728 -0.0818  0.2210
42506W        W51306   4.844   3.546   9.309  0.1765 -0.1295 -0.2574
42507W        W51307   0.556   5.548  24.317  0.2319 -0.1218 -0.0048
42508W        W51308  21.540   3.990  17.910  0.2287 -0.1704 -0.0645
42509W        W51309  24.587   0.194  31.946 -0.0793  0.0097 -0.1135
42510W        W51310  20.801   2.021  20.127  0.0372 -0.3486 -0.0611
42511W        W51311  13.379   5.703  24.336 -0.2759 -0.1291 -0.0318
42512W        W51312   8.546   3.042   0.611 -0.1319 -0.1213 -0.0522
42513W        W51313  10.673   7.357   8.149 -0.3791  0.0590  0.1027
42514W        W51314  11.322   3.217   7.811 -0.2776  0.2316  0.0269
42515W        W51315  13.026   4.598  28.399  0.0472  0.3303 -0.2615
42516W        W51316  17.541   1.422  18.855  0.1574 -0.0095 -0.2758
42517W        W51317  21.769   5.473  28.847 -0.1160 -0.1938 -0.2211
42518W        W51318  20.038   5.507  14.691 -0.1403 -0.3603  0.0329
42519W        W51319   1.285   2.104  29.256  0.0336  0.0174  0.0891
42520W        W51320   6.683   2.183   4.314  0.2256  0.0401 -0.2270
42521W        W51321  22.043   1.673  21.305 -0.0302 -0.0564  0.1250
42522W        W51322   6.429   4.024  27.352 -0.1583 -0.1623 -0.2438
42523W        W51323  14.310   4.570   0.227 -0.1063 -0.3135  0.1124
42524W        W51324  22.522   0.731  22.380  0.0004  0.1523  0.2444
42525W        W51325   8.514   4.061   4.726  0.1512 -0.0217 -0.1936
42526W        W51326  12.521   1.164  26.176  0.0252  0.3099 -0.1340
42527W        W51327  16.610   3.431   0.354 -0.0750 -0.1677 -0.0213
42528W        W51328  14.270   6.041  26.131  0.0485  0.0292  0.2117
42529W        W51329   9.203   6.852  12.907 -0.0605  0.2468 -0.2358
42530W        W51330   5.826   5.495  14.290 -0.0246 -0.1083 -0.0041
42531W        W51331   8.513   7.434  26.917  0.0080 -0.0041 -0.0374
42532W        W51332   0.095   1.210  28.061  0.0032  0.0323 -0.1605
42533W        W51333  24.833   5.114  16.421  0.0353 -0.3017 -0.1587
42534W        W51334   6.646   3.556   0.491 -0.0199  0.2193 -0.3041
42535W        W51335  21.924   3.207   8.019 -0.2445 -0.0621  0.1170
42536W        W51336  19.453   7.713  16.890  0.3871 -0.3519 -0.2989
42537W        W51337  18.535   2.149  18.726 -0.1790  0.1119 -0.0163
42538W        W51338  11.721   0.634   0.962 -0.1680 -0.0153  0.0626
42539W        W51339  17.933   6.029   1.437 -0.2603 -0.0155 -0.0530
42540W        W51340  22.144   2.269   7.834  0.0695  0.0961  0.3498
42541W        W51341   1.726   4.213  10.058 -0.1330 -0.0813  0.1537
42542W        W51342  17.611   7.176  16.818  0.2787  0.2724 -0.0452
42543W        W51343  14.924   0.706   8.875 -0.0641  0.0745 -0.1643
42544W        W51344  15.261   3.541  20.533 -0.1525 -0.2810 -0.0190
42545W        W51345   7.762   1.428  31.055  0.2261 -0.0999 -0.3433
42546W        W51346   6.334   5.531  24.570  0.1139  0.0437  0.0028
42547W        W51347   8.159   4.250  23.158  0.0053 -0.3628  0.1516
42548W        W51348   8.275   2.136  11.228  0.2229  0.1192  0.0494
42549W        W51349  17.684   1.516  26.916 -0.0436  0.0535  0.0114
42550W        W51350  15.396   2.351  32.054  0.0576 -0.0490  0.0451
42551W        W51351  12.152   1.556  28.834  0.0038  0.0479  0.0641
42552W        W51352   1.574   5.423  27.752  0.0353  0.3017 -0.2152
42553W        W51353  21.651   3.695   9.072  0.0158 -0.3860  0.2918
42554W        W51354  21.149   1.309   6.740 -0.2920 -0.0928 -0.0900
42555W        W51355  13.635   6.582  28.973 -0.0166  0.1541 -0.0782
42556W        W51356  20.227   5.777  16.627  0.3030  0.0612  0.1121
42557W        W51357  15.926   4.282   4.853 -0.2441  0.2709  0.2926
42558W        W51358  22.855   0.532   6.408 -0.0124 -0.0668  0.3067
42559W        W51359  17.166   3.100   1.016 -0.2338 -0.0170 -0.0607
42560W        W51360  13.557   4.106   5.479  0.0991  0.3414  0.0775
42561W        W51361   4.884   5.493   5.447  0.0753  0.2219  0.2388
42562W        W51362   4.307   2.367  27.900 -0.2153  0.2344 -0.0456
42563W        W51363  10.422   1.834  17.232  0.2146  0.0104 -0.3474
42564W        W51364  22.550   2.289  10.031 -0.2344  0.1978 -0.2905
42565W        W51365   0.171   5.493  23.521 -0.3222 -0.0755  0.1589
42566W        W51366   8.264   6.060  31.204  0.0642 -0.0725 -0.0144
42567W        W51367  17.747   0.805   7.573 -0.2675  0.0151 -0.3349
42568W        W51368  15.604   7.283   0.725  0.1856  0.1752 -0.0728
42569W        W51369  13.437   6.466  12.185 -0.0191 -0.0540 -0.2159
42570W        W51370   4.133   1.813   7.890 -0.0221 -0.1871  0.2417
42571W        W51371  11.220   3.035   0.118  0.0006 -0.0735  0.1804
42572W        W51372  11.451   4.928  16.251 -0.0425 -0.1444 -0.0024
42573W        W51373  20.154   7.202  22.370  0.1380 -0.0414 -0.0647
42574W        W51374  19.622   5.900  27.694 -0.1963 -0.1303 -0.1631
42575W        W51375  19.390   5.230   4.614  0.2214  0.0601 -0.0804
42576W        W51376  19.642   2.270  21.787  0.2256 -0.1089  0.1159
42577W        W51377  21.618   3.168   9.174 -0.0250  0.0409  0.2218
42578W        W51378  22.737   7.374  22.854 -0.0128 -0.2178 -0.0450
42579W        W51379  22.894   3.853  22.261  0.2814 -0.2594 -0.0503
42580W        W51380   3.696   7.680   1.951  0.0261 -0.3706 -0.1351
42581W        W51381   7.072   2.500  26.225 -0.1431  0.0355 -0.0998
42582W        W51382  14.362   2.812  31.481 -0.0031 -0.1879 -0.0009
42583W        W51383   0.238   1.308   7.055  0.0661 -0.0566  0.0025
42584W        W51384   9.688   5.925  16.221 -0.1603 -0.2610 -0.2501
42585W        W51385  13.657   3.797  31.706  0.0796  0.4411  0.2360
42586W        W51386  20.921   5.041  30.783 -0.0214 -0.1111  0.3397
42587W        W51387   4.556   3.351  25.234  0.2664 -0.1965  0.2778
42588W        W51388   5.104   1.592  31.210  0.0498  0.3044  0.1343
42589W        W51389   1.505   5.226   7.117  0.1019 -0.2131 -0.0713
42590W        W51390  15.793   6.013   9.245 -0.0170  0.0415  0.0731
42591W        W51391   8.925   1.880   1.579 -0.1092  0.0417  0.1556
42592W        W51392  11.655   1.594  27.533  0.2220 -0.0647  0.1397
42593W        W51393  20.764   5.550  10.162  0.1238  0.0118 -0.1808
42594W        W51394   4.655   7.117  13.926  0.0591  0.2090 -0.2602
42595W        W51395  19.456   2.088  24.727 -0.1255  0.2956  0.3383
42596W        W51396  10.150   3.578   3.266 -0.2328 -0.2286  0.2431
42597W        W51397   1.618   4.557  19.453  0.0635 -0.0630 -0.1772
42598W        W51398   7.693   0.011   4.008 -0.0677  0.0875  0.2520
42599W        W51399  14.616   3.766  11.712  0.0811  0.0733  0.2108
42600W        W51400   5.169   5.407  12.505  0.0571  0.1136 -0.0911
42601W        W51401  18.816   0.625   6.135  0.1341  0.0200  0.0914
42602W        W51402   4.918   7.619  23.372 -0.1492 -0.0461  0.1412
42603W        W51403   4.439   6.758  31.092  0.5422 -0.3205 -0.3005
42604W        W51404  12.828   7.521   3.372 -0.0937 -0.1047 -0.0291
42605W        W51405  17.597   4.164  19.091 -0.0070 -0.3173  0.0353
42606W        W51406  11.576   1.673  28.002  0.1612 -0.0298 -0.1800
42607W        W51407   4.656   1.019  29.914 -0.0375 -0.0283 -0.3192
42608W        W51408   5.799   4.706  31.273 -0.2018  0.1241  0.0355
42609W        W51409  15.478   7.185   7.242 -0.1541 -0.1642 -0.2831
42610W        W51410   2.812   4.501   8.890  0.3071  0.2978  0.1388
42611W        W51411   8.187   3.962  14.758 -0.2673 -0.0170  0.3039
42612W        W51412   1.110   5.775  12.022 -0.2773  0.2424 -0.0115
42613W        W51413  15.897   5.180   9.722 -0.2458  0.1943 -0.1284
42614W        W51414   0.402   0.047  31.797  0.1833 -0.2464  0.1512
42615W        W51415  20.548   4.575  16.256  0.3023  0.1364  0.3305
42616W        W51416   8.432   2.904   2.687  0.0791  0.2721 -0.0354
42617W        W51417  10.661   2.598  31.945  0.0476  0.0871  0.0010
42618W        W51418  20.358   4.593   0.930 -0.1268 -0.0578 -0.1297
42619W        W51419  21.544   3.168  27.974 -0.4266 -0.1432  0.0586
42620W        W51420  19.199   0.271  29.729  0.0056 -0.1175 -0.0321
42621W        W51421  21.176   6.011  25.361 -0.1473 -0.0686 -0.0930
42622W        W51422  20.949   6.518  32.249  0.2147  0.0226 -0.1798
42623W        W51423  21.356   4.343  14.464  0.1889  0.2039  0.2196
42624W        W51424   9.667   1.828  23.492 -0.4615 -0.3011 -0.0246
42625W        W51425   8.446   2.131   7.397 -0.1250  0.0550  0.0070
42626W        W51426   7.559   6.437  28.480 -0.4581  0.3047  0.0766
42627W        W51427  19.780   1.472  19.194  0.3219  0.1570  0.2175
42628W        W51428  11.161   6.831   0.955  0.0606  0.3875  0.1831
42629W        W51429   1.691   6.538   0.152  0.2506  0.2388 -0.2348
42630W        W51430  11.671   7.020  24.048  0.0112  0.1546  0.1823
42631W        W51431  22.248   1.040   8.354  0.0182  0.0969  0.0963
42632W        W51432   7.563   6.227  31.754 -0.3306  0.3330  0.1789
42633W        W51433  10.156   2.182   1.767  0.0451 -0.0109  0.0686
42634W        W51434  22.999   3.349  15.299 -0.2229 -0.0381 -0.0928
42635W        W51435   9.942   3.535   9.431 -0.1531  0.2173 -0.4325
42636W        W51436  20.221   2.561   4.096 -0.1087  0.1391  0.0297
42637W        W51437  17.865   3.874   0.377 -0.0668 -0.0493 -0.1547
42638W        W51438   8.639   3.286  23.855  0.1081  0.1879  0.2852
42639W        W51439  19.554   6.319  23.866  0.1037  0.2110 -0.0514
42640W        W51440  14.732   7.421   1.710  0.3122  0.1409 -0.1196
42641W        W51441   6.572   3.869  25.921  0.0529  0.2178  0.0474
42642W        W51442  16.329   4.563  17.814 -0.0581 -0.1383  0.0550
42643W        W51443  23.807   6.378  20.819 -0.1667  0.1715 -0.0608
42644W        W51444  15.661   3.258   2.678  0.1513  0.0577  0.0863
42645W        W51445  11.217   4.197  26.432  0.3155 -0.2340  0.2178
42646W        W51446  20.063   2.441  24.199 -0.1891  0.0988 -0.1339
42647W        W51447   6.156   1.162   5.128  0.1249  0.1571  0.0707
42648W        W51448   9.154   2.541   8.480  0.0782  0.0587 -0.1350
42649W        W51449   6.251   5.980   7.690  0.0158  0.1839 -0.0753
42650W        W51450  16.575   5.865  22.152 -0.0014 -0.2552  0.1050
42651W        W51451  20.011   7.736  16.789 -0.0700  0.1959  0.2522
42652W        W51452  25.011   5.161   9.395  0.1780 -0.1391 -0.0516
42653W        W51453  16.798   0.884   9.006 -0.1122  0.2558 -0.0917
42654W        W51454  19.953   0.413   5.135 -0.2455 -0.1833 -0.1426
42655W        W51455  24.072   7.487  31.288 -0.1945 -0.0562 -0.1765
42656W        W51456  24.431   6.315  19.516  0.0039  0.0959  0.3028
42657W        W51457   3.826   4.390  27.199 -0.0257 -0.2787 -0.0305
42658W        W51458  24.707   1.158  17.987 -0.2080 -0.1176  0.1113
42659W        W51459   4.929   0.046   0.266  0.4481  0.1966  0.1232
42660W        W51460  10.246   0.525  11.141 -0.0524  0.0050  0.2197
42661W        W51461  10.582   0.698  22.790 -0.1150  0.0016 -0.1308
42662W        W51462   6.192   3.120   3.467 -0.0871 -0.2450 -0.0240
42663W        W51463   0.058   2.905   0.254 -0.1839 -0.0795  0.1970
42664W        W51464   0.379   6.729  21.298 -0.0144  0.1762  0.2025
42665W        W51465   6.136   2.934   1.701 -0.2880 -0.1345 -0.1365
42666W        W51466  13.726   4.654  30.825 -0.1211 -0.0994  0.0436
42667W        W51467  22.571   4.190   2.773 -0.1505  0.0434 -0.0345
42668W        W51468  13.375   6.494  21.771  0.0442  0.2034 -0.0352
42669W        W51469  16.529   4.831  11.015  0.0316 -0.1615 -0.1346
42670W        W51470   5.115   4.778   7.780 -0.2253  0.0012  0.0021
42671W        W51471  14.688   5.179   6.784  0.0555  0.1142  0.0626
42672W        W51472  18.549   3.130  29.127 -0.2700  0.0204  0.0499
42673W        W51473   4.983   7.118   7.217 -0.1104 -0.1316  0.1227
42674W        W51474   4.919   1.743  31.962 -0.0665  0.1199 -0.4213
42675W        W51475   2.650   5.305  30.072  0.0537  0.2552 -0.1814
42676W        W51476  10.490   2.118  16.742 -0.2874  0.0435 -0.0377
42677W        W51477   9.218   4.220  30.183  0.1981 -0.3182 -0.2657
42678W        W51478  15.417   2.543   7.322 -0.2650 -0.2147 -0.1064
42679W        W51479  11.939   1.125  27.380  0.1301 -0.2681 -0.1138
42680W        W51480   5.876   4.228   4.993  0.1490  0.0379 -0.0074
42681W        W51481  24.485   4.863  27.362  0.1878  0.0088  0.1218
42682W        W51482  19.165   3.674   3.026  0.3282  0.0719  0.0567
42683W        W51483   5.471   0.092   1.218  0.2029 -0.2436  0.1058
42684W        W51484  24.638   2.190   6.203  0.0941  0.1530  0.2192
42685W        W51485   6.251   1.164  11.031 -0.1270  0.2669  0.0839
42686W        W51486   2.672   0.766  31.708  0.0321 -0.1760 -0.1893
42687W        W51487  12.777   6.177  13.752 -0.0131  0.2389 -0.2536
42688W        W51488   3.061   3.129   3.914  0.1127 -0.0608  0.0310
42689W        W51489  23.254   1.067  18.928 -0.3123  0.0386  0.0806
42690W        W51490   4.501   3.145  31.097 -0.2412 -0.1251 -0.1842
42691W        W51491  22.496   3.085  21.751  0.1222 -0.1478  0.2307
42692W        W51492  13.434   2.061  30.912 -0.1304  0.1145  0.2399
42693W        W51493  12.431   1.966  31.758  0.2277 -0.0549 -0.3915
42694W        W51494  24.819   5.108  16.941  0.0197 -0.2653 -0.0136
42695W        W51495  14.998   0.447  23.861  0.0546  0.0999 -0.1423
42696W        W51496  24.881   6.108  30.074 -0.0284 -0.1350  0.1833
42697W        W51497  15.897   7.634   0.366 -0.0042 -0.0489  0.0214
42698W        W51498  13.334   6.687  13.535  0.0426 -0.0402  0.2229
42699W        W51499   8.052   3.920  11.186 -0.2142  0.2047 -0.1432
42700W        W51500  11.258   6.732  12.334 -0.1785  0.3594  0.0150
42701W        W51501  17.950   0.124   9.224 -0.0599 -0.0246 -0.0458
42702W        W51502  14.913   4.171  30.607  0.1038 -0.1477  0.1372
42703W        W51503  19.629   0.227  22.231  0.1130 -0.0575  0.0851
42704W        W51504   1.386   7.189  10.080  0.0605 -0.1466 -0.1525
42705W        W51505  19.128   7.437  19.019 -0.2782 -0.1488  0.0038
42706W        W51506   7.440   5.568  30.778  0.1992 -0.3849  0.0607
42707W        W51507  11.367   2.966   5.985 -0.1722 -0.0659  0.1329
42708W        W51508   7.368   6.657   1.823  0.1995  0.1792 -0.0508
42709W        W51509   4.081   1.893  23.015 -0.0386 -0.4602 -0.1690
42710W        W51510   7.915   3.636   8.124 -0.2452  0.0906  0.1619
42711W        W51511   5.837   3.350   1.515  0.2341  0.0238  0.3268
42712W        W51512   8.615   0.268  11.653 -0.0190  0.1115 -0.0754
42713W        W51513   8.709   7.274  24.468 -0.1589 -0.1644 -0.0069
42714W        W51514   4.999   6.919   5.305 -0.1004 -0.0170 -0.0953
42715W        W51515  16.018   1.654  31.451 -0.2965 -0.3811 -0.2658
42716W        W51516  12.820   1.906   0.029  0.0213 -0.1383  0.0475
42717W        W51517   8.219   6.571   2.488  0.2399  0.0767  0.0272
42718W        W51518   9.131   1.857  13.947  0.2337 -0.0216  0.0953
42719W        W51519  18.797   6.485  17.973  0.1967 -0.4231 -0.1918
42720W        W51520   0.118   4.543   9.965 -0.1735 -0.1365  0.3644
42721W        W51521   1.764   2.657   0.918 -0.0195 -0.2246 -0.0867
42722W        W51522   1.658   7.518   3.193 -0.3060  0.1155  0.1072
42723W        W51523  19.210   6.244  22.212 -0.0069 -0.0903  0.1681
42724W        W51524  13.674   4.444  23.668  0.1751 -0.1422 -0.1025
42725W        W51525  19.825   0.410  28.805 -0.0317  0.0173 -0.1495
42726W        W51526  14.533   0.472  11.920 -0.0308 -0.2555 -0.0014
42727W        W51527  21.981   6.817   7.123 -0.1732 -0.0181 -0.0878
42728W        W51528  10.183   7.385   9.524  0.1012 -0.0920  0.0958
42729W        W51529   7.913   4.181   7.667 -0.1618 -0.2516 -0.1193
42730W        W51530  14.800   7.809  27.290 -0.1954 -0.1468  0.1220
42731W        W51531  20.404   2.014   4.525 -0.1071  0.1853 -0.1130
42732W        W51532  17.518   3.105   4.505  0.0029 -0.1420  0.0424
42733W        W51533  14.314   2.647  11.723  0.3367 -0.1102  0.2747
42734W        W51534  17.031   3.400  22.643 -0.0750 -0.0997 -0.0197
42735W        W51535  12.047   1.027  28.715  0.0516 -0.0974  0.1769
42736W        W51536  23.105   6.500  22.674  0.0707  0.4036 -0.0364
42737W        W51537  19.425   0.976   3.070 -0.4028 -0.2363 -0.1227
42738W        W51538  23.107   1.202  29.901  0.0968 -0.1285  0.1004
42739W        W51539   5.469   6.425  15.401  0.0720  0.2794  0.1999
42740W        W51540  16.878   7.439   7.473 -0.2087  0.3060  0.0249
42741W        W51541   9.499   2.485  32.350  0.0665  0.1764  0.0309
42742W        W51542  18.268   5.792  29.806  0.0917 -0.2752 -0.2802
42743W        W51543  13.487   0.555  28.476  0.0302  0.1985 -0.0162
42744W        W51544  20.687   1.829  23.567  0.0398 -0.1369  0.2580
42745W        W51545  13.797   5.067  30.434  0.0568  0.0399  0.0740
42746W        W51546  22.714   0.311  22.163 -0.0559  0.2935 -0.1163
42747W        W51547  14.981   7.818  32.561 -0.0317 -0.2242 -0.3410
42748W        W51548  12.235   0.156   4.390  0.1187 -0.3290  0.3671
42749W        W51549  12.092   3.448  25.414  0.2694 -0.1378  0.0442
42750W        W51550  18.915   2.688  14.944  0.0304  0.0526 -0.0964
42751W        W51551  22.902   7.482  18.842  0.1795  0.1145  0.1848
42752W        W51552  22.317   0.263  22.555  0.4338  0.0714 -0.1242
42753W        W51553  23.921   2.309  23.285 -0.0821  0.0700 -0.0068
42754W        W51554  20.510   7.672  19.246 -0.2335  0.1698 -0.0555
42755W        W51555  12.782   7.313  22.922  0.0280  0.0450 -0.0552
42756W        W51556   4.069   7.178  14.423  0.1491  0.2484 -0.1840
42757W        W51557  21.970   5.950  22.413  0.0249  0.3628 -0.3308
42758W        W51558  18.619   2.497  30.413  0.2578  0.2346  0.2860
42759W        W51559  13.122   7.191   8.350  0.1804  0.0024 -0.1292
42760W        W51560  12.576   6.625  27.581 -0.0238 -0.0487  0.3039
42761W        W51561  13.305   6.057  28.741 -0.1791  0.2148 -0.3528
42762W        W51562   5.946   7.372  22.243  0.1643  0.1116  0.0362
42763W        W51563   8.289   2.656  10.350  0.0917 -0.4559  0.0563
42764W        W51564  11.502   7.485   5.421  0.2179 -0.0149  0.1717
42765W        W51565  17.255   5.439  32.360  0.4581 -0.1273 -0.0892
42766W        W51566  23.658   0.818  16.346 -0.0716 -0.0079 -0.1857
42767W        W51567  13.403   2.242   0.666 -0.0480  0.2497 -0.0945
42768W        W51568  18.335   4.081  25.016  0.1502 -0.3442  0.6325
42769W        W51569   7.355   3.971   6.401 -0.1726  0.0783  0.2306
42770W        W51570   7.255   6.515  24.525  0.5361 -0.0653  0.0015
42771W        W51571  16.826   2.479  19.403  0.1318 -0.2444 -0.2043
42772W        W51572  23.901   2.184  26.967 -0.0084  0.0708  0.2363
42773W        W51573  10.351   1.681  12.675 -0.0484 -0.0599 -0.1037
42774W        W51574   7.015   1.263  22.609  0.3019 -0.0719 -0.1325
42775W        W51575  19.636   6.155  16.602  0.0159  0.3589 -0.0049
42776W        W51576   3.431   6.099  30.715  0.1952  0.1995  0.0251
42777W        W51577  17.974   1.634  22.581 -0.2993 -0.1753  0.0669
42778W        W51578  11.387   4.991  10.946  0.0373  0.1589  0.0622
42779W        W51579  14.027   3.741  12.734  0.3225  0.0583 -0.0867
42780W        W51580   1.986   4.695  27.337 -0.0450 -0.2746 -0.1018
42781W        W51581  16.432   4.617   0.721  0.0408 -0.0716 -0.1286
42782W        W51582   8.511   7.168  17.592  0.2102  0.3437 -0.0821
42783W        W51583   5.648   6.600   2.334 -0.2696  0.0009  0.0160
42784W        W51584   6.271   1.693  30.563  0.1011  0.0418 -0.0157
42785W        W51585  19.609   1.843   2.115  0.1443  0.1010 -0.1270
42786W        W51586  24.779   3.708   4.683  0.0998 -0.1282 -0.1215
42787W        W51587   9.657   0.168   0.857  0.0970  0.0449  0.1633
42788W        W51588   7.443   1.909  32.648 -0.1109 -0.0689  0.3323
42789W        W51589   3.908   2.571  23.954 -0.0132 -0.4490  0.1528
42790W        W51590   2.512   3.327  10.811  0.0095 -0.1118 -0.0045
42791W        W51591  21.603   7.048  24.076 -0.0542  0.0454 -0.2672
42792W        W51592   6.371   1.218  13.094  0.0640  0.0502  0.3195
42793W        W51593  13.640   5.249  13.640 -0.2672  0.0339  0.1157
42794W        W51594   0.426   4.099  27.168 -0.1469  0.2919  0.1060
42795W        W51595  24.636   0.821   5.006  0.2434  0.1308  0.0998
42796W        W51596  14.262   5.775  11.396  0.1045 -0.0477 -0.0318
42797W        W51597  18.195   1.510  10.595  0.0235 -0.2444 -0.0244
42798W        W51598  24.631   3.111  31.728  0.0883 -0.1454 -0.1223
42799W        W51599  21.315   3.679  16.928 -0.0294 -0.2193  0.2462
42800W        W51600  20.657   5.667  30.314 -0.3886  0.2320  0.0961
42801W        W51601  24.164   5.756   9.286 -0.2304 -0.1431 -0.0291
42802W        W51602  10.008   7.355  28.600 -0.1239 -0.2610  0.2487
42803W        W51603   8.984   0.820  24.771  0.2963  0.0421  0.1584
42804W        W51604  17.600   4.998  22.244  0.1552 -0.1732  0.0542
42805W        W51605  10.025   5.682  31.110  0.3325 -0.3042 -0.1131
42806W        W51606  16.823   3.809   6.023 -0.0029  0.0881  0.0742
42807W        W51607  10.536   2.175  30.585  0.0019 -0.2438  0.1573
42808W        W51608   3.349   6.414  25.456 -0.0554  0.3886 -0.3655
42809W        W51609  19.491   6.926  23.508  0.1036 -0.0751 -0.2397
42810W        W51610   4.458   7.142   8.956  0.0760 -0.0721 -0.3644
42811W        W51611  23.670   3.314  28.811  0.0955  0.1778  0.3144
42812W        W51612   3.782   5.422  23.965 -0.1075 -0.0962 -0.0271
42813W        W51613  21.579   2.193  30.456  0.2155 -0.3720  0.3535
42814W        W51614  17.359   3.042  32.178 -0.0835 -0.4072 -0.0549
42815W        W51615  22.162   3.985  25.961 -0.3409  0.1556 -0.0323
42816W        W51616  20.363   7.535   0.951 -0.1805  0.0048 -0.0228
42817W        W51617  10.532   2.653   9.209 -0.0923 -0.0560  0.3515
42818W        W51618  14.609   3.922   2.418  0.0850  0.1215 -0.0223
42819W        W51619  17.994   0.841   9.953 -0.0408  0.1422 -0.0460
42820W        W51620  13.018   4.428  31.161 -0.0832  0.0968  0.3029
42821W        W51621  12.759   5.643  21.738 -0.0824  0.1653  0.0832
42822W        W51622   6.345   6.994   2.714 -0.2719  0.1772 -0.2037
42823W        W51623  10.152   4.375   5.824 -0.4043  0.0922  0.0460
42824W        W51624   2.252   7.609   2.911  0.0743  0.0530  0.1976
42825W        W51625  19.328   7.595  30.515  0.2828  0.0306 -0.0369
42826W        W51626   0.509   7.699  23.129  0.2934  0.1665  0.0829
42827W        W51627  16.001   1.869  11.462 -0.0523  0.3240  0.1896
42828W        W51628   6.396   7.413   3.006  0.0317  0.2327  0.2270
42829W        W51629  10.561   2.895  22.787  0.0522  0.0481  0.0134
42830W        W51630   7.742   6.004   0.137 -0.2449  0.1078 -0.3041
42831W        W51631  18.475   4.275  23.525 -0.0710  0.3317  0.3877
42832W        W51632  14.181   3.602  11.831  0.2139 -0.0002 -0.0031
42833W        W51633  13.632   2.828   7.311 -0.1965  0.0933 -0.1327
42834W        W51634  22.538   0.874  30.124  0.0479 -0.4173 -0.1334
42835W        W51635  24.438   7.451   8.441  0.0836  0.0707  0.2030
42836W        W51636   2.428   1.952   1.187 -0.0462 -0.1878  0.2046
42837W        W51637   5.610   7.305  32.352 -0.2614 -0.1866  0.2894
42838W        W51638   1.927   7.164  21.216  0.2562 -0.0754 -0.1549
42839W        W51639   6.295   0.743   2.421 -0.2084  0.0704  0.0499
42840W        W51640  11.030   2.547   2.333 -0.0134  0.1143 -0.1503
42841W        W51641  18.223   2.932  21.398 -0.1101  0.0041 -0.2449
42842W        W51642  17.771   0.770   8.114  0.0698  0.1921 -0.0574
42843W        W51643  13.690   4.256  14.178 -0.1942  0.0180  0.3779
42844W        W51644   2.092   4.696  18.980  0.1012  0.2999 -0.0602
42845W        W51645  18.591   4.720   6.239  0.2380  0.1005 -0.2479
42846W        W51646  14.533   1.724   1.245  0.2872 -0.1245 -0.1690
42847W        W51647  11.633   5.648  27.483  0.2279 -0.2855 -0.0087
42848W        W51648  21.923   4.702   4.062 -0.1477 -0.1574 -0.1553
42849W        W51649  12.744   0.484   3.901  0.1275  0.2959 -0.2793
42850W        W51650  24.599   3.559  21.340 -0.2687  0.0352 -0.2654
42851W        W51651   4.449   3.119  29.179 -0.1585 -0.1281  0.2049
42852W        W51652   5.215   2.327   5.143  0.0780  0.4044  0.0521
42853W        W51653  12.941   4.794  24.706  0.4254  0.1457  0.0003
42854W        W51654  20.031   5.431  18.659 -0.0391 -0.0498  0.3374
42855W        W51655   6.771   0.429  17.384  0.1348 -0.1802 -0.0194
42856W        W51656  13.786   5.082  13.179 -0.1574 -0.0762 -0.0866
42857W        W51657   2.547   1.986   0.072 -0.1934  0.1594  0.0776
42858W        W51658  17.383   2.539  19.468 -0.0966  0.1856 -0.0399
42859W        W51659   6.288   5.241  24.063 -0.0680  0.0322  0.1424
42860W        W51660  16.134   3.107  28.904  0.1373  0.2626  0.0984
42861W        W51661  12.285   6.391  32.304  0.0542  0.1264 -0.0724
42862W        W51662  17.320   5.084  28.637 -0.1544 -0.0909  0.1872
42863W        W51663  22.852   2.821  15.223 -0.0482 -0.0966  0.2662
42864W        W51664   4.256   5.472  13.818  0.1329 -0.2732  0.0084
42865W        W51665   7.984   1.624   4.470  0.1824  0.1927  0.0584
42866W        W51666  14.828   0.795   9.476  0.0262  0.1013 -0.1719
42867W        W51667  24.373   1.737   7.954  0.2987 -0.1736 -0.2023
42868W        W51668   1.630   2.552  10.524  0.2803  0.0846  0.2101
42869W        W51669   5.741   1.728  30.051 -0.2014  0.1327 -0.1875
42870W        W51670  10.229   6.702  15.961 -0.1746  0.1232  0.1115
42871W        W51671   2.009   2.121  25.664 -0.0875  0.1818  0.0864
42872W        W51672   7.781   5.554   5.557  0.0207  0.0334  0.1539
42873W        W51673   6.023   0.552   5.601  0.2956 -0.1456  0.2110
42874W        W51674  12.040   6.496   3.211  0.0195 -0.1048  0.2128
42875W        W51675  16.732   4.994   6.236 -0.1047  0.0406 -0.1164
42876W        W51676  20.883   6.717  23.134 -0.0308 -0.0702  0.0817
42877W        W51677   3.545   7.241  27.970  0.0224 -0.0201 -0.1919
42878W        W51678  16.704   0.766   8.124 -0.0485  0.1114  0.0724
42879W        W51679   1.088   1.198  31.228 -0.0771  0.3901  0.0453
42880W        W51680  24.162   2.067  30.407 -0.0225  0.1184  0.0901
42881W        W51681  14.111   1.926  21.642 -0.5738  0.0668 -0.0870
42882W        W51682   9.590   1.118  12.306 -0.1156  0.4004 -0.1392
42883W        W51683   5.659   5.423   8.217  0.1376 -0.2818 -0.3257
42884W        W51684  20.321   5.228   8.537  0.0627 -0.1457  0.0566
42885W        W51685  14.315   2.091   0.988 -0.0526 -0.2217  0.1020
42886W        W51686   0.476   2.200   1.400 -0.2486 -0.0951  0.1036
42887W        W51687  10.632   6.252   0.877  0.3022  0.3116 -0.1912
42888W        W51688  12.791   4.221  26.686  0.1629  0.0317  0.0102
42889W        W51689  14.312   4.648   5.303 -0.0556 -0.1764  0.1135
42890W        W51690  11.325   5.290   5.629  0.0465 -0.1683 -0.0190
42891W        W51691   7.911   5.221  14.838  0.0758 -0.3407 -0.0890
42892W        W51692   7.202   7.750  16.400  0.0235  0.0003  0.5674
42893W        W51693   9.002   6.817   3.614 -0.0573 -0.0199 -0.2304
42894W        W51694  17.806   5.270  28.874  0.1017 -0.1275  0.0716
42895W        W51695   8.483   4.776  32.671 -0.0539 -0.1314  0.1313
42896W        W51696   7.965   2.282  32.155 -0.0377 -0.2477 -0.1807
42897W        W51697  18.561   0.951  30.915  0.2648  0.2802  0.2027
42898W        W51698   7.475   7.258   0.429  0.0452 -0.0417  0.0776
42899W        W51699   8.625   3.492  11.754  0.1443  0.0201  0.0291
42900W        W51700   9.437   3.418  16.818  0.3025 -0.0736 -0.0179
42901W        W51701  21.946   2.923   8.900 -0.0187 -0.1755  0.2957
42902W        W51702  14.219   3.571  11.320 -0.0126  0.0806  0.0678
42903W        W51703  17.760   6.002  20.469 -0.1939  0.4272 -0.2897
42904W        W51704  13.996   3.538  21.870  0.1592 -0.0481  0.0641
42905W        W51705   6.086   3.496  28.435 -0.1549 -0.0154  0.1850
42906W        W51706  14.187   6.399  12.706 -0.0571  0.3319 -0.0449
42907W        W51707   2.041   4.863  29.816  0.1100  0.1080 -0.0935
42908W        W51708   6.593   2.466  22.053  0.1970 -0.0978 -0.0776
42909W        W51709  17.790   5.725  30.997 -0.0572 -0.1089 -0.2122
42910W        W51710  10.914   4.700   2.772 -0.0419 -0.0571 -0.2570
42911W        W51711   9.500   1.034   1.628  0.2284  0.2194 -0.2131
42912W        W51712   9.286   5.271   1.200  0.1705 -0.2452  0.1207
42913W        W51713  12.833   3.669   9.714 -0.1289  0.1585 -0.3258
42914W        W51714  11.007   3.427  11.288 -0.2382  0.0823  0.0515
42915W        W51715  16.201   4.506  20.763 -0.0530 -0.0435  0.0055
42916W        W51716  18.962   2.121   4.616  0.0865  0.0453  0.0250
42917W        W51717  10.096   0.120  30.915  0.1175 -0.2806  0.0514
42918W        W51718  21.954   6.087  19.100 -0.2141 -0.2141 -0.0389
42919W        W51719  12.765   5.029  14.841 -0.0362  0.1531 -0.3385
42920W        W51720  12.752   7.288  25.379 -0.0332  0.3490  0.0117
42921W        W51721   3.501   1.978  28.426  0.0916 -0.1349 -0.2165
42922W        W51722  21.018   3.177  22.789 -0.2115 -0.0099 -0.2173
42923W        W51723  14.285   0.313  30.548  0.1854  0.2595 -0.1947
42924W        W51724   1.178   7.770  11.510  0.0343 -0.1542  0.0122
42925W        W51725  12.524   4.045   9.940 -0.0194  0.1468  0.0942
42926W        W51726  13.001   5.114   2.685 -0.1613 -0.0983 -0.1042
42927W        W51727   5.431   4.565   4.737  0.1571 -0.0642 -0.0683
42928W        W51728  13.613   6.964   7.039  0.0133  0.1635 -0.1365
42929W        W51729   7.776   2.170   8.398 -0.0460  0.1131 -0.1366
42930W        W51730  15.259   2.428   0.082 -0.2064 -0.1131  0.1186
42931W        W51731  15.248   4.237  19.885  0.1532 -0.0230  0.2190
42932W        W51732  21.586   4.168  21.916 -0.1153  0.3157 -0.1932
42933W        W51733  19.611   6.659  19.064  0.0243  0.2601  0.5073
42934W        W51734  18.670   7.464  18.785 -0.0183 -0.1557  0.0052
42935W        W51735  24.740   1.426  30.102 -0.0132 -0.0684  0.2684
42936W        W51736   1.113   6.066   9.536 -0.0105  0.2002 -0.0368
42937W        W51737   4.145   5.294   0.070 -0.0647  0.1056  0.2393
42938W        W51738  22.783   3.529   1.077 -0.1237 -0.1400  0.1312
42939W        W51739   2.306   3.938   0.098  0.0300 -0.1207 -0.0102
42940W        W51740  16.076   6.048  17.182  0.1142  0.4052  0.1883
42941W        W51741  15.430   6.389  24.646  0.1806 -0.0433  0.0987
42942W        W51742   9.560   0.937   3.236  0.1118  0.1417 -0.0091
42943W        W51743   2.460   4.911  28.703  0.1427 -0.0052 -0.1741
42944W        W51744  21.702   1.734  19.787  0.0271  0.2496 -0.0094
42945W        W51745  18.323   4.042   0.306 -0.1457  0.1843 -0.0248
42946W        W51746  20.722   2.956   8.008  0.0636 -0.1844 -0.1812
42947W        W51747  11.963   7.041  12.390 -0.0432 -0.2734  0.1866
42948W        W51748   5.739   7.183  24.647 -0.4308  0.3876 -0.3258
42949W        W51749  19.711   6.634  24.808  0.0339  0.1294 -0.0258
42950W        W51750  20.700   4.469   0.252  0.0764 -0.1296 -0.2109
42951W        W51751  17.811   6.709   2.163  0.4992  0.1750 -0.0394
42952W        W51752   9.948   4.648   1.137  0.1445  0.0702 -0.1232
42953W        W51753  22.615   3.707  17.593  0.0756  0.1713 -0.2824
42954W        W51754   3.494   2.453   6.946  0.0664  0.2349  0.3224
42955W        W51755  12.916   5.140  13.111  0.0035 -0.1188  0.0056
42956W        W51756  18.094   5.647   6.143  0.2335 -0.1213  0.1747
42957W        W51757   2.936   7.259   8.467  0.1150  0.1931 -0.0815
42958W        W51758   6.128   2.806  14.970 -0.0728 -0.1669 -0.1563
42959W        W51759   7.289   3.100  29.040  0.4010 -0.1039  0.1101
42960W        W51760   4.503   3.389  24.743 -0.0133  0.0284 -0.1190
42961W        W51761  14.546   5.923   7.470 -0.0766  0.1762 -0.0080
42962W        W51762   6.725   3.925  13.857  0.0358 -0.3116 -0.0005
42963W        W51763  12.779   6.774  12.529  0.0254 -0.0163 -0.1726
42964W        W51764  21.736   3.047   9.695 -0.2065  0.2876 -0.1489
42965W        W51765  16.331   3.051   7.780 -0.2842  0.0200  0.0745
42966W        W51766  15.417   1.207  28.932 -0.0863 -0.0833 -0.2096
42967W        W51767  15.680   3.615  30.323  0.1099 -0.1841  0.1937
42968W        W51768   7.139   6.197  28.257  0.0016  0.1917 -0.1230
42969W        W51769  13.846   6.670  23.278 -0.0906 -0.1198  0.3179
42970W        W51770  11.136   2.767  30.272  0.1593  0.0543 -0.1209
42971W        W51771  22.565   6.727  18.217  0.0618 -0.0773 -0.2049
42972W        W51772  23.369   3.492   5.778 -0.0902 -0.4340  0.0689
42973W        W51773   1.442   0.534  26.805  0.0068 -0.1644  0.1664
42974W        W51774  10.543   0.907  10.227  0.1332 -0.0491 -0.1404
42975W        W51775  22.490   5.457   1.650  0.1712 -0.2473 -0.2193
42976W        W51776   7.260   1.874  13.533  0.0926 -0.0619 -0.1210
42977W        W51777   0.346   4.116   4.402 -0.1239  0.0876  0.0086
42978W        W51778  20.373   3.102  27.290  0.1091  0.3727 -0.0247
42979W        W51779   2.584   6.485  30.778  0.0341 -0.1349  0.3619
42980W        W51780  21.190   1.814  16.834  0.0772 -0.0099 -0.0197
42981W        W51781   5.273   2.453  15.094  0.1679 -0.0440  0.1786
42982W        W51782   5.646   2.500  11.272  0.0593  0.2973  0.1187
42983W        W51783  23.565   5.222  14.569 -0.1545  0.2923  0.0294
42984W        W51784  17.987   6.992  30.171  0.0902 -0.1824 -0.0749
42985W        W51785   4.486   2.873  27.809  0.0799 -0.4606  0.0190
42986W        W51786  21.464   7.818  29.893  0.3121  0.0916 -0.1486
42987W        W51787   0.316   7.593   9.185 -0.3961 -0.1578 -0.0520
42988W        W51788   8.098   7.563  26.167  0.0129 -0.0415  0.1083
42989W        W51789  17.525   1.044   3.769  0.1847 -0.0365 -0.2583
42990W        W51790   2.256   5.931  25.554  0.1656  0.3449 -0.0598
42991W        W51791   0.979   1.570   6.963 -0.0380 -0.1148 -0.1502
42992W        W51792  12.764   4.034  27.159  0.2870 -0.0686 -0.2497
42993W        W51793   9.168   3.367  29.928  0.4580  0.1910 -0.1337
42994W        W51794  17.055   6.926  23.682 -0.2259 -0.1380 -0.1920
42995W        W51795  10.897   7.661  11.165  0.2093 -0.3399 -0.0425
42996W        W51796  18.331   7.290  15.541 -0.0963  0.1011 -0.1951
42997W        W51797  23.342   0.914   4.170 -0.2259 -0.1761 -0.0270
42998W        W51798  24.060   1.789  10.403 -0.2793  0.0294  0.1903
42999W        W51799   7.768   0.879  22.811 -0.3446  0.1096 -0.0198
43000W        W51800  16.491   4.944  24.796  0.2275 -0.1118  0.1711
43001W        W51801  22.747   4.027  18.086  0.2091  0.3310 -0.0523
43002W        W51802   9.280   7.229   2.925 -0.0334 -0.0382 -0.0468
43003W        W51803   3.812   7.329  28.834 -0.2198 -0.0052 -0.0889
43004W        W51804   4.995   5.693  30.588 -0.1834  0.0242  0.1329
43005W        W51805   0.537   7.228   9.521 -0.1398  0.1553  0.1500
43006W        W51806   6.419   2.664  30.019  0.1333 -0.0622 -0.1138
43007W        W51807  17.775   0.048   1.541  0.1869  0.0918  0.0051
43008W        W51808  11.688   0.308  29.129  0.3918 -0.3040  0.0129
43009W        W51809  16.743   4.870  17.075 -0.0183 -0.0470  0.1240
43010W        W51810  15.566   3.070   3.770 -0.0003 -0.0462  0.0469
43011W        W51811  15.240   7.546   6.438 -0.0801 -0.0029 -0.0369
43012W        W51812   5.002   0.520  30.134 -0.2823 -0.1541 -0.2274
43013W        W51813   5.903   1.014  31.074 -0.3626 -0.0874 -0.2020
43014W        W51814  20.051   2.623   5.194  0.2294  0.0454  0.3017
43015W        W51815  16.451   1.432  26.147  0.1474 -0.1041 -0.2879
43016W        W51816  13.608   6.365  12.671 -0.0847 -0.0578 -0.1752
43017W        W51817  15.894   6.794   6.496  0.1748 -0.1753  0.0816
43018W        W51818   7.892   1.941  23.986 -0.0084 -0.4499 -0.3420
43019W        W51819   1.555   7.811  24.270  0.3195  0.0829  0.2898
43020W        W51820  13.554   1.804   0.917 -0.0561 -0.1246  0.1883
43021W        W51821  20.219   2.682  23.154 -0.1477 -0.1074 -0.2781
43022W        W51822   4.458   3.984  12.806 -0.1556  0.3950  0.1312
43023W        W51823  10.705   1.058  26.584  0.0415  0.0143  0.0474
43024W        W51824   7.474   6.137   8.012  0.5471 -0.0630 -0.0372
43025W        W51825  13.229   5.812  22.567  0.1877  0.0538  0.0248
43026W        W51826  24.583   3.218  20.881  0.0499  0.0563  0.4659
43027W        W51827   9.003   3.704  24.618 -0.1085  0.2962 -0.1015
43028W        W51828  18.772   5.227  22.384 -0.0661  0.0032  0.0309
43029W        W51829  20.587   3.245  23.674 -0.1969  0.0126 -0.2928
43030W        W51830  24.616   5.699   5.969  0.0238 -0.1520  0.0817
43031W        W51831  18.801   4.728  15.135 -0.2620  0.0466 -0.0722
43032W        W51832   4.013   7.569  14.817  0.1058  0.2367  0.0198
43033W        W51833  14.982   2.972  26.866  0.4655 -0.2197 -0.0723
43034W        W51834  13.890   5.356   0.343  0.1235  0.1442  0.2725
43035W        W51835  21.747   1.104   7.934 -0.2714  0.0406 -0.1204
43036W        W51836  12.344   7.030  27.264 -0.0417  0.0564 -0.1207
43037W        W51837   9.895   5.933   7.958 -0.3099 -0.0730 -0.1143
43038W        W51838  13.478   3.737  12.811 -0.1067 -0.1331 -0.0745
43039W        W51839  21.900   5.607   1.017  0.0643  0.4685  0.5447
43040W        W51840   1.080   0.719  31.423  0.1258 -0.3559 -0.0090
43041W        W51841  16.594   1.993  26.399 -0.2145  0.1137 -0.1323
43042W        W51842   1.911   3.919   6.263  0.0166  0.1077 -0.1295
43043W        W51843  13.707   5.254  10.074  0.0924  0.3104 -0.0111
43044W        W51844  16.785   1.577  24.706 -0.0823 -0.0326  0.0021
43045W        W51845  21.450   4.185   5.433  0.0557  0.0428  0.2022
43046W        W51846  19.283   1.266  14.050  0.1349  0.3201 -0.0693
43047W        W51847   8.757   7.533   6.418  0.1175  0.0495 -0.0627
43048W        W51848  13.769   3.755   4.233 -0.0149  0.1315 -0.1716
43049W        W51849  15.468   5.048  28.957  0.0567  0.1288  0.1727
43050W        W51850  16.382   1.098  10.646 -0.1028 -0.2530  0.0745
43051W        W51851   4.438   4.464   9.086 -0.0072 -0.0851  0.1252
43052W        W51852   6.992   0.525  32.133 -0.2489 -0.3823  0.1360
43053W        W51853  21.802   4.620  27.605 -0.0412  0.1458 -0.2010
43054W        W51854  18.632   0.748  19.109 -0.0205 -0.1609  0.0008
43055W        W51855  11.323   3.702   7.888 -0.2930 -0.2302 -0.1869
43056W        W51856  19.659   5.035  31.245  0.1586  0.0032  0.1250
43057W        W51857   0.663   7.263  22.884  0.1197 -0.2165 -0.1538
43058W        W51858  14.406   1.384  30.659  0.0762 -0.3717  0.2303
43059W        W51859  23.471   1.827   4.746 -0.0141 -0.4393 -0.0920
43060W        W51860  10.496   6.091  12.092 -0.1383 -0.0558  0.3941
43061W        W51861  10.589   1.970  23.755  0.0257 -0.1550  0.1866
43062W        W51862   6.617   7.758  10.994 -0.1198 -0.0782 -0.0615
43063W        W51863   6.003   5.031   0.581 -0.0775 -0.3281 -0.2097
43064W        W51864   1.400   7.580  24.852  0.2324  0.0537  0.2114
43065W        W51865   3.008   6.758  12.332 -0.2043  0.2884 -0.1151
43066W        W51866   3.473   2.353  29.672 -0.0062  0.2098 -0.3968
43067W        W51867  10.196   1.773  23.506  0.1194 -0.1474 -0.1007
43068W        W51868   9.092   4.799   1.161 -0.0429 -0.0419  0.2116
43069W        W51869   3.160   4.804  23.701 -0.2815 -0.0009 -0.0709
43070W        W51870   6.596   2.562   2.909  0.0700  0.0970  0.3292
43071W        W51871   3.872   6.328  22.659  0.0455  0.1061  0.0528
43072W        W51872  13.316   0.748  31.957  0.0261 -0.0465 -0.0879
43073W        W51873   0.013   5.712  10.591  0.0272  0.0481 -0.1802
43074W        W51874   9.658   1.485   3.234  0.0868 -0.2410 -0.0891
43075W        W51875   0.923   7.259  18.929  0.3789 -0.2681  0.1768
43076W        W51876  18.972   7.345  29.268  0.2310 -0.1318  0.1534
43077W        W51877  24.541   7.559  25.696  0.1277  0.0387 -0.1552
43078W        W51878  14.166   4.923   4.900 -0.0513 -0.3180  0.0653
43079W        W51879   6.322   5.480  16.192  0.0142 -0.0897 -0.0583
43080W        W51880  17.015   2.747  17.954 -0.0247  0.0613  0.1008
43081W        W51881  13.610   3.359  14.420  0.1688  0.1588  0.2781
43082W        W51882   1.732   3.540  25.725  0.0683 -0.0299 -0.0787
43083W        W51883  16.195   1.420  30.099  0.0668  0.3064 -0.0092
43084W        W51884  18.430   3.746   1.452 -0.2071 -0.2342 -0.0073
43085W        W51885   6.751   0.547   8.935  0.2096  0.0557 -0.0326
43086W        W51886  23.439   1.039  17.616  0.0286  0.3430  0.2094
43087W        W51887  20.283   6.347   9.314  0.1534 -0.2475  0.1260
43088W        W51888   5.208   5.811  11.274  0.1139  0.0905  0.1390
43089W        W51889  24.324   4.644  22.103  0.0596  0.2482  0.0155
43090W        W51890  22.721   6.667   7.611 -0.1952 -0.0146 -0.0584
43091W        W51891   3.850   3.051  25.936  0.3568  0.0078  0.0615
43092W        W51892  12.338   0.690  28.472  0.0562  0.2105  0.1197
43093W        W51893  18.827   3.359   2.838 -0.4199 -0.1793 -0.3273
43094W        W51894  18.520   1.530  22.550  0.1341 -0.1659  0.1555
43095W        W51895   8.550   6.186   1.551 -0.0598  0.1560  0.0567
43096W        W51896  11.017   7.786  12.681  0.1294  0.0708  0.0378
43097W        W51897   3.433   1.894  21.073 -0.2926  0.1311  0.0243
43098W        W51898  14.148   2.330   1.404 -0.2109 -0.3314  0.1631
43099W        W51899  20.173   3.127   4.073  0.0742  0.4146 -0.0929
43100W        W51900  18.480   4.020  25.457  0.1154 -0.1187 -0.0639
43101W        W51901  14.527   3.621  23.876 -0.0901  0.0012  0.2090
43102W        W51902  21.236   6.383  23.369 -0.0905  0.1129  0.0753
43103W        W51903  18.166   7.389  19.038 -0.0184  0.3403  0.0632
43104W        W51904  12.675   6.549  27.097  0.1747 -0.1596 -0.0672
43105W        W51905   3.710   4.033  29.828 -0.1021 -0.0582  0.3066
43106W        W51906  18.572   5.372   1.202  0.0022  0.0794 -0.0229
43107W        W51907   7.804   4.781   3.457 -0.3407 -0.1652  0.0462
43108W        W51908  12.366   6.946   8.046 -0.4001  0.0211  0.1199
43109W        W51909   6.041   1.397   0.102  0.1874 -0.1329 -0.0216
43110W        W51910  18.021   1.651  29.726  0.0498 -0.1750 -0.1323
43111W        W51911  24.703   7.194  24.791  0.0659 -0.0379  0.0402
43112W        W51912  12.117   4.103  32.693  0.0314 -0.3435 -0.0762
43113W        W51913   0.607   3.386  23.618  0.0583 -0.0213 -0.1780
43114W        W51914  12.284   7.724   7.799 -0.2452 -0.0763  0.0657
43115W        W51915  23.782   6.801   1.917 -0.0095 -0.0988  0.0187
43116W        W51916   2.401   3.521   2.426 -0.2013 -0.2751 -0.1269
43117W        W51917  18.603   7.539  25.345  0.2715 -0.1987 -0.1724
43118W        W51918  22.983   0.623  25.424 -0.1798 -0.0397 -0.1234
43119W        W51919  18.604   7.538  27.740 -0.0452  0.1747 -0.1184
43120W        W51920   3.943   7.819  28.736 -0.1061  0.1814  0.0749
43121W        W51921   6.200   4.628  10.928  0.3334 -0.0822 -0.0775
43122W        W51922   2.475   4.221  20.933 -0.2101 -0.0246 -0.0403
43123W        W51923  15.922   0.065   8.267  0.0208 -0.0839  0.1987
43124W        W51924   9.819   4.865  12.656  0.1498 -0.0060  0.0956
43125W        W51925  23.892   4.656   7.979 -0.2231 -0.1772  0.0867
43126W        W51926  12.439   7.528   3.690 -0.0399  0.0367  0.0552
43127W        W51927  10.479   5.645   8.166 -0.1737  0.0873 -0.1000
43128W        W51928  21.569   2.092   2.313 -0.0809  0.0326  0.3259
43129W        W51929   8.583   2.055  14.635 -0.0685 -0.0855 -0.5638
43130W        W51930   5.681   4.669   7.012 -0.0583  0.0835 -0.1421
43131W        W51931  23.244   0.736  15.370  0.0825  0.2924  0.0260
43132W        W51932   0.398   6.521   6.908  0.2137 -0.0040 -0.2145
43133W        W51933  10.361   4.507   7.402 -0.1988  0.0433 -0.0787
43134W        W51934  18.316   0.789  18.711  0.4584  0.1660 -0.2736
43135W        W51935  16.201   2.700  18.620  0.2642 -0.0575  0.0264
43136W        W51936   3.058   2.770  29.001  0.1293  0.3130  0.1162
43137W        W51937  22.514   4.322  19.301  0.1871  0.1069 -0.0159
43138W        W51938  13.029   2.316   5.732 -0.0688 -0.4342  0.2431
43139W        W51939  10.738   5.870  17.980 -0.2087  0.1014  0.0807
43140W        W51940   2.794   7.702  31.183  0.1076 -0.1035  0.0335
43141W        W51941  23.664   1.604  17.364  0.2256 -0.0773 -0.1069
43142W        W51942   5.833   7.095  26.128 -0.2648  0.1461  0.1898
43143W        W51943  11.224   3.924  29.585 -0.1470  0.2746  0.0850
43144W        W51944  23.244   3.123   8.486 -0.0181  0.0529  0.0640
43145W        W51945  12.608   5.069  26.554 -0.3433 -0.3112 -0.2063
43146W        W51946  10.003   3.095   4.484 -0.2443 -0.0111  0.1508
43147W        W51947  20.100   0.835  21.320 -0.2024 -0.0300 -0.1316
43148W        W51948  15.902   4.531   3.382  0.0537  0.1700 -0.5391
43149W        W51949  24.896   7.560   7.235 -0.0450  0.1007  0.2801
43150W        W51950  22.595   2.061  19.918  0.2770 -0.0619  0.1408
43151W        W51951   1.641   1.636   5.741  0.0978  0.0073  0.1018
43152W        W51952  20.076   4.246  18.646  0.1334 -0.2781 -0.0783
43153W        W51953  13.737   3.083  12.175 -0.0329 -0.2250 -0.2003
43154W        W51954   2.373   5.254  19.225 -0.0627  0.1284  0.0777
43155W        W51955  11.457   4.786  29.717  0.0609 -0.0391 -0.0439
43156W        W51956   5.462   4.911   0.368  0.1616  0.2042 -0.2460
43157W        W51957  13.798   1.616   9.659  0.3833 -0.3731 -0.1331
43158W        W51958  11.932   7.326  11.132  0.3211  0.1572 -0.1152
43159W        W51959   1.003   6.393  20.863 -0.0888 -0.1427 -0.0914
43160W        W51960   4.515   1.287   0.501  0.1237 -0.2378 -0.1424
43161W        W51961  10.047   5.524  10.934  0.1659 -0.0289  0.2170
43162W        W51962  24.351   4.083   2.389  0.0540 -0.0665  0.1326
43163W        W51963  17.912   2.475  18.133  0.1798 -0.1119  0.0926
43164W        W51964   9.644   6.409   4.716  0.0178 -0.0389 -0.0891
43165W        W51965  18.775   0.472   0.715 -0.1031 -0.1080  0.2630
43166W        W51966  23.960   6.602  16.023 -0.1353  0.1008  0.0522
43167W        W51967  12.223   4.465  27.822  0.0565  0.5052 -0.0766
43168W        W51968   9.498   7.814   8.560  0.0039 -0.0297  0.4841
43169W        W51969   6.336   2.990  24.238  0.0627 -0.6414  0.0718
43170W        W51970   4.798   1.021  22.639 -0.3235 -0.2122  0.1048
43171W        W51971   7.869   0.829   8.336  0.0042 -0.0234  0.0248
43172W        W51972  19.159   7.717   9.606  0.2373  0.3669  0.2261
43173W        W51973  24.190   2.190   0.968 -0.2093 -0.2533  0.1309
43174W        W51974  14.869   0.511  29.854 -0.0466 -0.0825  0.0041
43175W        W51975   4.033   7.680   0.557  0.2497  0.0917  0.0189
43176W        W51976   1.268   4.271  31.945 -0.0293 -0.4586  0.1178
43177W        W51977  18.019   1.197  18.829  0.1272  0.0747  0.1638
43178W        W51978   5.542   0.298  16.923  0.2705 -0.1553 -0.1931
43179W        W51979   5.014   6.608   5.682 -0.1361  0.2083 -0.2961
43180W        W51980  22.981   6.952  23.804 -0.0653 -0.0814  0.1212
43181W        W51981   2.413   6.877  29.187 -0.1373  0.1204 -0.1016
43182W        W51982  22.559   7.614  21.453  0.0055  0.1857  0.0536
43183W        W51983  24.642   6.984  28.176 -0.0289  0.0966  0.3558
43184W        W51984   2.302   5.446   5.349  0.0736 -0.1149  0.1801
43185W        W51985   8.369   1.637   3.479  0.0394  0.0834 -0.1902
43186W        W51986   9.215   1.183  23.031  0.2225 -0.2044 -0.1153
43187W        W51987   2.673   6.118  11.611 -0.0718 -0.0681 -0.2665
43188W        W51988  18.396   4.465   0.564 -0.0325 -0.1084 -0.3833
43189W        W51989  23.971   5.507   2.965 -0.0636  0.1075 -0.1819
43190W        W51990  15.279   7.067   2.345 -0.0917 -0.2393  0.0779
43191W        W51991   2.369   4.957  27.744  0.0629  0.1494  0.0908
43192W        W51992   5.224   1.781  28.480  0.0339 -0.1014 -0.1439
43193W        W51993  14.907   0.260  11.013  0.2380 -0.1251 -0.0554
43194W        W51994  12.745   6.616  11.224 -0.0856 -0.1474  0.0728
43195W        W51995   7.778   3.134   9.793 -0.1544 -0.0422  0.0630
43196W        W51996  16.323   6.640  22.356 -0.1652  0.1204 -0.2111
43197W        W51997  18.243   5.093  29.101  0.3187 -0.3770 -0.2009
43198W        W51998   9.561   4.179  30.990  0.0272 -0.1526 -0.0194
43199W        W51999   3.743   3.070   3.301  0.0091  0.2246  0.0791
43200W        W52000  23.210   4.360   2.703 -0.0659 -0.0158 -0.0706
43201W        W52001  25.010   1.910  23.847  0.1324  0.0201 -0.3020
43202W        W52002  18.111   5.403  32.488 -0.1684  0.0105 -0.2195
43203W        W52003  20.591   7.675  30.114 -0.2016  0.0580  0.5180
43204W        W52004  18.697   3.296  18.194  0.0415 -0.1298 -0.0376
43205W        W52005  21.796   3.668   0.641 -0.1871 -0.2796 -0.0571
43206W        W52006  20.773   0.330   3.850  0.0921  0.0057  0.0107
43207W        W52007   5.137   0.573  26.150 -0.1677 -0.0266  0.0950
43208W        W52008   3.853   2.869   7.418  0.1344 -0.0596  0.1777
43209W        W52009   7.795   7.424  27.542 -0.0730 -0.2530  0.1841
43210W        W52010  12.389   6.012  15.764  0.0483 -0.0263 -0.3155
43211W        W52011   5.765   4.977  14.120 -0.0944  0.0673  0.0773
43212W        W52012  22.757   7.617   4.842  0.0021  0.0433 -0.1433
43213W        W52013  19.400   5.990   3.516 -0.2013  0.0931 -0.1696
43214W        W52014  24.528   7.793   8.073 -0.1375  0.1277 -0.1276
43215W        W52015  17.058   6.341   9.483  0.0377 -0.0773 -0.0612
43216W        W52016  11.350   1.644  11.206  0.2847 -0.0633  0.1875
43217W        W52017   0.035   2.533   4.562 -0.0311 -0.1712  0.0244
43218W        W52018   1.389   1.296  30.269 -0.1339 -0.0572 -0.1952
43219W        W52019   3.160   0.927   8.356 -0.0675 -0.1068  0.4133
43220W        W52020  18.287   2.831   3.024  0.4144  0.0680 -0.0100
43221W        W52021   7.456   1.996  17.889 -0.1661 -0.1336 -0.1593
43222W        W52022  16.085   5.075   3.206  0.0753  0.1777 -0.3262
43223W        W52023  13.591   5.197  26.049  0.0433  0.1260 -0.0438
43224W        W52024   9.789   5.718  25.088 -0.1125 -0.1491 -0.2097
43225W        W52025  24.603   3.911   3.378 -0.1772  0.2051 -0.1233
43226W        W52026   2.276   0.011  19.275 -0.1004 -0.0477 -0.0377
43227W        W52027  13.085   2.534   8.598 -0.0672 -0.1234 -0.0165
43228W        W52028  21.051   7.135   9.458  0.1151  0.2747 -0.0640
43229W        W52029  17.650   5.179  18.905 -0.1999 -0.0054  0.0782
43230W        W52030  22.095   1.945   6.256  0.1669  0.1318 -0.2390
43231W        W52031   8.530   2.383  22.380  0.0019 -0.1381  0.0797
43232W        W52032  15.573   4.339   3.802  0.3073 -0.0897  0.0900
43233W        W52033  12.195   2.116  32.146  0.2101 -0.3323  0.2005
43234W        W52034   0.424   4.117   4.904  0.1241  0.3712  0.0753
43235W        W52035   1.911   0.889   7.965  0.1122  0.0637 -0.0819
43236W        W52036  21.711   7.604   6.278 -0.1173 -0.1679 -0.1516
43237W        W52037  19.595   4.869  15.038 -0.0170 -0.1163 -0.1587
43238W        W52038  14.662   3.827   1.592 -0.5037  0.2711 -0.2306
43239W        W52039  15.565   7.127  28.705  0.1757  0.0865 -0.2440
43240W        W52040   1.790   7.814   9.729 -0.0263 -0.0443 -0.3441
43241W        W52041   0.132   1.440   1.888 -0.3400  0.2057  0.2102
43242W        W52042   9.784   7.821  28.812 -0.1002 -0.0440  0.1779
43243W        W52043   4.542   1.084  29.426  0.0912 -0.4433 -0.1372
43244W        W52044   4.387   3.849   4.419 -0.0224 -0.0203  0.0143
43245W        W52045  15.110   7.820   1.786  0.0457 -0.0065 -0.0353
43246W        W52046   6.077   3.248  14.773 -0.2917 -0.1115  0.1769
43247W        W52047   4.729   4.670  22.636  0.1041 -0.1831  0.2161
43248W        W52048   1.665   5.324  31.881 -0.2086 -0.1540 -0.1635
43249W        W52049   8.474   7.609   1.627 -0.3092 -0.1544  0.4195
43250W        W52050   7.476   2.751   8.338 -0.3125  0.0921  0.2108
43251W        W52051  10.685   3.988   5.204 -0.1097  0.0284  0.1007
43252W        W52052  16.173   5.353  18.814 -0.0224  0.1678 -0.0183
43253W        W52053  17.592   6.994   9.076 -0.1182 -0.1762 -0.2127
43254W        W52054  13.412   4.355   0.492  0.0909 -0.1909 -0.2076
43255W        W52055   3.384   4.054   6.206  0.1892 -0.0712 -0.2064
43256W        W52056  21.180   5.372  17.733 -0.4367  0.0900 -0.1330
43257W        W52057  21.150   3.677  20.731 -0.0255 -0.0234 -0.0162
43258W        W52058   1.465   1.840  20.478  0.4711  0.0954 -0.0662
43259W        W52059   0.816   2.459  10.936 -0.0656 -0.2805  0.0116
43260W        W52060  11.178   2.794  16.593  0.0563  0.1454  0.3305
43261W        W52061   3.232   5.150   6.188  0.2437  0.2395  0.0735
43262W        W52062   8.886   6.687  11.429 -0.0535 -0.1274 -0.0917
43263W        W52063   6.725   6.341   8.300  0.0443 -0.0140 -0.0231
43264W        W52064   2.682   1.785   2.323 -0.0102 -0.2450  0.0519
43265W        W52065   5.974   3.312   9.738  0.2562 -0.2230 -0.0003
43266W        W52066   7.926   6.942   0.653  0.1360  0.1422 -0.0572
43267W        W52067   1.899   7.406  32.218 -0.2806 -0.2176  0.1941
43268W        W52068  15.308   1.154  32.553 -0.3805 -0.0109 -0.1328
43269W        W52069   2.164   1.947  31.006  0.1310 -0.0535  0.0212
43270W        W52070   5.574   0.765  16.914  0.1879 -0.0863 -0.2308
43271W        W52071   5.285   1.166   4.726  0.0200  0.3423 -0.1812
43272W        W52072  21.463   5.405  27.923  0.1473  0.1348  0.1004
43273W        W52073   1.997   1.725  22.780 -0.2080  0.0397  0.3254
43274W        W52074  22.825   2.481  23.486  0.0855  0.0271 -0.1123
43275W        W52075   2.433   7.105   8.058  0.1531 -0.0252  0.0221
43276W        W52076   4.572   7.537  11.116  0.1610  0.2685  0.2204
43277W        W52077   3.957   6.822  24.033 -0.1203 -0.1838 -0.0036
43278W        W52078  13.888   0.759  21.199  0.1747 -0.1655 -0.0866
43279W        W52079   4.614   1.790  31.066 -0.0588 -0.1888 -0.1016
43280W        W52080   5.846   3.703   7.051  0.0398  0.2032 -0.1804
43281W        W52081  24.717   2.774  23.443 -0.0623 -0.0635 -0.1393
43282W        W52082   9.578   4.009  29.902 -0.0219 -0.0529 -0.0322
43283W        W52083   4.705   6.361  22.343  0.2103 -0.1689 -0.2822
43284W        W52084   1.250   6.264  24.596 -0.1492 -0.0780  0.0289
43285W        W52085  11.950   2.101  31.648  0.3125  0.1439  0.1050
43286W        W52086   1.810   0.632  27.633  0.3245 -0.2800  0.0521
43287W        W52087  10.052   0.006   4.797 -0.3792  0.0358 -0.0944
43288W        W52088  18.992   4.927   8.680  0.1603  0.0612  0.1754
43289W        W52089  22.163   2.051   3.555  0.2585 -0.2735  0.2648
43290W        W52090   2.576   7.073   2.191  0.0293  0.0249 -0.0977
43291W        W52091   6.258   1.099  32.365  0.0970 -0.0771 -0.2842
43292W        W52092  10.798   0.555   7.484  0.3227  0.1497 -0.0383
43293W        W52093  20.140   4.402   9.101  0.1145 -0.0502 -0.0721
43294W        W52094  12.966   6.385  22.059 -0.3765 -0.0013 -0.0141
43295W        W52095  20.669   7.182  22.506  0.0746 -0.1143  0.2593
43296W        W52096   5.687   6.620  29.712  0.1595 -0.0973 -0.1281
43297W        W52097  10.014   0.018   4.187  0.1074  0.3083  0.1094
43298W        W52098   7.796   5.240   3.734  0.2327  0.0419 -0.2158
43299W        W52099  14.324   3.643  10.111 -0.0863  0.0733  0.3217
43300W        W52100   6.703   1.782  30.859 -0.3772  0.0661 -0.1646
43301W        W52101  10.466   0.056   3.100  0.1519 -0.0938 -0.2338
43302W        W52102  24.740   6.369  16.627  0.4035  0.1203  0.1672
43303W        W52103   9.533   6.355  24.249 -0.0051 -0.3855  0.2584
43304W        W52104   0.089   1.913  16.589 -0.0813 -0.2036  0.0723
43305W        W52105   5.769   7.232   1.766 -0.2047  0.1118 -0.0467
43306W        W52106   6.336   7.442  26.460 -0.2727 -0.1971  0.3305
43307W        W52107  24.777   2.139   3.669  0.0911  0.1682  0.0136
43308W        W52108   7.354   0.344  30.227  0.0387 -0.0399 -0.0650
43309W        W52109  17.376   5.181   3.478 -0.0913 -0.4646  0.1835
43310W        W52110   5.692   6.799  12.102 -0.2993  0.1697 -0.0382
43311W        W52111  15.127   3.653  28.174  0.1044  0.2840 -0.0013
43312W        W52112   6.211   4.446  32.017  0.0394  0.1600 -0.1410
43313W        W52113   8.920   0.229  10.704  0.0069 -0.0966  0.0665
43314W        W52114  24.538   3.079  29.695  0.1145  0.1705 -0.1202
43315W        W52115  24.304   4.452  16.546 -0.2808  0.1719 -0.0108
43316W        W52116  10.928   7.526  26.074 -0.1385 -0.3424  0.1604
43317W        W52117   1.910   4.845  23.284 -0.0364  0.1667 -0.3296
43318W        W52118  12.902   5.547   1.203 -0.2450 -0.0992  0.0111
43319W        W52119  23.226   4.482   5.696  0.2050  0.0550  0.2144
43320W        W52120  24.143   3.531  10.402 -0.0047  0.0025 -0.0877
43321W        W52121   8.735   4.506  28.715 -0.2226 -0.1711 -0.0529
43322W        W52122  12.748   6.655  10.288  0.1321  0.1432 -0.1889
43323W        W52123   2.663   0.763   5.185 -0.2568  0.1230 -0.2414
43324W        W52124   8.043   2.424  11.568 -0.4053  0.3909  0.0070
43325W        W52125   6.934   5.660  10.600  0.0601  0.2038 -0.1489
43326W        W52126  12.659   6.116  21.781  0.1518 -0.2645 -0.1499
43327W        W52127   2.728   7.101   7.120  0.1497  0.3191 -0.1522
43328W        W52128  22.182   1.328   7.971 -0.1257  0.4219 -0.3871
43329W        W52129   2.338   3.883   1.528  0.0205  0.0405  0.0187
43330W        W52130  11.483   4.547  10.440  0.1486 -0.2417  0.0089
43331W        W52131  15.139   4.419  27.830  0.2255  0.0088 -0.1750
43332W        W52132   9.799   6.061  17.555  0.2377  0.0285 -0.2617
43333W        W52133  21.750   7.411  31.243  0.2522 -0.0239  0.1447
43334W        W52134   1.836   3.794   1.359 -0.1304 -0.1266  0.1318
43335W        W52135   0.038   5.585   5.011  0.2885 -0.0326 -0.0434
43336W        W52136   7.427   7.394  17.302 -0.0801  0.2782  0.1801
43337W        W52137  12.480   3.035   8.405  0.2673  0.1112  0.1137
43338W        W52138   2.193   1.856   8.848  0.0085  0.2507 -0.1422
43339W        W52139  13.449   5.839  30.409 -0.3214  0.2835 -0.0610
43340W        W52140   3.513   2.408   7.445 -0.0634 -0.1344 -0.1477
43341W        W52141   6.781   6.235  25.305 -0.0890 -0.0885 -0.2649
43342W        W52142  21.521   5.072   0.317 -0.2141  0.1304  0.0224
43343W        W52143  18.943   7.241  27.853 -0.0747  0.0917  0.2414
43344W        W52144  24.203   7.121   7.450  0.0761 -0.0567 -0.2677
43345W        W52145  21.008   7.352  24.747 -0.0412  0.1811  0.3489
43346W        W52146   4.139   0.761  12.582  0.1177  0.0493 -0.0455
43347W        W52147  21.843   6.638  25.574  0.0849  0.1919 -0.0668
43348W        W52148  14.927   1.970  22.333  0.0621 -0.1290 -0.0778
43349W        W52149   8.747   6.791  31.123  0.0322  0.0949  0.2594
43350W        W52150  12.623   7.462  26.650  0.0009  0.3265 -0.4877
43351W        W52151  15.774   0.365  22.877 -0.0656  0.2571  0.0453
43352W        W52152   2.490   0.456  24.121  0.2102 -0.1140  0.0535
43353W        W52153   6.682   5.840  11.207 -0.0427  0.0348 -0.0471
43354W        W52154  18.178   5.201  15.925 -0.2818 -0.3289 -0.0834
43355W        W52155  17.292   7.092  21.834  0.3560  0.1709 -0.0133
43356W        W52156  24.874   0.020   7.617 -0.1039  0.2816 -0.0480
43357W        W52157  20.978   4.705  14.773 -0.1474  0.0624 -0.3516
43358W        W52158  20.865   2.031  29.185 -0.1028  0.2059  0.0468
43359W        W52159  22.292   5.458  28.856  0.1412  0.0643  0.1059
43360W        W52160   8.296   1.389  30.661  0.0648 -0.1882 -0.0883
43361W        W52161   5.514   1.320  13.761 -0.3155 -0.1141 -0.1782
43362W        W52162   9.338   7.460  31.333  0.0060 -0.1080 -0.0609
43363W        W52163  20.436   2.149  24.992  0.1354 -0.0492 -0.0781
43364W        W52164  20.301   3.409   7.770  0.0433  0.4545 -0.1726
43365W        W52165  21.836   7.133  16.064  0.2412 -0.1202  0.0671
43366W        W52166  12.575   6.225  23.551  0.0517 -0.1369 -0.0868
43367W        W52167   2.820   5.154   5.284  0.2524  0.0572  0.3008
43368W        W52168   5.772   1.378  28.472  0.3038  0.3150  0.1210
43369W        W52169   9.672   7.690  23.351 -0.1635 -0.0061 -0.0337
43370W        W52170  16.861   2.863  17.294  0.0536 -0.0736  0.0656
43371W        W52171   5.767   6.456  25.162 -0.0592 -0.0130  0.2044
43372W        W52172   1.311   0.011   1.927  0.0408 -0.0600  0.2765
43373W        W52173  10.094   7.125   4.157  0.0683 -0.3853 -0.2130
43374W        W52174  14.244   4.797  27.628  0.1191 -0.1934  0.0702
43375W        W52175   6.631   0.176  32.324 -0.1144  0.0354 -0.0013
43376W        W52176  15.238   5.572  12.940  0.0402 -0.0285  0.1207
43377W        W52177   6.862   3.210   5.377 -0.0955  0.0210 -0.2509
43378W        W52178  18.923   0.854  16.590  0.1488  0.3458 -0.2646
43379W        W52179   8.917   0.495   8.759 -0.0199 -0.0917 -0.1731
43380W        W52180  18.946   1.336  31.450  0.0143 -0.0688 -0.1831
43381W        W52181  21.196   2.315  16.706  0.1759  0.0698 -0.0178
43382W        W52182  14.403   5.300  26.707  0.2061 -0.1474  0.0272
43383W        W52183   1.302   6.706  26.559 -0.3972  0.0959 -0.0681
43384W        W52184  11.560   1.247  24.499 -0.0301 -0.1348 -0.3219
43385W        W52185  22.410   7.441  18.698 -0.0804  0.1057  0.0775
43386W        W52186   7.109   0.789   1.923 -0.0259 -0.1197  0.3929
43387W        W52187   9.387   1.207  30.691  0.0058 -0.0311  0.3056
43388W        W52188  15.175   1.514  23.260 -0.1451  0.1222 -0.0682
43389W        W52189  11.982   3.680  32.472 -0.1021  0.1379 -0.1137
43390W        W52190  24.933   1.762  19.263 -0.2334  0.1296 -0.2712
43391W        W52191  13.350   2.348   9.088  0.0799 -0.0598  0.2009
43392W        W52192   3.951   4.754   3.326 -0.0772 -0.0803 -0.1538
43393W        W52193   9.961   4.459  10.195  0.0897 -0.0154  0.2356
43394W        W52194   2.263   7.564  11.657 -0.1104  0.0325 -0.1999
43395W        W52195   9.998   6.633   7.475  0.0282 -0.0683 -0.1881
43396W        W52196   7.745   6.934   2.605 -0.0055  0.0318 -0.3938
43397W        W52197  24.965   0.596   1.089 -0.3874  0.1779  0.3326
43398W        W52198  22.207   6.103  30.801 -0.0551 -0.2929 -0.1285
43399W        W52199   2.792   0.831  29.880 -0.0611  0.0700  0.1012
43400W        W52200   9.432   6.575  30.913 -0.0151 -0.0821 -0.2315
43401W        W52201   7.212   0.375  27.687 -0.2842  0.0861 -0.1673
43402W        W52202  24.719   2.063  26.378  0.2530  0.1366  0.0772
43403W        W52203   4.359   0.129  32.651  0.0584 -0.1200  0.2348
43404W        W52204   7.615   1.140  23.742 -0.0210  0.0924 -0.0747
43405W        W52205  17.800   6.728   5.578 -0.1575  0.0121 -0.0666
43406W        W52206   1.975   4.079  27.976 -0.0914  0.1455 -0.2155
43407W        W52207  21.970   4.038  19.365 -0.1002  0.0658  0.2705
43408W        W52208  13.902   3.918  28.030  0.0251  0.1071  0.0229
43409W        W52209  20.786   0.802  31.179 -0.2652 -0.1490  0.1489
43410W        W52210  21.519   7.716  15.401 -0.0922 -0.1173  0.1251
43411W        W52211  21.579   2.226  14.888  0.0746 -0.0060  0.0892
43412W        W52212   4.288   2.954   6.677 -0.0176 -0.1064 -0.0003
43413W        W52213  18.957   3.095  25.511  0.0189  0.0872  0.1771
43414W        W52214  14.461   2.210  22.528 -0.2046 -0.0632  0.1672
43415W        W52215   8.049   0.342   4.248 -0.0798 -0.2924  0.1533
43416W        W52216  17.238   0.236  27.714  0.3371  0.0758 -0.1129
43417W        W52217   5.700   7.156   9.910 -0.2558 -0.2130 -0.2676
43418W        W52218   2.508   2.300   4.051 -0.0223 -0.1757 -0.0991
43419W        W52219  20.801   1.696  18.828  0.1435  0.0328  0.0154
43420W        W52220  17.147   2.112  32.219 -0.4025  0.1791  0.3777
43421W        W52221   8.958   4.799   1.717 -0.0530  0.0314 -0.0905
43422W        W52222  20.174   3.910   7.857  0.0324  0.2667  0.0656
43423W        W52223   5.071   4.937  16.078  0.0711  0.2374 -0.1222
43424W        W52224   1.538   1.940  23.503  0.1388  0.0575 -0.1853
43425W        W52225   6.009   5.943  27.110  0.3549  0.0273 -0.1795
43426W        W52226   1.879   3.375   2.193 -0.0292  0.1084 -0.0716
43427W        W52227  11.371   3.281   3.535  0.0386 -0.2632 -0.0489
43428W        W52228  11.981   5.911   3.217  0.6489 -0.2461  0.4075
43429W        W52229  19.843   6.069  15.377 -0.0599 -0.1992 -0.2052
43430W        W52230  16.175   2.837  29.340  0.0899  0.0400 -0.2587
43431W        W52231  13.882   3.136  13.449 -0.0130 -0.0351 -0.0359
43432W        W52232   8.343   2.337  15.205 -0.2060  0.0588  0.2215
43433W        W52233   5.658   4.223  24.754  0.1832  0.0894 -0.0285
43434W        W52234  15.535   5.034  23.114  0.2586  0.0029 -0.2864
43435W        W52235  11.224   0.073   0.452  0.1797  0.0282  0.1675
43436W        W52236   8.361   2.146   9.109 -0.0545  0.1783  0.2729
43437W        W52237  13.747   4.077  23.998 -0.1106  0.0793  0.1250
43438W        W52238   2.259   2.158  19.179  0.2934 -0.2556 -0.1975
43439W        W52239   6.330   5.770   2.046  0.3688 -0.0495  0.2592
43440W        W52240   5.120   6.745  32.253 -0.2781  0.1985  0.0374
43441W        W52241   7.921   3.661   9.525  0.0184  0.2219  0.0645
43442W        W52242   0.953   7.544  23.591  0.0056 -0.0807  0.1157
43443W        W52243   9.395   2.194  26.619 -0.1645 -0.0155 -0.0213
43444W        W52244   5.787   7.319  14.357  0.0964  0.2890 -0.1029
43445W        W52245   0.575   5.796  26.830  0.1168 -0.0789  0.2308
43446W        W52246   5.714   2.632  28.693  0.0378 -0.2689 -0.2365
43447W        W52247   1.030   0.990  29.027  0.0901  0.2050  0.0604
43448W        W52248  20.688   6.616   6.547  0.1423 -0.1245 -0.1076
43449W        W52249  10.600   7.713  12.394 -0.1917 -0.0716  0.0935
43450W        W52250   5.297   3.159   4.027 -0.3172 -0.0604 -0.1853
43451W        W52251   3.901   6.235   4.370  0.2156 -0.0183  0.3608
43452W        W52252  18.566   1.141  19.410 -0.0712 -0.0809 -0.3509
43453W        W52253   7.385   1.032  17.415 -0.0459  0.1996  0.0171
43454W        W52254   3.295   7.524   6.689 -0.1097 -0.0588 -0.2148
43455W        W52255  17.366   3.528   5.436 -0.2836  0.3266  0.3479
43456W        W52256  10.335   1.223  14.666  0.4704  0.0066  0.0345
43457W        W52257  12.257   3.479   4.001 -0.3543  0.1942 -0.0803
43458W        W52258  22.609   3.554  21.660  0.0484  0.2037  0.0862
43459W        W52259  17.640   0.105  19.459 -0.0671 -0.1607  0.2242
43460W        W52260   0.814   4.493  25.368  0.1289  0.0894  0.1592
43461W        W52261   7.452   7.381  14.154 -0.0663  0.0661  0.2486
43462W        W52262  12.012   0.040  15.953 -0.2319 -0.2205 -0.3544
43463W        W52263   3.060   7.789  22.562 -0.1827 -0.1977  0.4011
43464W        W52264   5.322   0.133   7.972 -0.2745  0.1569 -0.3488
43465W        W52265  12.902   5.641   0.692  0.0104 -0.3961  0.2548
43466W        W52266  10.224   1.877   0.245  0.1426  0.0646  0.1048
43467W        W52267  17.311   3.736  31.548 -0.0072 -0.2677 -0.0223
43468W        W52268  23.031   2.705  26.542  0.2316 -0.3539 -0.0023
43469W        W52269   9.520   5.230   6.396  0.1028 -0.1260 -0.1341
43470W        W52270  15.169   7.380  13.258 -0.0875 -0.4788 -0.1086
43471W        W52271  20.251   0.917   9.476 -0.0554 -0.1100 -0.2395
43472W        W52272  23.638   5.109  25.850 -0.1671 -0.0999  0.1594
43473W        W52273   2.208   0.111   7.498  0.0636  0.0741 -0.0513
43474W        W52274  19.858   2.564  14.048  0.0339  0.1530  0.0294
43475W        W52275   2.034   6.719  23.654 -0.2101  0.3218  0.3085
43476W        W52276  17.746   6.969  11.327 -0.0874 -0.0302  0.6577
43477W        W52277  17.390   1.071  28.927 -0.1196  0.1677 -0.1416
43478W        W52278   9.954   0.339  32.213 -0.1932 -0.1769 -0.0079
43479W        W52279   8.073   6.548  30.964 -0.1959 -0.1089 -0.1072
43480W        W52280   9.708   4.442  27.069  0.1452 -0.1083  0.2426
43481W        W52281  23.552   6.425  32.062 -0.1263 -0.1801  0.0229
43482W        W52282   8.709   7.517  15.299 -0.4149 -0.2658 -0.2085
43483W        W52283  12.917   3.541  28.535 -0.1642  0.0302 -0.2154
43484W        W52284  13.350   7.652  32.387  0.1251 -0.0458 -0.1701
43485W        W52285   4.731   7.340  28.801 -0.2016  0.2019  0.1671
43486W        W52286  24.173   5.551  32.146 -0.1517  0.3691  0.0051
43487W        W52287   9.423   2.851  23.364  0.0752  0.1657  0.2947
43488W        W52288  12.049   4.727   7.026 -0.0454  0.2766  0.1258
43489W        W52289  18.765   5.475   3.836  0.3909  0.1241  0.3447
43490W        W52290  17.086   6.798   4.827  0.0102 -0.2641 -0.0810
43491W        W52291   9.297   2.592  23.807  0.2971  0.2726  0.1648
43492W        W52292  19.552   1.850   2.618 -0.1048  0.3342 -0.0595
43493W        W52293  10.192   7.501   3.350  0.2393 -0.0722  0.2113
43494W        W52294   1.075   7.793  32.667 -0.0319 -0.0397  0.1776
43495W        W52295  25.017   1.070   9.835  0.2221  0.0733 -0.4825
43496W        W52296  18.153   5.100   8.480 -0.3027 -0.0034  0.0921
43497W        W52297   0.809   3.354  27.100  0.0748  0.1761 -0.1863
43498W        W52298  21.529   5.399  19.309 -0.2017 -0.2315  0.2678
43499W        W52299  23.414   3.812  22.235  0.2399 -0.1102  0.0113
43500W        W52300  23.737   1.885  22.381  0.1742  0.2290 -0.0328
43501W        W52301   0.965   1.931  17.740 -0.2074 -0.2531  0.2336
43502W        W52302   4.125   5.143  30.212  0.0159 -0.0828  0.0310
43503W        W52303  14.068   2.738  30.979  0.1158 -0.1724  0.0212
43504W        W52304  20.382   1.415  27.508  0.2687  0.0188  0.1710
43505W        W52305   5.000   1.971  12.579  0.3579 -0.1145 -0.3985
43506W        W52306  13.167   3.310   5.519 -0.0463 -0.2507  0.1007
43507W        W52307  11.986   0.895  14.184 -0.0555 -0.0831  0.0101
43508W        W52308   1.075   1.321  28.608 -0.0315  0.3926  0.0363
43509W        W52309   5.138   1.736  22.376  0.1236 -0.1011 -0.1348
43510W        W52310   4.821   2.734  14.445 -0.4801  0.2929  0.2481
43511W        W52311  21.139   0.674  26.497  0.5552  0.1144 -0.1637
43512W        W52312   9.551   0.879   7.908  0.1685 -0.2912 -0.0161
43513W        W52313   3.072   5.328  29.744  0.1637  0.2599 -0.2171
43514W        W52314   8.213   5.396   8.770  0.1312 -0.0679  0.1415
43515W        W52315   4.999   3.641  27.466  0.1088  0.2944  0.3660
43516W        W52316  10.680   5.894  27.764 -0.0168  0.5669  0.1337
43517W        W52317  23.894   3.363  21.898 -0.0641 -0.0247 -0.3653
43518W        W52318  10.401   3.790  26.967  0.0129  0.0408  0.0853
43519W        W52319  19.209   2.099  29.172 -0.0727  0.3596  0.0560
43520W        W52320   6.105   1.555  15.991  0.0775 -0.2325 -0.1192
43521W        W52321  11.231   3.396  28.311  0.0650  0.3437  0.0660
43522W        W52322   5.850   2.158  12.465  0.0683 -0.0700 -0.1733
43523W        W52323  22.541   2.513  23.890  0.5407 -0.1865  0.0179
43524W        W52324  15.812   3.984  28.065  0.2617  0.1245  0.0530
43525W        W52325   2.388   7.586   3.995  0.2253 -0.2986 -0.0596
43526W        W52326   0.746   6.675   7.222 -0.0050 -0.0771  0.0519
43527W        W52327  13.956   3.149   0.624  0.0191  0.0525 -0.0423
43528W        W52328  23.439   6.094  17.156 -0.0664  0.5417  0.0065
43529W        W52329   1.858   1.115  19.808 -0.2170 -0.3289  0.0171
43530W        W52330   9.441   5.133   7.826  0.2086  0.0291  0.1607
43531W        W52331  16.288   7.303   3.047  0.1126  0.2949  0.1850
43532W        W52332   9.298   0.384  17.921 -0.0314 -0.0749  0.2697
43533W        W52333  10.885   5.176  31.249  0.0361 -0.3373 -0.1679
43534W        W52334  12.312   6.809   7.512  0.2075 -0.0616 -0.0381
43535W        W52335  11.219   3.066   2.064  0.0171 -0.4411  0.1653
43536W        W52336  24.547   1.271   4.716  0.2746  0.0669  0.0882
43537W        W52337   0.870   4.317  22.367  0.0108 -0.0736  0.2004
43538W        W52338  21.748   1.136   4.574 -0.1585 -0.0679 -0.0258
43539W        W52339  24.928   4.757  29.914  0.2011 -0.2662  0.1112
43540W        W52340   5.554   7.349  27.120  0.1030  0.0666 -0.1371
43541W        W52341  21.388   7.010   4.894 -0.2152 -0.0983 -0.3618
43542W        W52342  17.192   5.251  26.151 -0.1402 -0.0681  0.0864
43543W        W52343   6.089   2.534  26.096  0.1853 -0.0337  0.1908
43544W        W52344  22.478   2.010  20.750 -0.5501 -0.0820 -0.0442
43545W        W52345  14.031   3.524  14.126 -0.1617 -0.4335 -0.2600
43546W        W52346  14.938   0.280   0.824  0.2071 -0.0145 -0.1369
43547W        W52347  12.201   2.026   5.603 -0.1317  0.0410  0.1784
43548W        W52348   3.613   6.278  23.688  0.0132  0.1908 -0.2835
43549W        W52349   7.999   4.386  17.350 -0.0968  0.1946  0.0059
43550W        W52350  20.039   5.863  32.439  0.0243  0.0863 -0.0850
43551W        W52351  24.105   5.371   1.786 -0.1982  0.0817  0.0079
43552W        W52352  19.237   1.466  23.585 -0.1257 -0.0949 -0.0908
43553W        W52353  16.374   4.493  23.227 -0.0451 -0.0072  0.0247
43554W        W52354  21.148   5.587  29.676 -0.1582  0.0650 -0.4276
43555W        W52355  10.511   7.626   0.993 -0.0382  0.1902  0.0395
43556W        W52356   3.510   7.010  32.372  0.2069 -0.2771  0.2063
43557W        W52357   2.917   3.723   2.256 -0.2419 -0.1028  0.2295
43558W        W52358  24.580   3.212  28.076  0.2872  0.0176 -0.2790
43559W        W52359  14.252   4.051  11.542 -0.0601 -0.1526 -0.3783
43560W        W52360  24.056   7.479  15.917  0.0294  0.1632  0.0030
43561W        W52361  14.176   5.452  13.156 -0.0917  0.0858 -0.2174
43562W        W52362  19.260   7.609  28.280  0.1024 -0.0232  0.1956
43563W        W52363   6.622   2.797  16.734 -0.0324 -0.0111 -0.0071
43564W        W52364  14.969   7.221  29.104  0.1029 -0.1470  0.0399
43565W        W52365  22.793   5.136   0.564 -0.0548 -0.1776 -0.3278
43566W        W52366  13.959   0.241  27.776  0.0340  0.1170  0.1018
43567W        W52367  24.190   3.378  20.400  0.2200 -0.2356  0.0547
43568W        W52368   8.372   3.988   5.750  0.3324 -0.0498 -0.1659
43569W        W52369   5.685   4.939   6.266  0.0437  0.5195  0.0822
43570W        W52370  13.591   5.392  23.763 -0.1955  0.2157  0.0170
43571W        W52371   7.824   2.561  16.314 -0.0803  0.0906  0.1027
43572W        W52372  13.879   5.670  23.451  0.0238  0.0935 -0.0498
43573W        W52373   6.733   0.761  26.815  0.0032  0.1739 -0.1513
43574W        W52374   9.772   1.673  29.950  0.0705 -0.3054 -0.2207
43575W        W52375  23.985   7.082  26.922  0.2395 -0.1426  0.1298
43576W        W52376   9.393   4.937  28.433  0.1678  0.0308 -0.0304
43577W        W52377   9.253   4.649  16.816  0.1335 -0.2065  0.0746
43578W        W52378   3.480   2.374  24.906 -0.3632 -0.3002 -0.0150
43579W        W52379  11.257   0.598   7.235 -0.0274 -0.1127  0.2820
43580W        W52380   8.877   5.479  27.149  0.0491  0.1460  0.1614
43581W        W52381  12.923   3.129  22.856 -0.0708  0.1446 -0.0573
43582W        W52382   6.721   3.109   0.669 -0.2140  0.1641  0.1985
43583W        W52383  13.759   0.668   2.081 -0.0701 -0.1988 -0.0129
43584W        W52384   8.743   0.118   1.927 -0.1272  0.1156  0.1974
43585W        W52385   7.480   2.176   9.733 -0.0069  0.0064  0.1959
43586W        W52386  12.469   1.461  12.073 -0.0235 -0.1567 -0.0479
43587W        W52387  19.825   4.798  25.302 -0.4050 -0.1419 -0.0739
43588W        W52388   1.710   3.815  30.567  0.1961  0.0833  0.2535
43589W        W52389  11.371   6.098  22.078 -0.0119 -0.0869  0.1484
43590W        W52390   0.474   6.131   9.448 -0.3684 -0.2319 -0.1665
43591W        W52391   5.771   2.321  30.199  0.2846  0.1147 -0.0567
43592W        W52392  24.813   2.714  31.444 -0.5473 -0.0137 -0.1161
43593W        W52393  16.097   0.182  24.530 -0.1803  0.3721  0.0357
43594W        W52394   3.093   4.434   0.431  0.0972  0.0598 -0.3328
43595W        W52395  11.674   3.364   5.146 -0.0142 -0.0918  0.2261
43596W        W52396  11.403   3.619  30.271 -0.1278 -0.1035 -0.4074
43597W        W52397   5.587   4.513  11.536  0.3762 -0.0144  0.0077
43598W        W52398   7.781   4.904  28.490  0.2475 -0.1678 -0.1976
43599W        W52399   7.510   0.888   8.652  0.2621 -0.1717  0.3078
43600W        W52400  14.779   4.233  10.861  0.0012  0.0114 -0.1534
43601W        W52401  20.983   0.874   7.969 -0.0080  0.3017  0.0408
43602W        W52402  13.643   3.008  10.233  0.2965  0.1891  0.0554
43603W        W52403   0.985   3.501  27.543 -0.1976 -0.1252 -0.2724
43604W        W52404  14.184   2.135   6.726 -0.2020 -0.1697  0.0792
43605W        W52405   4.785   2.007   4.849  0.2549 -0.0512 -0.1075
43606W        W52406  13.947   3.850  28.937 -0.0721  0.2416  0.0162
43607W        W52407  16.618   0.890  21.449 -0.1701 -0.1275 -0.0098
43608W        W52408  17.980   3.290   6.013  0.1624 -0.0698  0.1535
43609W        W52409  19.878   6.875  21.611  0.0169 -0.2873 -0.3199
43610W        W52410  24.841   5.648  28.370  0.3894  0.0339 -0.0253
43611W        W52411  19.010   6.652  30.078 -0.0131 -0.1673  0.2884
43612W        W52412   4.009   2.849  21.986  0.0327 -0.1738 -0.2056
43613W        W52413  11.448   6.279  31.317  0.1587 -0.3682 -0.1465
43614W        W52414  12.375   1.156   1.933 -0.0950  0.0908 -0.1116
43615W        W52415   4.143   4.824   3.978  0.0749  0.0332  0.3474
43616W        W52416   9.262   5.923   4.674 -0.0601  0.0649  0.1683
43617W        W52417  12.032   6.782  24.865  0.1875  0.1321  0.2414
43618W        W52418  10.003   0.081   1.269  0.2388 -0.3216  0.0814
43619W        W52419  10.208   2.646  32.234  0.0003 -0.0444  0.1109
43620W        W52420  23.569   0.260  16.142  0.0795 -0.0162 -0.3409
43621W        W52421  23.793   2.379  30.705  0.2870 -0.1411  0.1605
43622W        W52422  22.573   6.303   8.813  0.0020 -0.2010  0.1484
43623W        W52423  17.183   0.817   8.360 -0.3425  0.0986  0.2465
43624W        W52424   2.747   7.202  30.107 -0.0769  0.2005  0.1117
43625W        W52425  13.411   0.862   7.912  0.0085 -0.2083  0.2738
43626W        W52426   3.319   0.397  29.497 -0.1930 -0.0645 -0.2782
43627W        W52427  22.152   6.869  19.082 -0.2648 -0.0328  0.1862
43628W        W52428   5.556   0.441   5.445  0.1646  0.3011  0.1382
43629W        W52429  10.667   3.626  15.735 -0.0496 -0.1608 -0.1503
43630W        W52430  16.322   3.130  31.602 -0.0130  0.0579  0.0590
43631W        W52431  12.511   1.192   5.634 -0.1589 -0.1723 -0.0000
43632W        W52432  14.529   3.309  23.077 -0.2174 -0.1346 -0.3687
43633W        W52433   8.178   4.244  32.270  0.0647 -0.0434 -0.2543
43634W        W52434  14.208   0.750   2.452 -0.4025  0.0800 -0.6266
43635W        W52435   4.829   0.732  10.305 -0.0821  0.2463  0.3118
43636W        W52436   0.639   3.030   9.756 -0.3460 -0.6254 -0.2131
43637W        W52437  14.263   2.523   0.051  0.0551  0.0841  0.2473
43638W        W52438   7.284   3.087  29.824 -0.0715 -0.0655 -0.1011
43639W        W52439   6.819   0.630  28.196  0.0289  0.5503  0.1505
43640W        W52440  15.716   3.834   3.778  0.0076 -0.3718  0.0224
43641W        W52441  20.824   4.510  28.075 -0.5114  0.2014 -0.0658
43642W        W52442   8.537   5.597  26.288  0.0296 -0.0587  0.1233
43643W        W52443   9.689   7.125  29.370  0.2934  0.0044  0.0356
43644W        W52444  12.602   2.295  28.935  0.1915 -0.0621  0.1502
43645W        W52445   6.099   5.236   9.020  0.2090 -0.1615  0.0507
43646W        W52446   5.219   0.482   2.444  0.2381  0.5018  0.3319
43647W        W52447   1.165   5.176   8.590  0.2036  0.3623  0.0960
43648W        W52448   3.075   6.007  11.923  0.3133 -0.1000 -0.1113
43649W        W52449  11.723   6.590  27.448  0.0390 -0.0745 -0.2360
43650W        W52450   4.354   1.148   0.018 -0.1911 -0.0661 -0.0882
43651W        W52451  10.084   5.737   8.667  0.1177 -0.1478  0.1159
43652W        W52452  20.983   4.667  16.531 -0.1199  0.3700  0.0264
43653W        W52453   9.999   3.653  22.385  0.2494 -0.2308 -0.0422
43654W        W52454   0.765   7.693  11.239  0.1013 -0.1315  0.2312
43655W        W52455   5.589   4.766  10.275 -0.1564  0.0990 -0.5215
43656W        W52456  16.381   0.625   6.878 -0.0175  0.2749 -0.1067
43657W        W52457   9.330   6.921  29.024 -0.2228  0.1743  0.1471
43658W        W52458  21.064   0.526  23.200 -0.0576 -0.3295  0.1945
43659W        W52459  11.012   1.230   4.106  0.0433  0.1821 -0.1497
43660W        W52460  24.677   3.209  23.663  0.1488 -0.1031  0.0450
43661W        W52461  12.563   6.441  29.202 -0.0353  0.0682  0.2170
43662W        W52462   1.355   3.411   0.022  0.2550  0.0464 -0.1043
43663W        W52463  18.950   5.975   3.767  0.2240  0.1243  0.0828
43664W        W52464  16.434   3.579  27.722 -0.3616  0.0856  0.1629
43665W        W52465  18.719   2.874   9.946  0.1384 -0.3409 -0.1028
43666W        W52466   2.698   7.360  21.276 -0.0718  0.3799 -0.0655
43667W        W52467  22.086   7.414  32.546  0.1653 -0.3360 -0.0119
43668W        W52468  11.814   7.382   0.022 -0.0465  0.2946 -0.0454
43669W        W52469   8.257   6.233   2.808  0.3350 -0.1508  0.0970
43670W        W52470   8.450   2.607  11.311  0.3204 -0.1033  0.1923
43671W        W52471   7.490   1.678  25.109 -0.2181 -0.2319  0.0633
43672W        W52472   0.109   7.651  27.811 -0.1451 -0.1993 -0.0406
43673W        W52473  15.795   0.698   0.588  0.1816 -0.1943 -0.1405
43674W        W52474  23.896   4.765   4.611  0.2107 -0.0541  0.1168
43675W        W52475  17.901   1.296  27.293 -0.1803 -0.0853 -0.0838
43676W        W52476   5.953   4.146   7.614  0.0147  0.1000  0.1556
43677W        W52477   8.893   7.097   2.197  0.2799 -0.0682 -0.2688
43678W        W52478   7.165   5.421   2.310 -0.2485 -0.0642 -0.1166
43679W        W52479  19.420   0.112   5.622  0.0911  0.0554 -0.2091
43680W        W52480  21.805   0.145   9.579 -0.3249  0.1879 -0.1282
43681W        W52481   8.430   6.292  23.740 -0.3724  0.2240 -0.0628
43682W        W52482  16.075   6.301  27.379  0.1477 -0.2282  0.0659
43683W        W52483   1.038   1.574  26.085  0.0369  0.2509 -0.1520
43684W        W52484  10.730   3.939   1.397  0.2636  0.0144 -0.2357
43685W        W52485  16.256   4.239  26.613  0.0925  0.0928  0.1023
43686W        W52486   4.685   1.520  22.587 -0.1891 -0.0085  0.0671
43687W        W52487  19.732   5.686  31.264 -0.1749 -0.1119 -0.4297
43688W        W52488   4.927   1.186  32.010  0.0842 -0.0512 -0.0007
43689W        W52489  18.243   6.484  21.165 -0.1737 -0.0615 -0.2055
43690W        W52490   8.122   6.737  24.758  0.1276 -0.0290 -0.3855
43691W        W52491  19.602   2.698   2.948  0.2102  0.0080  0.2749
43692W        W52492  14.416   7.402   6.208 -0.0468  0.2475 -0.0542
43693W        W52493  24.448   7.491  21.577 -0.1393  0.0811 -0.1862
43694W        W52494  15.172   1.789   6.900 -0.1701  0.3039 -0.0794
43695W        W52495  16.828   7.603  27.078  0.2089  0.2626  0.3026
43696W        W52496   7.225   3.923  13.762  0.1226 -0.1658  0.0064
43697W        W52497  21.810   0.187   6.558 -0.0129 -0.0508  0.0826
43698W        W52498  18.025   4.142  17.547  0.0318 -0.2375  0.1884
43699W        W52499   4.762   7.549   8.836 -0.5162 -0.1276 -0.0703
43700W        W52500   9.617   2.335   8.544 -0.1650  0.1660  0.2945
43701W        W52501   0.790   7.749  18.850 -0.2530 -0.3765 -0.1509
43702W        W52502  13.593   5.752   2.977  0.1994  0.1014  0.1231
43703W        W52503  16.492   1.505   9.733  0.0946  0.0291  0.1110
43704W        W52504  20.663   3.321  25.660 -0.0830 -0.1905  0.0130
43705W        W52505  11.970   2.612  31.250  0.1749 -0.2397 -0.0518
43706W        W52506  11.194   5.283  11.371  0.0869 -0.1709  0.1937
43707W        W52507  16.625   2.865   0.595  0.0037 -0.0995  0.0964
43708W        W52508  21.509   1.724   9.318 -0.0397  0.0329 -0.2692
43709W        W52509   7.740   3.652  31.744 -0.1224  0.1351 -0.1471
43710W        W52510  17.439   5.678  17.960  0.1645  0.1300  0.0702
43711W        W52511   0.040   2.211  24.824 -0.1358 -0.3270 -0.3479
43712W        W52512  12.067   3.968  14.719  0.4070  0.0311  0.0511
43713W        W52513  13.437   3.451   2.996 -0.1438 -0.0130 -0.3390
43714W        W52514   2.820   2.546  11.247  0.2069  0.1087 -0.2740
43715W        W52515  16.943   2.512  31.303  0.0654  0.2034 -0.1846
43716W        W52516  20.988   1.441  15.881 -0.1022  0.1330  0.1679
43717W        W52517   6.435   0.403  31.894 -0.3473  0.1303 -0.1465
43718W        W52518  19.066   4.587  20.970  0.0428 -0.4064 -0.2537
43719W        W52519   4.736   7.263  14.844 -0.1177 -0.0438 -0.1543
43720W        W52520  19.093   7.071  14.701  0.1107 -0.0810  0.0194
43721W        W52521  15.544   6.403  10.242  0.0710 -0.2214  0.1654
43722W        W52522  23.204   1.167  21.481  0.0855  0.0057 -0.0632
43723W        W52523  11.845   1.339  22.585 -0.0093  0.0152  0.0748
43724W        W52524  10.446   6.920   0.378 -0.0289 -0.0267  0.0252
43725W        W52525  15.017   7.378  12.448  0.1774 -0.2416  0.1850
43726W        W52526   5.178   3.447  21.806  0.2342  0.3380  0.1662
43727W        W52527   6.013   5.685  26.286 -0.0839 -0.0227  0.0273
43728W        W52528  20.851   5.790  17.521  0.1046  0.0223  0.2210
43729W        W52529  23.694   0.325  27.153 -0.0844  0.2306  0.3214
43730W        W52530  15.722   5.479   0.416  0.3636 -0.1498 -0.0788
43731W        W52531  12.235   7.674  32.572 -0.0777  0.1064 -0.0580
43732W        W52532   2.981   1.651   2.001 -0.0968 -0.0771 -0.1800
43733W        W52533  22.576   7.182  21.751  0.2066  0.1318  0.2596
43734W        W52534  14.015   5.366  28.641  0.1234 -0.3470 -0.1027
43735W        W52535   1.014   5.932   5.342  0.3691 -0.1523 -0.0040
43736W        W52536   7.995   1.226   1.620  0.0559 -0.0977 -0.0100
43737W        W52537  22.647   3.704  29.293  0.1274 -0.1747 -0.3059
43738W        W52538  20.336   5.548  20.943 -0.1312 -0.0604 -0.2088
43739W        W52539  22.911   3.616   4.831 -0.0926 -0.1579 -0.2304
43740W        W52540  24.312   7.354  23.963  0.0131  0.2562  0.0737
43741W        W52541   5.231   6.094   5.831 -0.0465 -0.3594 -0.0561
43742W        W52542  22.820   0.531   2.398  0.1063 -0.0385 -0.0886
43743W        W52543   4.774   7.791  13.484 -0.1408 -0.1271 -0.2298
43744W        W52544  17.486   2.621   8.579  0.2286 -0.2091  0.2400
43745W        W52545  10.936   1.848  31.454  0.0179 -0.1346 -0.0450
43746W        W52546  18.551   5.305  17.555 -0.0458 -0.0408 -0.0010
43747W        W52547   2.885   4.828   4.165 -0.1978 -0.1709 -0.0391
43748W        W52548   5.798   4.898  11.161  0.1487 -0.3735  0.2158
43749W        W52549   4.235   3.698  15.279  0.1253 -0.1217  0.0060
43750W        W52550   3.435   3.947  24.138 -0.1722  0.4924  0.0271
43751W        W52551  24.652   2.440  29.316  0.0657 -0.1541 -0.1529
43752W        W52552  21.744   6.262  28.817  0.0115 -0.0890  0.2377
43753W        W52553  14.810   4.562  11.225 -0.2045  0.0383 -0.3802
43754W        W52554   9.132   6.889  15.283  0.2621  0.2705  0.0244
43755W        W52555  19.900   7.207  24.576 -0.0828  0.0380 -0.2964
43756W        W52556   8.952   0.739   4.612 -0.2957 -0.3547  0.1216
43757W        W52557   3.280   3.816   1.789  0.0778  0.1870  0.1240
43758W        W52558  14.595   4.705   9.844  0.1637  0.3055 -0.2386
43759W        W52559  22.177   2.408   5.424  0.0509  0.0052  0.0332
43760W        W52560   5.240   7.151  28.054  0.0547 -0.0920  0.1970
43761W        W52561   5.113   1.302  30.081  0.1123 -0.0864 -0.1647
43762W        W52562   0.034   4.803   2.344 -0.0539  0.1148  0.1108
43763W        W52563   6.050   1.466  31.490 -0.1443  0.2878 -0.0482
43764W        W52564  21.639   4.703  18.289 -0.0283  0.0366 -0.1305
43765W        W52565  16.152   1.779  20.376  0.2752 -0.1127 -0.2348
43766W        W52566  22.624   6.489   4.154 -0.1524  0.0739 -0.1640
43767W        W52567  19.480   6.799  29.906  0.0974  0.1122 -0.3174
43768W        W52568   9.836   1.641  29.471 -0.2969 -0.1329 -0.0538
43769W        W52569  23.106   3.787  25.369  0.1621  0.1025  0.0008
43770W        W52570  16.102   2.333  25.079  0.1949  0.2458  0.1631
43771W        W52571  13.651   0.974  32.345 -0.0421 -0.0937  0.1188
43772W        W52572  12.214   1.070  29.231  0.0999 -0.1399  0.0232
43773W        W52573  21.464   7.521  26.800 -0.1167  0.2396 -0.1473
43774W        W52574  17.328   3.159  19.304 -0.1156  0.2555  0.0505
43775W        W52575   0.621   5.347   4.366  0.0140 -0.1396  0.1589
43776W        W52576  15.971   3.939   4.205  0.3274  0.0832  0.1846
43777W        W52577  17.389   5.096   8.221 -0.0080  0.0145  0.4015
43778W        W52578   7.657   4.112  30.551 -0.0793 -0.0448 -0.1817
43779W        W52579   9.194   5.879   1.108 -0.3150  0.1203 -0.1382
43780W        W52580  19.015   4.722  32.129 -0.0500 -0.0961  0.3734
43781W        W52581  23.210   7.084  32.134 -0.1580  0.1548  0.1336
43782W        W52582   8.388   2.838   9.307 -0.0528  0.0514 -0.2296
43783W        W52583   2.490   5.066  31.285  0.0895 -0.2578  0.0271
43784W        W52584  10.942   1.974   6.068 -0.1407  0.1116  0.1697
43785W        W52585  19.531   6.367  19.880  0.3776 -0.0228  0.0382
43786W        W52586   6.142   7.692   5.436  0.1792 -0.0340 -0.0466
43787W        W52587  17.622   1.507  15.499  0.0590 -0.0221  0.0849
43788W        W52588  14.378   5.170  22.473  0.0838 -0.1827 -0.0037
43789W        W52589   7.326   3.203   1.221  0.2744 -0.2124  0.3040
43790W        W52590  18.836   7.001   1.866  0.1811  0.0698 -0.2542
43791W        W52591  15.183   3.082  27.890 -0.1788 -0.3997 -0.0385
43792W        W52592  10.790   1.739   2.844  0.1173 -0.0696  0.2067
43793W        W52593  21.729   1.258  18.185 -0.1648  0.4794 -0.1441
43794W        W52594  19.887   5.250   7.676  0.1698  0.0867 -0.0025
43795W        W52595  12.943   4.907  25.178 -0.1921 -0.3410  0.1881
43796W        W52596  19.589   2.017  16.271 -0.0006 -0.0772  0.0573
43797W        W52597  22.998   1.789  28.171  0.3328  0.1409 -0.5074
43798W        W52598  13.446   0.503   9.168  0.0165  0.2614 -0.1181
43799W        W52599  17.582   1.429  22.197 -0.1727  0.4502 -0.3118
43800W        W52600   5.957   3.453  13.423 -0.2830  0.1749  0.2289
43801W        W52601   3.406   2.661  10.673 -0.1730 -0.3838 -0.0475
43802W        W52602   1.405   0.072  23.194  0.0248 -0.0627  0.1256
43803W        W52603   6.876   4.938  22.725  0.0172  0.0655  0.0661
43804W        W52604  12.946   6.955  10.013  0.0397  0.0315  0.0648
43805W        W52605  16.714   5.633   4.108 -0.0111 -0.0546  0.0477
43806W        W52606  18.881   4.927   8.164 -0.1292 -0.0799  0.2104
43807W        W52607  18.795   3.500  29.932 -0.2076  0.0445 -0.0949
43808W        W52608  20.451   7.397   0.468 -0.2176  0.3478 -0.1198
43809W        W52609   0.277   0.513  24.847 -0.0509  0.0879 -0.0365
43810W        W52610  10.415   6.068  26.300  0.2375  0.1641 -0.5499
43811W        W52611  18.331   0.601  29.982 -0.0040 -0.1768 -0.0484
43812W        W52612  21.456   1.229   0.991 -0.1153  0.3310 -0.2068
43813W        W52613  10.028   0.170  23.564  0.1678 -0.0531  0.4407
43814W        W52614  25.036   1.344   7.485 -0.0424  0.1379  0.1469
43815W        W52615  23.202   3.203  15.804 -0.2659  0.1083  0.1587
43816W        W52616  21.069   5.169  26.504  0.0747  0.2087  0.1210
43817W        W52617   9.494   5.956   3.773 -0.0227  0.0999 -0.3615
43818W        W52618  19.500   4.890  30.469 -0.1228  0.1455 -0.1685
43819W        W52619   8.592   7.794   2.355  0.0272 -0.0428 -0.3548
43820W        W52620   8.627   0.082   2.864  0.0177 -0.1839  0.2039
43821W        W52621  13.959   4.967   6.999  0.2307 -0.0855 -0.0046
43822W        W52622   3.031   7.490   0.353 -0.1313  0.0513  0.3560
43823W        W52623  17.544   6.786  23.669 -0.0514 -0.1252 -0.0183
43824W        W52624   7.509   7.080  10.290  0.3715 -0.0113  0.1483
43825W        W52625  15.503   0.227  11.010  0.1544 -0.1571  0.2340
43826W        W52626  23.320   0.314  10.031  0.1178 -0.1298 -0.1828
43827W        W52627  20.061   5.251  29.545  0.0054  0.1921 -0.0478
43828W        W52628   5.221   7.548  26.390  0.0583  0.2054  0.0092
43829W        W52629   6.527   6.629   5.974  0.1085  0.1051 -0.3186
43830W        W52630   3.918   4.124  11.396 -0.0580 -0.1541  0.2577
43831W        W52631  14.239   2.788  26.324  0.1415  0.1280  0.1502
43832W        W52632  12.361   2.163  31.258 -0.0404 -0.2618  0.2882
43833W        W52633  12.034   4.887   9.097 -0.0305  0.1328  0.3665
43834W        W52634   9.113   4.620  13.297  0.3708 -0.1394 -0.1901
43835W        W52635   9.583   3.571  14.929  0.0092  0.4737 -0.0165
43836W        W52636  13.605   3.638  22.132  0.0111  0.1243  0.0828
43837W        W52637  20.878   0.671  25.584 -0.3050 -0.0921 -0.1488
43838W        W52638   8.503   7.750  26.499  0.0554  0.0590 -0.0420
43839W        W52639   8.694   5.608  28.482 -0.2581  0.0501 -0.3092
43840W        W52640  13.791   6.084  13.508  0.2099  0.0361  0.2232
43841W        W52641   2.013   7.574  12.663  0.1837 -0.0391 -0.0644
43842W        W52642   5.258   2.198  30.017 -0.3111 -0.0586 -0.1014
43843W        W52643  23.675   0.286   9.524 -0.0220  0.2497 -0.2235
43844W        W52644  23.846   4.728  17.918 -0.0465 -0.3388 -0.3513
43845W        W52645  18.324   7.180   1.600 -0.0467 -0.2972 -0.1274
43846W        W52646  16.146   7.020  12.391 -0.1787  0.1515  0.2642
43847W        W52647   6.156   1.019   5.729 -0.2360  0.0668  0.0168
43848W        W52648   5.140   3.798   2.511 -0.1801  0.0186  0.0279
43849W        W52649  17.047   6.068  26.539 -0.0912 -0.0124 -0.0253
43850W        W52650  13.472   1.081  13.807  0.0151  0.5086 -0.2762
43851W        W52651  16.202   1.876   9.328 -0.1020 -0.0688 -0.2169
43852W        W52652  10.900   5.295   3.985  0.2294  0.0391 -0.2255
43853W        W52653   3.925   0.886   6.292  0.0273 -0.0399 -0.0341
43854W        W52654  14.068   3.512  29.294 -0.2605 -0.1919  0.1165
43855W        W52655  17.797   5.183   7.204  0.1945  0.0507 -0.0507
43856W        W52656  21.388   7.196   6.631  0.0803  0.1188 -0.2322
43857W        W52657   2.673   4.156   0.630  0.2392 -0.0046 -0.2382
43858W        W52658  17.048   6.540   2.182  0.3058 -0.2091  0.2778
43859W        W52659   1.097   2.706  20.912  0.0811 -0.2386 -0.0923
43860W        W52660  16.913   3.448  29.478  0.0272 -0.0618  0.0499
43861W        W52661  19.148   6.502   2.554 -0.0558 -0.3942  0.2488
43862W        W52662   7.018   3.930  29.867 -0.1307 -0.1003 -0.1676
43863W        W52663  12.921   3.063  23.344  0.1182  0.0499 -0.1933
43864W        W52664  11.487   2.912  10.058  0.3406 -0.3195  0.1760
43865W        W52665  15.532   1.809  24.151 -0.0910 -0.4062 -0.1291
43866W        W52666   5.175   7.272  27.461  0.2487 -0.0612  0.0155
43867W        W52667  20.759   4.045   2.943  0.7032  0.3168  0.4481
43868W        W52668   6.154   3.635  10.788  0.1212 -0.1534 -0.0080
43869W        W52669   5.708   7.412  10.987  0.3581 -0.0750  0.2319
43870W        W52670   6.802   5.277   0.498  0.1244  0.0523 -0.0232
43871W        W52671   9.149   5.050  17.740 -0.0438 -0.0338 -0.1526
43872W        W52672  19.381   6.334  27.768  0.2516  0.2271 -0.0308
43873W        W52673   9.686   2.352  23.535 -0.2780 -0.1646 -0.0899
43874W        W52674   3.542   7.070  30.358 -0.1312 -0.2545 -0.2244
43875W        W52675   0.889   1.450  22.929 -0.1578  0.3692  0.0794
43876W        W52676  22.224   6.652  31.493  0.0014 -0.0976 -0.0354
43877W        W52677   5.658   7.474   4.748  0.0861  0.1106  0.3057
43878W        W52678  20.208   0.735  29.620  0.4753 -0.3631 -0.1658
43879W        W52679  23.813   0.865  19.797  0.0961  0.1118 -0.0020
43880W        W52680   8.244   5.909  28.639  0.1177 -0.1432 -0.1580
43881W        W52681   0.471   1.603   6.437  0.1234  0.0336  0.0108
43882W        W52682   0.800   1.964   4.599  0.2639 -0.0815  0.0772
43883W        W52683  14.625   4.826  20.696  0.0853  0.1358 -0.0332
43884W        W52684  11.246   2.048   2.236 -0.0637  0.2392 -0.0257
43885W        W52685   0.769   1.313   3.206  0.3746 -0.1512 -0.0317
43886W        W52686  12.826   0.646  30.560 -0.1802  0.3220  0.3321
43887W        W52687  20.626   2.923  32.618  0.0028  0.0429  0.3431
43888W        W52688  11.222   6.110   0.345 -0.1069  0.1300 -0.1393
43889W        W52689  12.854   2.900  27.672 -0.0790  0.1983 -0.1516
43890W        W52690  23.692   5.211   4.447 -0.0289 -0.1904  0.0272
43891W        W52691   5.798   4.035   8.174 -0.1667  0.0462  0.0906
43892W        W52692  22.237   2.685  22.484 -0.1420  0.0006 -0.4389
43893W        W52693  18.444   0.150  30.888  0.3042 -0.0104 -0.3232
43894W        W52694  14.899   4.974  32.241  0.0342  0.2252  0.0678
43895W        W52695  22.432   5.725  21.799 -0.0747  0.2539  0.1914
43896W        W52696  22.907   2.069  29.634 -0.2031  0.1145 -0.2807
43897W        W52697  24.127   5.511   4.729 -0.0247 -0.1209 -0.3696
43898W        W52698  10.857   2.720   1.929  0.3556  0.2592 -0.1144
43899W        W52699   0.408   3.405  23.171 -0.1845  0.2992  0.1522
43900W        W52700   6.781   7.612  32.652 -0.0901 -0.1108  0.0545
43901W        W52701  19.833   6.024  19.727  0.1546  0.2664  0.2529
43902W        W52702   0.047   4.601  28.863  0.2325 -0.2977  0.2097
43903W        W52703  18.988   4.333   9.338 -0.1897 -0.2379  0.0045
43904W        W52704   0.273   0.661  27.571 -0.6947  0.0977  0.1630
43905W        W52705  11.071   5.775  25.324  0.3387  0.1722  0.0927
43906W        W52706  12.048   7.290  24.608 -0.0067 -0.0125  0.2113
43907W        W52707  14.021   6.034   7.654 -0.3728  0.7785  0.0023
43908W        W52708   0.283   0.334  30.459 -0.0912 -0.2763 -0.0631
43909W        W52709   6.763   6.127  17.194 -0.0924 -0.2845  0.1887
43910W        W52710  16.809   5.291   1.942  0.2310 -0.1111  0.1712
43911W        W52711  15.004   7.336  23.572  0.0511  0.0566 -0.0060
43912W        W52712  12.301   7.582   0.499 -0.3736  0.3040  0.2154
43913W        W52713  16.553   1.929   0.071 -0.1575 -0.0593  0.0213
43914W        W52714  11.819   0.612  28.589 -0.0516 -0.3728  0.4287
43915W        W52715  18.442   5.664   3.277 -0.1029  0.4341 -0.3674
43916W        W52716  11.143   6.144   0.803 -0.1680  0.1090  0.2495
43917W        W52717   0.129   2.435  23.307 -0.1129  0.0559  0.0079
43918W        W52718   1.121   0.064  10.349  0.3201 -0.3318 -0.2651
43919W        W52719  16.170   5.963  28.222  0.0679 -0.1272  0.0812
43920W        W52720   0.709   7.363  27.138  0.3103 -0.1218 -0.0998
43921W        W52721   9.768   0.342   8.356  0.0574  0.1197 -0.1471
43922W        W52722   6.761   0.307   3.311  0.0665 -0.1119  0.0737
43923W        W52723  23.200   6.684  23.474 -0.1773 -0.2319  0.0156
43924W        W52724  17.679   1.328  27.849 -0.2276  0.1309 -0.0002
43925W        W52725   7.466   7.270   2.916  0.1043 -0.0897  0.0006
43926W        W52726  19.986   1.864  31.456  0.2125  0.2296  0.1204
43927W        W52727   3.954   1.051  24.103  0.1477  0.4083  0.1375
43928W        W52728  12.965   5.962  21.269 -0.0882 -0.1785 -0.2774
43929W        W52729   2.353   1.499   0.878  0.0417 -0.0012  0.0575
43930W        W52730   0.231   4.313  28.481  0.1024  0.2692  0.0238
43931W        W52731   7.835   4.341  29.614 -0.0339 -0.0428 -0.0779
43932W        W52732   4.166   1.336   7.632 -0.0689  0.0836  0.0986
43933W        W52733   8.089   2.174  12.086 -0.0663  0.3212 -0.1329
43934W        W52734   8.273   6.723   0.981  0.1351 -0.2603 -0.2155
43935W        W52735   9.556   7.603  14.648 -0.1022 -0.4019  0.2193
43936W        W52736  21.878   6.573   2.128 -0.1588  0.1332  0.1374
43937W        W52737  10.532   7.549   5.881 -0.2970  0.0373 -0.1511
43938W        W52738   6.050   7.588   9.970 -0.0358 -0.1432 -0.3278
43939W        W52739   7.329   2.064   2.773  0.2653 -0.0486 -0.0508
43940W        W52740  22.994   1.510   0.359 -0.1149  0.1318  0.0295
43941W        W52741  24.310   4.165  30.476  0.1580  0.0165 -0.2401
43942W        W52742   6.741   6.600  29.596 -0.2028  0.0740  0.1043
43943W        W52743  10.547   3.750  22.730 -0.1830 -0.0700  0.1646
43944W        W52744   4.617   2.469  25.026  0.1759 -0.1087 -0.1982
43945W        W52745  12.836   1.353  11.589  0.0535  0.3201 -0.0417
43946W        W52746   1.719   5.404  30.630 -0.2296 -0.0347  0.1387
43947W        W52747   4.998   3.889   8.946  0.2545 -0.0565  0.0599
43948W        W52748  23.272   7.173   0.550  0.2811 -0.1072  0.0349
43949W        W52749   0.287   5.919   1.462  0.1716  0.2722  0.0822
43950W        W52750  15.828   1.661   8.911 -0.2833  0.2774  0.0877
43951W        W52751   3.949   1.608   1.127  0.0668 -0.0936 -0.0066
43952W        W52752   8.490   3.800  22.340 -0.0641  0.0122  0.2360
43953W        W52753   7.657   4.447   3.082 -0.2244 -0.1093  0.1884
43954W        W52754   0.421   0.363  30.968 -0.1195 -0.0858  0.0756
43955W        W52755   5.485   5.314  10.355  0.0941  0.0831 -0.0405
43956W        W52756  22.200   6.240   2.121 -0.0540  0.0040  0.1139
43957W        W52757  20.670   4.569   3.549  0.0226  0.4260 -0.0127
43958W        W52758   3.141   4.076  10.718  0.1901 -0.1161 -0.4555
43959W        W52759  17.386   3.190  28.540  0.0203  0.1220 -0.1941
43960W        W52760  11.662   6.300   7.009  0.0377  0.0133 -0.0648
43961W        W52761  13.182   6.641   0.659  0.0985  0.1214  0.4201
43962W        W52762  21.607   5.412   7.282 -0.1372 -0.1727 -0.2592
43963W        W52763   7.888   0.084  27.625  0.0580 -0.0889  0.1652
43964W        W52764   7.845   3.445  16.237 -0.1161 -0.1468 -0.1605
43965W        W52765  14.789   6.792  21.628 -0.2555 -0.2084  0.2207
43966W        W52766   9.092   4.202  27.857 -0.1420 -0.0524  0.2606
43967W        W52767  15.719   5.804  22.709  0.2787 -0.0544  0.1102
43968W        W52768  18.167   6.091  23.718 -0.1193  0.1309  0.0190
43969W        W52769  13.615   7.678   0.120  0.1636  0.1798 -0.0860
43970W        W52770  19.726   2.083  24.245  0.2022 -0.2524 -0.1290
43971W        W52771  12.082   5.639  26.159  0.0216  0.1279 -0.0350
43972W        W52772   5.863   7.426  30.855 -0.2105 -0.0312  0.2308
43973W        W52773   8.158   5.545  22.816  0.1304  0.1150  0.0213
43974W        W52774   3.740   5.667   0.618  0.1973  0.0901  0.1608
43975W        W52775  16.582   3.320   1.871 -0.1943  0.2162  0.0297
43976W        W52776   0.813   0.360  24.380 -0.1008  0.0465  0.1209
43977W        W52777  19.042   4.298  22.610 -0.1291  0.0071 -0.0050
43978W        W52778  24.616   4.642   6.810  0.1364  0.0500  0.0055
43979W        W52779   9.336   0.044  27.320 -0.0150 -0.0092  0.2604
43980W        W52780  18.759   5.149  19.545 -0.1583  0.0457 -0.1915
43981W        W52781   6.481   7.520  15.767 -0.0060  0.0792  0.0048
43982W        W52782  15.979   5.362   1.569  0.0059  0.0902 -0.2443
43983W        W52783  10.945   4.851  11.171 -0.0192  0.0304 -0.0398
43984W        W52784  16.552   1.347   2.360  0.0157  0.1695 -0.1911
43985W        W52785  23.712   7.581  18.048 -0.1714 -0.2652 -0.2186
43986W        W52786   1.220   4.059  22.095 -0.0920 -0.0079  0.3195
43987W        W52787  21.638   3.223   8.431 -0.0700 -0.1217 -0.0682
43988W        W52788  19.105   4.351   4.853 -0.0505 -0.1145 -0.0695
43989W        W52789  20.851   3.194  10.501 -0.1711 -0.2077 -0.3178
43990W        W52790   2.249   3.803  21.287  0.0760 -0.2742 -0.0900
43991W        W52791   6.612   4.921  11.548 -0.0452  0.0527  0.0924
43992W        W52792  24.228   1.283  31.319 -0.1686  0.0887  0.0198
43993W        W52793  11.891   4.140  25.163  0.2005  0.1286 -0.0933
43994W        W52794  12.701   1.181  22.444  0.1006 -0.0947 -0.1142
43995W        W52795  20.077   4.242  29.378 -0.1411 -0.0786  0.0476
43996W        W52796   4.764   1.331  14.548  0.2096  0.0790 -0.0873
43997W        W52797  15.992   5.083   2.227  0.2207  0.0882  0.1886
43998W        W52798  23.167   4.763   3.405  0.1714  0.1314 -0.3291
43999W        W52799   0.859   5.817   4.227 -0.2260 -0.4242  0.0748
44000W        W52800  22.470   6.035  20.988 -0.4248 -0.0579 -0.1685
44001W        W52801  22.715   0.044  31.840 -0.0765 -0.2413 -0.0193
44002W        W52802   0.225   1.036  16.493  0.2442  0.0277 -0.0126
44003W        W52803  13.372   2.447  26.412 -0.2577  0.3124  0.0134
44004W        W52804  22.817   4.572  29.798 -0.2268 -0.0082 -0.1243
44005W        W52805  19.806   4.582  17.253  0.1252  0.1916  0.1782
44006W        W52806  19.690   1.915  19.926  0.0268  0.2493  0.2881
44007W        W52807   1.830   1.011  31.157 -0.1539  0.1101  0.0486
44008W        W52808  10.600   2.740  26.335 -0.1429  0.1129  0.0198
44009W        W52809  12.142   0.403   3.945  0.0481  0.2566  0.2318
44010W        W52810  18.895   5.276  32.387 -0.0712 -0.0777 -0.1595
44011W        W52811   9.494   3.861   2.369  0.0162 -0.0251 -0.0265
44012W        W52812  11.389   0.704  10.242 -0.1774 -0.3849  0.1464
44013W        W52813  21.315   0.245   6.853  0.0606 -0.0878  0.0590
44014W        W52814  13.487   4.326  11.935 -0.0734  0.1355 -0.0360
44015W        W52815   1.972   2.438   6.784 -0.0328 -0.1544  0.1104
44016W        W52816  21.670   3.207  26.334 -0.1089 -0.1089 -0.0526
44017W        W52817  23.687   6.847   8.846 -0.2051  0.1273  0.0781
44018W        W52818  15.619   3.788  18.079 -0.0943  0.0496 -0.2223
44019W        W52819  13.654   5.354  25.210  0.2557 -0.0947 -0.2502
44020W        W52820  24.660   3.531  32.057  0.0124 -0.2797 -0.0338
44021W        W52821   1.335   6.056  31.466 -0.0058 -0.2681 -0.3949
44022W        W52822   0.864   3.764  19.821  0.1170 -0.1384  0.0495
44023W        W52823   9.210   2.685   6.264 -0.2293  0.1439  0.1408
44024W        W52824   7.673   5.118  30.239 -0.1049 -0.2033 -0.0294
44025W        W52825  12.320   1.460   4.856  0.1359  0.2227  0.2089
44026W        W52826  24.867   2.120   6.786 -0.1373  0.1786 -0.3601
44027W        W52827  13.434   4.688  21.197 -0.0102  0.1058 -0.1356
44028W        W52828   9.854   4.189  13.543 -0.1673  0.0465  0.1244
44029W        W52829  11.423   4.964  32.581  0.4177  0.2126  0.1383
44030W        W52830  13.607   5.092   5.797  0.4069  0.0682  0.1974
44031W        W52831  23.767   5.430   9.293  0.0652  0.2400 -0.4228
44032W        W52832  17.819   5.503  29.462  0.3763 -0.1206 -0.0496
44033W        W52833  24.393   3.744   7.933 -0.1236  0.1093  0.1640
44034W        W52834  24.783   7.080   6.423  0.4099  0.2354 -0.0806
44035W        W52835  21.709   5.294   1.589 -0.1742 -0.0269 -0.0075
44036W        W52836  21.969   0.228  27.615  0.1410  0.1177 -0.0098
44037W        W52837  18.695   6.066   3.352  0.0571 -0.0808 -0.3176
44038W        W52838  22.002   0.523  20.569  0.3451  0.2274  0.2062
44039W        W52839   0.941   7.782  25.048  0.1127  0.2233 -0.1388
44040W        W52840   1.698   0.472   0.544  0.2485  0.0033  0.0924
44041W        W52841  20.672   1.771  27.895 -0.0404 -0.0923 -0.0954
44042W        W52842  21.267   6.834  10.256  0.0413  0.0814  0.1398
44043W        W52843  14.414   5.353   6.204  0.2817 -0.0060 -0.3530
44044W        W52844  20.820   7.076  32.253  0.0585  0.1559  0.2761
44045W        W52845  18.611   4.910  31.866  0.3723  0.1280 -0.0573
44046W        W52846  11.203   0.183  15.745  0.0995  0.2879  0.0743
44047W        W52847   5.199   2.652  12.305  0.2766  0.0751  0.1972
44048W        W52848  24.988   0.285  19.257  0.1571 -0.3268  0.0647
44049W        W52849  10.539   2.604  13.507  0.0848 -0.0357 -0.1525
44050W        W52850  19.221   1.554  26.971  0.1283 -0.1531 -0.2044
44051W        W52851  20.221   5.380  15.406 -0.0755 -0.1000  0.0966
44052W        W52852  11.379   0.037   1.432  0.1993  0.0243 -0.1545
44053W        W52853  10.586   7.762  10.474  0.1266 -0.2521 -0.0470
44054W        W52854  12.622   1.100  12.849 -0.1155  0.0872 -0.0827
44055W        W52855  18.594   6.460  30.150  0.2801 -0.3817 -0.0533
44056W        W52856  23.872   2.666   7.483  0.0399  0.0723 -0.3405
44057W        W52857   7.188   2.711  23.403  0.1373  0.1664 -0.3801
44058W        W52858   9.294   1.901  15.576 -0.1710 -0.0307  0.2107
44059W        W52859   0.487   0.163  20.071  0.0011 -0.0240  0.2092
44060W        W52860   3.657   3.568  23.213 -0.0870 -0.0156 -0.1236
44061W        W52861  23.916   5.686  27.641  0.1893  0.0830  0.0482
44062W        W52862  21.645   7.287  10.675 -0.0660  0.3198 -0.1400
44063W        W52863  12.845   5.886   6.344 -0.0003 -0.0744 -0.1529
44064W        W52864   0.479   5.108   9.247  0.2933  0.0855  0.3052
44065W        W52865  21.969   1.428   2.810 -0.2345 -0.0361  0.0016
44066W        W52866  12.586   5.712  16.115  0.1085  0.1882 -0.0380
44067W        W52867  19.272   1.030   7.092  0.1059  0.0141 -0.2805
44068W        W52868   8.807   5.031   5.859 -0.1343  0.3253 -0.2493
44069W        W52869   4.886   7.412  25.902 -0.0306  0.1380  0.1174
44070W        W52870   0.371   7.586   0.925  0.2210  0.0850 -0.1692
44071W        W52871   6.632   6.940   3.113  0.1306 -0.0198 -0.2270
44072W        W52872   5.891   6.196  13.681 -0.0375  0.3289 -0.2291
44073W        W52873  22.058   2.634   9.988  0.4085  0.3144 -0.0364
44074W        W52874   5.761   2.927  31.640  0.1806 -0.0072  0.0778
44075W        W52875  12.343   0.241  25.873  0.2582  0.2010 -0.0295
44076W        W52876   5.471   0.437  12.402  0.0881 -0.2379  0.0598
44077W        W52877   8.599   6.594  12.238 -0.2384 -0.0194  0.3271
44078W        W52878   0.181   0.407  25.600 -0.0256  0.1506 -0.1460
44079W        W52879   3.679   4.522  28.943  0.1313  0.2061  0.0315
44080W        W52880   5.824   3.671  30.958 -0.3347 -0.0941  0.0332
44081W        W52881   2.582   3.687  25.079  0.0557  0.0038 -0.4227
44082W        W52882  10.134   5.762  24.386  0.3211 -0.1847  0.2000
44083W        W52883  16.881   1.774  19.942  0.2694  0.4411 -0.0807
44084W        W52884   8.074   7.687  16.465 -0.1653 -0.2583  0.0209
44085W        W52885   4.546   0.995  25.772 -0.0105  0.0201  0.1457
44086W        W52886  15.637   4.476  19.480  0.0660 -0.2901 -0.0949
44087W        W52887   9.085   7.297  10.172 -0.0789 -0.2609  0.0945
44088W        W52888  19.784   7.819   5.009 -0.1632 -0.0326 -0.1434
44089W        W52889  17.693   1.724   8.009  0.0995 -0.1104 -0.1222
44090W        W52890  22.823   4.099   4.727 -0.1604 -0.2288 -0.1024
44091W        W52891   9.611   3.566  27.204 -0.2731  0.2328  0.2783
44092W        W52892   6.667   6.575  14.803  0.1562 -0.1942 -0.0260
44093W        W52893  15.098   4.718  20.055  0.1065  0.0321  0.1584
44094W        W52894   0.037   2.512  31.004 -0.0456 -0.2310 -0.0644
44095W        W52895   5.012   5.611  23.187 -0.0779 -0.1218  0.0357
44096W        W52896   5.520   7.565  10.125 -0.2347  0.0029 -0.4223
44097W        W52897  17.697   5.085  16.352  0.0974 -0.5451  0.1643
44098W        W52898  14.832   1.532  12.819 -0.2326 -0.2602 -0.1130
44099W        W52899  15.209   2.151   2.798 -0.0695  0.0392  0.3916
44100W        W52900   5.847   0.923  16.455  0.2891 -0.3131  0.1058
44101W        W52901  22.093   2.191  19.154 -0.0794 -0.0872  0.3395
44102W        W52902  22.850   7.616  15.510 -0.1981 -0.1889  0.1675
44103W        W52903  24.595   4.083   7.596 -0.0004 -0.0466 -0.2576
44104W        W52904  23.031   7.618   7.349 -0.1568 -0.1472 -0.0746
44105W        W52905  22.973   6.191   7.430 -0.0044 -0.3362  0.0993
44106W        W52906  16.682   2.900   3.897  0.1647 -0.0174  0.2674
44107W        W52907   7.213   5.822  12.224  0.0672  0.2425  0.1583
44108W        W52908   8.833   3.093  16.211 -0.4415 -0.1909 -0.1046
44109W        W52909   3.375   4.432   3.105 -0.0106 -0.0734 -0.4089
44110W        W52910  24.966   7.728  31.637  0.3534 -0.2523 -0.1567
44111W        W52911  13.191   6.522   9.814  0.0755  0.0606  0.0379
44112W        W52912  24.795   0.658   2.067 -0.1663  0.3013  0.1637
44113W        W52913   2.271   3.779  10.568  0.0846 -0.0533 -0.2620
44114W        W52914   8.176   1.910  28.025 -0.1616  0.0139 -0.1912
44115W        W52915  17.572   7.171  29.796  0.2028 -0.0926  0.1866
44116W        W52916   7.718   1.845  32.225  0.2797 -0.3549 -0.2845
44117W        W52917   4.006   1.665  24.733  0.1979  0.1032 -0.1857
44118W        W52918  18.310   3.628   0.990  0.0129 -0.1784  0.1295
44119W        W52919   0.878   3.545  32.702  0.0402  0.2211  0.0876
44120W        W52920  11.532   1.729   2.759 -0.2732 -0.0103  0.2423
44121W        W52921   3.182   7.295  10.667  0.3550  0.1923 -0.0877
44122W        W52922   4.679   3.834   2.610 -0.0305  0.1285 -0.1871
44123W        W52923  14.334   7.609  22.969  0.2503 -0.1429 -0.0190
44124W        W52924  19.817   0.869   6.076 -0.1439  0.3731 -0.2196
44125W        W52925  24.306   2.797   6.209  0.0589 -0.0116  0.0972
44126W        W52926  24.644   5.441  19.363  0.0299 -0.1365 -0.0077
44127W        W52927  21.983   3.860  25.436 -0.2558 -0.1424 -0.1143
44128W        W52928  15.815   4.995  18.738 -0.0210  0.2095 -0.1794
44129W        W52929   7.695   5.788  10.273  0.1506  0.1396 -0.2057
44130W        W52930  16.683   5.717   1.298 -0.2336  0.1984 -0.3164
44131W        W52931   8.038   3.515   5.887  0.2250 -0.1258 -0.2579
44132W        W52932  18.651   3.149  27.305 -0.2290  0.4089 -0.0101
44133W        W52933  24.033   5.329   0.636  0.0908 -0.1376  0.1978
44134W        W52934  20.623   6.702  18.274  0.1781 -0.1429  0.3423
44135W        W52935  12.918   5.331  30.424  0.1388 -0.0615 -0.0494
44136W        W52936   2.875   6.558  29.492  0.1676  0.1049 -0.0047
44137W        W52937   9.508   0.690  29.897 -0.0022 -0.1512  0.0672
44138W        W52938   5.488   3.698  13.048  0.1983 -0.0534  0.1707
44139W        W52939   2.481   4.240  11.182 -0.0572  0.0744 -0.0097
44140W        W52940  14.768   3.725  29.953 -0.2847  0.0676  0.1769
44141W        W52941  13.804   2.323  11.877  0.0221  0.4170  0.0053
44142W        W52942   8.326   1.790  13.400 -0.3895 -0.1678  0.1991
44143W        W52943  21.265   2.804  22.528 -0.0371  0.1559  0.0190
44144W        W52944  18.674   2.345  19.300 -0.0788 -0.1845 -0.1959
44145W        W52945   8.699   6.566   0.016  0.1042 -0.1867  0.1349
44146W        W52946  17.929   6.373  17.448 -0.1286 -0.1860  0.0757
44147W        W52947  24.697   6.151  23.368 -0.0371  0.2143  0.0594
44148W        W52948   3.333   1.731  11.191 -0.3830  0.0268 -0.2953
44149W        W52949   9.316   5.974   6.148 -0.1149  0.1827  0.1444
44150W        W52950  12.234   2.686  22.076  0.1880 -0.0956 -0.0279
44151W        W52951  18.204   6.198  25.109 -0.0112  0.0707  0.0894
44152W        W52952   2.459   6.490  27.647 -0.1462 -0.2175  0.1528
44153W        W52953   3.284   6.125   8.470 -0.2445  0.0649  0.2839
44154W        W52954  21.477   2.497  23.100 -0.2163 -0.0758 -0.2413
44155W        W52955   0.439   5.081  26.223 -0.4494  0.2577 -0.3478
44156W        W52956  11.032   0.416  30.890  0.2252  0.0145  0.1894
44157W        W52957   0.634   2.851   0.199  0.2005  0.1738 -0.2318
44158W        W52958   0.064   7.601  18.343  0.0315 -0.1789 -0.0749
44159W        W52959  19.902   1.465   1.910  0.1600 -0.2073 -0.1528
44160W        W52960  12.591   2.628  27.369 -0.3566  0.2663 -0.1092
44161W        W52961   6.620   4.971   2.761  0.0396  0.1339  0.0539
44162W        W52962   4.108   7.339   3.540  0.4380 -0.2266  0.0351
44163W        W52963  16.188   0.171  23.175  0.2243 -0.1839  0.2031
44164W        W52964   5.267   5.215  15.365  0.2213  0.0301 -0.2333
44165W        W52965  21.261   7.639   0.687 -0.2046  0.0891  0.2350
44166W        W52966  19.696   0.348   0.343 -0.0829  0.1311  0.0307
44167W        W52967   6.243   0.507  26.105  0.0176 -0.2217  0.0752
44168W        W52968  21.675   0.336   0.937 -0.2170  0.0243  0.2222
44169W        W52969   9.308   6.554  27.850  0.0023 -0.1400  0.1269
44170W        W52970   6.577   2.016   7.560  0.2618  0.0688  0.0988
44171W        W52971  21.588   1.221  29.118  0.0764 -0.2569  0.0789
44172W        W52972   1.117   1.768  21.163  0.0833 -0.0475  0.0627
44173W        W52973   4.183   3.332  22.205 -0.0542  0.1169  0.1660
44174W        W52974  18.496   1.428  23.055  0.0559  0.0563  0.2292
44175W        W52975  14.955   1.705  21.533  0.0313  0.2466  0.2775
44176W        W52976   8.527   1.768  31.184  0.2734  0.2381 -0.1864
44177W        W52977   2.423   2.174  30.181  0.1237  0.2641  0.0399
44178W        W52978  22.954   2.329  18.652  0.1384  0.2050 -0.0245
44179W        W52979  17.898   2.370  27.998  0.1264 -0.1806  0.0909
44180W        W52980  23.500   6.947   3.491 -0.0220 -0.2974 -0.0163
44181W        W52981   9.369   6.256  16.480  0.0820  0.1952 -0.0301
44182W        W52982  23.357   7.400  18.550  0.1204 -0.3649  0.0750
44183W        W52983  15.792   5.514  32.469 -0.1163  0.2744  0.1707
44184W        W52984   1.091   5.747   1.497 -0.1286  0.1125 -0.2908
44185W        W52985  20.137   6.912   6.065  0.2259 -0.0500 -0.1732
44186W        W52986   2.915   0.343  11.280 -0.0575 -0.1762 -0.0420
44187W        W52987  14.636   7.177  23.892 -0.1666 -0.1128 -0.0105
44188W        W52988  15.917   1.343  27.071 -0.1194 -0.1069 -0.0355
44189W        W52989   2.504   7.307   4.503 -0.2537 -0.2050 -0.1130
44190W        W52990   1.847   6.072  11.210  0.1637 -0.0272  0.3152
44191W        W52991  22.417   6.867  27.471  0.0598 -0.0033  0.0167
44192W        W52992   8.898   6.459  11.872 -0.0806 -0.2136  0.2193
44193W        W52993  10.042   3.435  31.491 -0.1355  0.4079  0.4465
44194W        W52994  21.755   5.335  27.440  0.0318  0.2608 -0.1335
44195W        W52995   9.067   3.928  24.088  0.1164 -0.1743  0.0136
44196W        W52996  12.218   6.132  13.876  0.0482 -0.1447 -0.2494
44197W        W52997   8.075   6.552  14.173 -0.0947  0.3083  0.3273
44198W        W52998   6.838   3.079  13.642 -0.1918 -0.1601  0.1363
44199W        W52999  22.976   7.021  14.498  0.0956 -0.0677 -0.2315
44200W        W53000   4.375   6.345  13.146 -0.3348 -0.0320  0.0628
44201W        W53001  19.506   1.647  23.990  0.1201  0.3079 -0.0266
44202W        W53002   9.019   1.594   6.387 -0.2166  0.3013  0.0997
44203W        W53003  22.398   5.850  20.542  0.0534  0.1483  0.2288
44204W        W53004  23.428   2.559  20.463  0.0623 -0.1601  0.0408
44205W        W53005  11.605   3.055   0.884  0.1027 -0.0338  0.1094
44206W        W53006   4.549   2.699   5.848 -0.0135  0.1182  0.1510
44207W        W53007   9.245   5.806  18.264 -0.0812 -0.2680  0.1646
44208W        W53008  13.638   3.366  23.636 -0.1438  0.0523  0.3175
44209W        W53009  10.860   3.516  17.117 -0.1967  0.0053  0.0150
44210W        W53010   3.204   7.111   6.446 -0.0064 -0.1328  0.0662
44211W        W53011   8.092   5.767   0.591 -0.3095 -0.1088  0.0464
44212W        W53012  16.184   6.002  29.651  0.1913  0.2085 -0.0819
44213W        W53013  22.038   3.395  27.983  0.0985  0.0095  0.1234
44214W        W53014  18.304   0.104  27.610  0.0096 -0.1247 -0.2572
44215W        W53015  20.614   5.224   6.026 -0.0037  0.0051 -0.2111
44216W        W53016   7.378   0.162   0.064  0.0423  0.1344  0.1102
44217W        W53017  14.311   2.370  31.711  0.0125 -0.1466  0.1053
44218W        W53018  10.310   4.576  28.420  0.0665 -0.1100  0.3039
44219W        W53019  11.893   4.046  23.789  0.0001  0.0292  0.0746
44220W        W53020   4.827   7.515  30.668 -0.0308 -0.1710  0.1141
44221W        W53021   6.746   1.668   9.898 -0.3294  0.0943 -0.0772
44222W        W53022  16.331   5.684  27.840  0.1088  0.0035  0.1207
44223W        W53023   0.332   6.716   2.254 -0.2503 -0.1096  0.1878
44224W        W53024   3.748   5.559  26.950  0.0124  0.4224 -0.1299
44225W        W53025   4.996   2.378   0.510  0.1292  0.0331 -0.0525
44226W        W53026   9.110   1.907   2.236  0.0235 -0.0360 -0.0550
44227W        W53027   2.471   7.212   8.733 -0.0793 -0.0214  0.0972
44228W        W53028  16.009   1.833  25.059  0.0869  0.0236  0.1781
44229W        W53029   9.098   1.349  10.909  0.0005 -0.0295 -0.3022
44230W        W53030  19.843   7.585  22.322  0.0421  0.0969  0.3569
44231W        W53031  14.004   6.602  11.727  0.2326  0.0944  0.0590
44232W        W53032   5.576   2.768  27.257  0.0800  0.1825 -0.1562
44233W        W53033  12.971   5.892  22.178  0.1628 -0.0568  0.2321
44234W        W53034  14.034   4.429  24.388  0.1740 -0.1397  0.0740
44235W        W53035  22.661   1.438  15.348  0.0550 -0.2762  0.5031
44236W        W53036  12.064   3.243  12.724 -0.2637 -0.0818 -0.0383
44237W        W53037  24.025   6.454  31.652  0.1331  0.1382  0.1776
44238W        W53038  21.918   3.134   1.764  0.3221 -0.2292  0.2396
44239W        W53039  17.286   5.799   2.630 -0.0567 -0.2338 -0.0694
44240W        W53040  16.195   2.648  28.753  0.1750 -0.3631 -0.0997
44241W        W53041  11.290   5.440  29.349 -0.2237 -0.1176  0.1764
44242W        W53042   8.013   6.610  28.058  0.4372  0.0222 -0.2262
44243W        W53043   6.748   5.843  22.995  0.0844 -0.2236 -0.1422
44244W        W53044   8.330   0.665   4.472  0.1228  0.2317 -0.0671
44245W        W53045   3.445   3.184   6.313 -0.3466  0.0670  0.4726
44246W        W53046   1.067   2.522   8.179  0.2626 -0.0218 -0.1629
44247W        W53047  21.346   3.853  15.222  0.1081 -0.2928  0.3123
44248W        W53048  15.091   6.428   4.599 -0.0068  0.2549  0.0190
44249W        W53049  20.789   4.256  26.815  0.0808  0.0563 -0.0146
44250W        W53050  14.368   3.051   6.897  0.0558 -0.2823 -0.1053
44251W        W53051   4.282   7.303   2.218  0.2497  0.0354 -0.0036
44252W        W53052   9.312   2.140   3.268 -0.0942  0.2201  0.3838
44253W        W53053  23.997   2.389   5.995  0.1268 -0.1748 -0.1998
44254W        W53054   9.155   3.207  23.234 -0.1202  0.3286 -0.0701
44255W        W53055   4.254   6.819   9.279 -0.0793 -0.0888 -0.2077
44256W        W53056   5.511   4.452   4.224 -0.3793 -0.1354 -0.0805
44257W        W53057   4.774   6.232   1.363  0.3466 -0.0537  0.0272
44258W        W53058   8.160   3.889   0.090 -0.1492 -0.2349  0.0772
44259W        W53059   3.295   1.289  20.519  0.0979 -0.2441 -0.0395
44260W        W53060  10.303   5.197   8.125  0.0867 -0.0756 -0.0365
44261W        W53061   6.726   1.526   4.261  0.0428 -0.0106  0.3801
44262W        W53062   8.869   2.388  24.639 -0.0714  0.0265 -0.2941
44263W        W53063  23.428   2.872  10.090  0.3764 -0.1572 -0.0641
44264W        W53064   9.381   2.650  14.267  0.0167 -0.1477 -0.1572
44265W        W53065   3.640   5.433  28.962 -0.3465  0.0124 -0.0393
44266W        W53066  20.308   5.083  20.715 -0.0585  0.0744 -0.3514
44267W        W53067  19.163   4.756  28.645 -0.2236  0.0579 -0.1193
44268W        W53068  14.082   2.439   9.717 -0.3858  0.1907 -0.1728
44269W        W53069   1.174   0.945  28.207 -0.0108  0.2614 -0.1267
44270W        W53070  12.409   7.637  13.529  0.0694  0.0789  0.3048
44271W        W53071   5.839   7.439  25.593  0.2174 -0.0538 -0.2602
44272W        W53072  11.007   3.427   4.408  0.0808  0.1814  0.1605
44273W        W53073   2.875   1.395   3.633  0.1088  0.0705 -0.1331
44274W        W53074  19.374   3.505  21.799 -0.1992  0.0187  0.1187
44275W        W53075  21.569   6.324  18.846 -0.0830  0.0224 -0.0575
44276W        W53076  11.414   3.836  12.993  0.2133  0.2176 -0.1183
44277W        W53077  23.831   7.051   7.103  0.2759  0.1202 -0.1436
44278W        W53078   3.896   1.837  30.084 -0.3626 -0.1605 -0.2363
44279W        W53079   7.157   2.897  25.543 -0.0680  0.0215  0.2236
44280W        W53080  16.657   7.130   2.033 -0.0055  0.0229  0.3174
44281W        W53081  23.734   6.256  30.771  0.0332  0.0456  0.1377
44282W        W53082   9.294   5.807  27.982  0.3275  0.1090  0.3106
44283W        W53083  12.174   1.983   9.306 -0.0165 -0.0364  0.2857
44284W        W53084  13.387   1.467  12.374 -0.1725  0.2273  0.2170
44285W        W53085  14.401   1.261  20.743  0.1658  0.3491  0.3449
44286W        W53086  11.321   5.892  16.467  0.3303  0.0543  0.2193
44287W        W53087  20.505   4.883   5.350 -0.0942 -0.1413 -0.0214
44288W        W53088   0.534   4.449  17.766 -0.2198  0.0732  0.0855
44289W        W53089  21.185   4.456  16.929  0.1378 -0.1189  0.0954
44290W        W53090  21.754   1.643   4.539  0.4057 -0.0435 -0.0668
44291W        W53091  15.600   7.082  13.219 -0.0280 -0.1813 -0.1173
44292W        W53092  15.375   6.692  31.696 -0.1232 -0.2360  0.1845
44293W        W53093   8.739   1.932  24.206  0.0977 -0.1360 -0.0491
44294W        W53094   3.373   1.401  26.353  0.0568  0.0672 -0.3619
44295W        W53095  25.007   7.065   5.882  0.1566 -0.2442  0.3993
44296W        W53096   7.807   5.361   9.073  0.2552  0.1672  0.1029
44297W        W53097  11.149   5.121  22.943 -0.0994 -0.1764  0.4952
44298W        W53098  15.168   1.996  30.971 -0.3418 -0.0436 -0.2711
44299W        W53099  17.323   4.913  25.792  0.5172  0.1616  0.0719
44300W        W53100   7.153   4.731  14.304 -0.1168 -0.2021 -0.0210
44301W        W53101  18.508   6.412  23.381 -0.1583 -0.0907  0.1370
44302W        W53102   9.262   0.475  10.233 -0.0538  0.0653 -0.0763
44303W        W53103   0.839   1.579  21.622 -0.0744 -0.1994  0.0026
44304W        W53104   7.857   2.123  15.483 -0.0277 -0.2570  0.2417
44305W        W53105   5.518   6.960   7.926  0.0183  0.1746 -0.0215
44306W        W53106   1.540   3.484   8.280 -0.0113  0.0436  0.0152
44307W        W53107  20.683   5.429   6.974 -0.0223 -0.0231  0.0353
44308W        W53108   8.724   7.312   7.741 -0.1503  0.0363 -0.0821
44309W        W53109  22.615   0.660  21.860  0.1042  0.2549 -0.0484
44310W        W53110   5.057   4.001  29.223  0.0289  0.3741 -0.2987
44311W        W53111  12.996   4.020  11.218  0.3412 -0.0866 -0.1336
44312W        W53112   0.047   5.409  31.649  0.2016  0.0914 -0.2366
44313W        W53113   7.860   2.760  22.758 -0.2387 -0.3093 -0.0755
44314W        W53114  11.618   0.332   7.572  0.1851  0.1827 -0.0823
44315W        W53115  10.626   4.173  25.229 -0.1337 -0.0532 -0.2522
44316W        W53116   2.617   5.813   2.440 -0.0931 -0.2591  0.0617
44317W        W53117  15.392   0.128  31.347 -0.0048  0.3680  0.2233
44318W        W53118   2.640   7.764  28.881  0.1107  0.0825  0.1463
44319W        W53119   8.390   0.356  18.924 -0.1845  0.0534  0.1836
44320W        W53120   5.597   6.944  30.523 -0.1898 -0.0083 -0.1603
44321W        W53121   0.137   3.029   9.178 -0.1096  0.1917 -0.1488
44322W        W53122  18.616   6.687  31.725  0.1617 -0.0005  0.1055
44323W        W53123   6.289   5.736  12.046  0.1448 -0.0391 -0.1469
44324W        W53124  20.133   6.996  28.036 -0.1739 -0.1120  0.1566
44325W        W53125  10.528   5.738  27.179  0.0112  0.0100  0.4320
44326W        W53126  19.031   0.975  14.406 -0.0566 -0.2150  0.1885
44327W        W53127  17.094   1.206   5.125 -0.2971 -0.3402  0.2021
44328W        W53128  15.535   0.365  27.050 -0.1837  0.1194  0.0406
44329W        W53129   6.802   7.753  21.739 -0.0312  0.0646  0.1922
44330W        W53130   9.871   1.155   6.114 -0.3050 -0.1047  0.0305
44331W        W53131   4.343   0.485   9.334  0.0423 -0.2408  0.0868
44332W        W53132  19.672   1.651  24.464  0.1381  0.0198  0.0770
44333W        W53133  13.547   6.558   7.555 -0.0746  0.2037 -0.1874
44334W        W53134  19.625   7.638  25.758  0.0830 -0.1495  0.0879
44335W        W53135  21.705   7.069   6.182  0.0859 -0.2068  0.0418
44336W        W53136   3.309   6.108  27.399  0.3520 -0.2687 -0.1085
44337W        W53137  14.209   5.126  13.897  0.0436 -0.0155 -0.0333
44338W        W53138  12.115   1.909  21.961  0.0315 -0.0849  0.3326
44339W        W53139  11.568   1.713   1.447 -0.0107  0.0600  0.0767
44340W        W53140   9.849   0.526  23.279  0.2183 -0.2844  0.2500
44341W        W53141  23.395   4.613   9.547  0.1912  0.2820 -0.1562
44342W        W53142   7.457   3.350  10.189 -0.0237  0.2243 -0.2054
44343W        W53143  11.503   7.512  12.542 -0.0495 -0.1653 -0.1134
44344W        W53144   1.991   2.521  28.636  0.1170 -0.0837 -0.1649
44345W        W53145  10.703   2.725  29.921  0.1035 -0.0477 -0.1080
44346W        W53146  19.100   1.904  16.366 -0.1653 -0.1589 -0.0536
44347W        W53147   5.523   7.652  17.092 -0.0493  0.1064 -0.0679
44348W        W53148   9.767   3.709  16.241  0.1910 -0.2084  0.2677
44349W        W53149  12.990   7.126  29.516  0.0178  0.2215  0.5371
44350W        W53150  24.504   7.138  29.545  0.3218  0.2859  0.2395
44351W        W53151  13.219   2.729  13.000  0.1112  0.0518 -0.0648
44352W        W53152  13.691   1.365   3.524  0.1822 -0.2465  0.3333
44353W        W53153  21.743   2.923   1.362  0.0300 -0.2816  0.0869
44354W        W53154   3.226   5.581   6.495 -0.1767 -0.1675 -0.1330
44355W        W53155   6.480   2.204   0.619 -0.0613  0.2110 -0.0013
44356W        W53156  20.011   0.772  14.747  0.0796 -0.0487 -0.1335
44357W        W53157  24.267   2.171  21.536  0.2485 -0.2564  0.0923
44358W        W53158   7.226   0.605  17.259  0.3254 -0.0919  0.0066
44359W        W53159   6.415   2.818  28.003 -0.0665 -0.1628  0.2077
44360W        W53160  16.573   5.830  30.664 -0.1730  0.2352 -0.2019
44361W        W53161  13.894   2.900   2.593 -0.3190  0.0301  0.3936
44362W        W53162  22.508   6.311  31.223 -0.1538 -0.0797 -0.0387
44363W        W53163   3.542   0.939  27.041  0.0009 -0.1991  0.0725
44364W        W53164  19.464   1.793  21.753  0.0154 -0.0476  0.1213
44365W        W53165   8.365   1.202   3.714  0.2380 -0.1245 -0.0955
44366W        W53166   6.240   4.490  27.247 -0.1460  0.1051 -0.0468
44367W        W53167   9.662   5.031  24.411  0.0740 -0.4494  0.1314
44368W        W53168   0.186   2.749  17.286  0.0210  0.0727  0.0466
44369W        W53169   0.088   5.829   3.674  0.0192 -0.2458 -0.1419
44370W        W53170   9.661   7.513   0.492 -0.2009  0.2777 -0.5491
44371W        W53171   9.526   5.261  24.892  0.1307 -0.1783 -0.0463
44372W        W53172  14.604   3.272  31.247 -0.0309 -0.1667  0.0261
44373W        W53173  18.313   3.423  19.747 -0.2712  0.0722  0.3131
44374W        W53174  17.869   5.018  26.018  0.0634  0.2238 -0.1430
44375W        W53175   5.181   2.400  10.316  0.0216  0.0010 -0.0586
44376W        W53176  19.099   4.822   6.434  0.2016 -0.1435  0.1805
44377W        W53177  24.183   4.699   3.939  0.0524  0.2365  0.1869
44378W        W53178  23.213   3.193   1.111 -0.0542 -0.1594  0.0162
44379W        W53179   6.319   2.558   5.546  0.2002 -0.1764 -0.0297
44380W        W53180   2.928   1.314  12.256  0.2331  0.1762 -0.1831
44381W        W53181  12.005   7.794  27.969  0.0897  0.2347 -0.2080
44382W        W53182   7.733   5.340  11.131 -0.0079 -0.1043  0.3491
44383W        W53183   4.450   4.429  29.773 -0.0264  0.0040  0.1252
44384W        W53184  16.246   5.142  10.585  0.0015 -0.0537  0.1686
44385W        W53185   4.873   4.667   1.567  0.3462  0.0303 -0.0433
44386W        W53186  14.226   7.455   1.280  0.0741  0.1481 -0.1204
44387W        W53187  18.963   7.499  20.095 -0.0379 -0.1609 -0.1848
44388W        W53188  11.092   4.176   5.618  0.1396  0.1756  0.4445
44389W        W53189   8.316   6.878  29.009  0.0447 -0.1041  0.0832
44390W        W53190  14.005   5.376  32.449 -0.0214  0.1762 -0.0907
44391W        W53191  15.220   0.904  20.164  0.1417 -0.1325  0.2100
44392W        W53192   6.378   2.370  26.589 -0.0621  0.0550 -0.0251
44393W        W53193   4.127   4.693  10.939  0.0031  0.0238  0.1063
44394W        W53194  21.731   7.207  28.045  0.0161  0.2083 -0.1941
44395W        W53195  23.580   0.014  29.956 -0.2888  0.1490 -0.0752
44396W        W53196  19.134   4.829  22.429  0.1660 -0.1115  0.1930
44397W        W53197  15.013   4.521  20.753 -0.2586  0.1285  0.0096
44398W        W53198   6.067   6.415  14.132 -0.0582  0.1772  0.0508
44399W        W53199   7.861   4.320  15.718 -0.1601 -0.0360  0.0408
44400W        W53200  16.525   2.158  22.227 -0.3056 -0.0541 -0.0447
44401W        W53201   1.552   2.200  31.549  0.1563  0.0690 -0.0093
44402W        W53202   6.933   0.812   1.114  0.1687 -0.1029  0.0448
44403W        W53203  23.211   0.205  22.408  0.4404  0.0364 -0.1162
44404W        W53204  21.778   1.146   7.452  0.2293  0.2098  0.0367
44405W        W53205   7.674   6.685   8.572  0.1248 -0.5951  0.3185
44406W        W53206   7.145   3.691   2.023  0.2802 -0.1428  0.0631
44407W        W53207  19.406   7.101  15.074  0.2827 -0.2171 -0.0390
44408W        W53208  21.591   0.022  17.124  0.0398  0.0768  0.0689
44409W        W53209   4.180   3.226   4.178  0.2768 -0.2516 -0.0621
44410W        W53210   0.458   3.285  27.911  0.0292 -0.1976  0.1270
44411W        W53211   2.568   0.134   2.833 -0.1353 -0.1414  0.0697
44412W        W53212   2.560   7.587   6.237 -0.0143 -0.3575  0.1447
44413W        W53213  24.011   7.517  25.484  0.1085 -0.0792  0.1643
44414W        W53214   6.496   0.866   9.565 -0.1593  0.2220  0.0985
44415W        W53215  10.315   3.704   2.826 -0.1208 -0.1781 -0.0431
44416W        W53216   6.216   0.266   2.334 -0.0458 -0.1452 -0.1186
44417W        W53217  23.158   5.029  32.048 -0.2847 -0.1987 -0.1421
44418W        W53218  20.121   6.349  19.936 -0.3490  0.0961  0.0736
44419W        W53219  17.362   4.480  32.477 -0.1613  0.3178  0.3471
44420W        W53220  16.025   1.908   5.321 -0.2881  0.1447  0.1656
44421W        W53221  19.996   7.131  26.869  0.2071 -0.2921 -0.1843
44422W        W53222   4.456   1.653   0.118 -0.1692 -0.1538  0.0842
44423W        W53223   5.217   1.935   1.482  0.4973  0.1440  0.0315
44424W        W53224  23.062   6.783  17.944  0.1665 -0.1575  0.1794
44425W        W53225   8.029   6.767   9.120 -0.0049 -0.0964  0.2122
44426W        W53226  13.603   6.860   1.554  0.0393  0.0134 -0.0157
44427W        W53227  22.040   6.793  14.809  0.0529 -0.0111 -0.1116
44428W        W53228   7.324   2.301  23.068 -0.0356 -0.0564  0.0414
44429W        W53229   5.891   6.878  11.156  0.0470  0.0414  0.0323
44430W        W53230  11.148   1.532   8.886 -0.2187 -0.5266  0.0260
44431W        W53231  21.966   1.728   9.539 -0.1739 -0.0249  0.0515
44432W        W53232  15.624   5.041  27.584 -0.2159 -0.0128  0.1832
44433W        W53233  15.682   3.678  27.246 -0.1034  0.3952  0.2300
44434W        W53234  24.744   1.313   5.209 -0.0873  0.3206 -0.2079
44435W        W53235   5.541   4.048   2.780 -0.0918 -0.2999 -0.1301
44436W        W53236  22.706   3.047  23.594 -0.2458 -0.1314 -0.0651
44437W        W53237  22.040   4.905   8.917 -0.1654 -0.0509  0.4396
44438W        W53238   0.927   0.119  23.214 -0.0803  0.0268  0.1581
44439W        W53239  19.690   5.501  32.493  0.1003  0.1307  0.0723
44440W        W53240  19.000   2.603   6.566 -0.1451 -0.0716 -0.0690
44441W        W53241   0.239   2.449   9.706  0.2806 -0.0657 -0.0227
44442W        W53242  19.596   3.058   6.940 -0.1808 -0.1174  0.2538
44443W        W53243  24.844   5.895  31.475  0.0170  0.1468  0.0234
44444W        W53244   2.654   3.758  32.464 -0.2907 -0.1781 -0.0008
44445W        W53245   7.214   0.978   7.215  0.0629 -0.0189 -0.0961
44446W        W53246  23.617   7.337  21.349 -0.3310 -0.0289  0.2372
44447W        W53247  19.264   4.904   5.954 -0.1642  0.2872  0.0582
44448W        W53248  19.496   6.865   9.621  0.1105 -0.4124  0.2990
44449W        W53249   9.393   0.680  24.141  0.0851 -0.0107  0.1279
44450W        W53250   8.581   2.384   5.734 -0.0491  0.0260  0.1772
44451W        W53251  23.829   1.289   8.886  0.0386 -0.0214 -0.2036
44452W        W53252   2.322   1.848  23.987 -0.0604 -0.1726  0.0185
44453W        W53253   1.815   7.185  22.821  0.3021  0.1964  0.2022
44454W        W53254  14.475   7.446   8.612 -0.0542 -0.1119  0.2189
44455W        W53255  21.805   2.415  22.164 -0.0317 -0.3021 -0.0938
44456W        W53256  22.871   5.397  25.985  0.4062 -0.1434 -0.2008
44457W        W53257   1.382   2.251  10.222  0.1572 -0.1693 -0.3029
44458W        W53258  11.774   3.558  26.718  0.2604  0.1060  0.1021
44459W        W53259  24.957   1.813  17.013  0.0748 -0.2018 -0.1950
44460W        W53260  22.617   4.640   3.542  0.1567  0.0734  0.0553
44461W        W53261  10.441   0.973  30.410 -0.0925 -0.1603 -0.1214
44462W        W53262  18.207   7.653  32.489  0.0331  0.1917 -0.0645
44463W        W53263  10.773   4.061   8.545  0.0813  0.0945  0.1640
44464W        W53264  14.333   7.477  21.000 -0.0488  0.1228  0.1445
44465W        W53265   7.658   2.001  18.372 -0.0499  0.2129 -0.2688
44466W        W53266  14.230   2.102  28.064 -0.2644 -0.2437 -0.2889
44467W        W53267   6.216   4.826   9.702 -0.1071  0.2716 -0.0937
44468W        W53268   1.538   5.052   2.467  0.2126  0.1438 -0.1579
44469W        W53269  17.822   1.361  18.022  0.0159  0.1734 -0.1049
44470W        W53270  14.101   3.327   9.299  0.1419 -0.1768 -0.0126
44471W        W53271   4.392   2.190   7.571 -0.0998 -0.2020  0.1217
44472W        W53272  14.084   4.039   6.840  0.2491 -0.1433  0.1062
44473W        W53273   4.430   0.761   1.822 -0.0339  0.0667 -0.0660
44474W        W53274  19.636   2.470  20.757  0.3077 -0.3823 -0.0700
44475W        W53275   9.969   6.148  28.442  0.2983  0.0566 -0.1554
44476W        W53276  21.183   3.200  26.352 -0.4410  0.0930 -0.1526
44477W        W53277  11.101   2.447  16.096 -0.1093  0.1077 -0.1535
44478W        W53278  15.122   1.375  25.881 -0.2582  0.2085 -0.2548
44479W        W53279   1.234   3.502  22.501 -0.2930  0.0717 -0.1522
44480W        W53280  13.053   5.582   4.679  0.0952 -0.0658  0.0081
44481W        W53281   8.977   0.241  26.523  0.2560  0.1293  0.1673
44482W        W53282  22.398   5.751  31.171  0.2273  0.0868 -0.1379
44483W        W53283   5.170   3.173  13.655  0.0450  0.0230  0.1048
44484W        W53284  23.957   3.906   4.775  0.1592 -0.0605  0.1273
44485W        W53285  15.319   0.025   4.609  0.0499  0.0203  0.1449
44486W        W53286   8.334   2.511   1.883 -0.0046 -0.1373 -0.1544
44487W        W53287  14.904   4.484  24.581  0.1229 -0.1976  0.1154
44488W        W53288  16.514   0.043   7.708  0.4858 -0.2619 -0.0146
44489W        W53289  18.483   1.587  31.586 -0.1561 -0.1261  0.2144
44490W        W53290   3.519   1.805  26.024 -0.2195 -0.2286  0.1919
44491W        W53291   4.886   6.951   9.979  0.0480  0.0825 -0.0570
44492W        W53292   5.061   4.988  14.141  0.1266  0.3341 -0.3893
44493W        W53293  11.787   0.323  29.602 -0.0093  0.0949  0.0840
44494W        W53294  18.315   5.681  17.079  0.0612  0.2122 -0.1015
44495W        W53295  10.300   0.565  18.038 -0.1291 -0.0623  0.1072
44496W        W53296  17.990   3.804  29.267 -0.0950  0.0193 -0.1151
44497W        W53297  20.703   5.898   0.518 -0.1720  0.0088 -0.2966
44498W        W53298  13.178   3.867  27.338  0.3165  0.1126  0.3268
44499W        W53299   8.657   0.621   0.184 -0.2588  0.0813 -0.0810
44500W        W53300   6.609   3.865  10.700  0.1355  0.2813  0.1489
44501W        W53301  10.256   1.936   3.058  0.0512 -0.0818 -0.1988
44502W        W53302  18.727   1.741  24.690  0.0032 -0.3875 -0.0968
44503W        W53303   4.677   3.781   8.034  0.1364  0.0075  0.4745
44504W        W53304   1.778   2.854   2.240  0.0664 -0.1261  0.0622
44505W        W53305   5.932   6.954  25.570 -0.0675  0.0244 -0.1162
44506W        W53306   5.630   3.196   0.527 -0.2520 -0.0354 -0.1238
44507W        W53307  11.873   1.843   4.806  0.4200  0.2003 -0.0084
44508W        W53308  14.232   2.984  30.463  0.1333  0.0843  0.1680
44509W        W53309   4.591   4.608  11.716 -0.2863 -0.2537 -0.0568
44510W        W53310  14.011   6.619   7.808  0.0457 -0.4832 -0.1651
44511W        W53311   7.521   3.602   2.407 -0.2024 -0.1007 -0.2517
44512W        W53312  10.207   4.259  16.088 -0.3143 -0.1734 -0.3294
44513W        W53313  24.166   0.399  27.022 -0.1043  0.0934 -0.0417
44514W        W53314  20.159   6.286  14.973  0.0371 -0.1112  0.0413
44515W        W53315   5.685   6.052  16.110 -0.2171 -0.3268  0.1906
44516W        W53316  16.373   7.658   3.345 -0.0837 -0.0939 -0.2806
44517W        W53317   0.047   7.501   2.014 -0.1778  0.0785  0.3075
44518W        W53318   7.802   1.087  27.515 -0.0173  0.0710  0.4182
44519W        W53319   8.256   2.983  10.720 -0.2294  0.0295 -0.1160
44520W        W53320  10.430   4.272  27.509  0.0516  0.2282  0.2969
44521W        W53321  20.728   5.913   1.118  0.1470 -0.1525  0.0217
44522W        W53322  15.422   3.851  12.232 -0.1537 -0.1857  0.0482
44523W        W53323   1.097   6.140  25.537 -0.0351  0.2776  0.0728
44524W        W53324   6.960   3.614  10.396 -0.2989  0.1353  0.0944
44525W        W53325  23.121   0.026   8.277  0.0813  0.1856  0.0722
44526W        W53326   4.440   6.157   3.924 -0.0018 -0.1145  0.1362
44527W        W53327   3.205   5.991  28.793 -0.2044 -0.2359 -0.1777
44528W        W53328  19.870   0.481  22.982 -0.0998  0.2219 -0.2181
44529W        W53329  24.077   0.934   7.070  0.1337  0.2690  0.1537
44530W        W53330  11.735   5.486  24.065 -0.0773 -0.0959 -0.2121
44531W        W53331  17.032   3.426   8.774 -0.0169  0.1769  0.2763
44532W        W53332  15.676   6.210  19.853 -0.0451  0.3215 -0.3457
44533W        W53333   1.933   5.022   7.773  0.0017  0.2422 -0.0473
44534W        W53334  10.163   4.441  32.253 -0.0941 -0.2844  0.0765
44535W        W53335   4.905   3.298   3.778 -0.0718  0.0418  0.1573
44536W        W53336  22.842   3.382  22.171 -0.0692  0.3476 -0.0380
44537W        W53337   1.160   0.517  23.341  0.1978 -0.2046 -0.1591
44538W        W53338  17.670   7.068   0.394  0.2793 -0.3662  0.0938
44539W        W53339  13.878   6.012  14.738 -0.0408  0.2040  0.1085
44540W        W53340  12.504   5.294  28.325  0.1073 -0.0185 -0.0118
44541W        W53341  11.033   6.352  14.710  0.1502 -0.2715 -0.3148
44542W        W53342  23.622   6.062  27.975  0.0520 -0.0143 -0.3404
44543W        W53343   7.150   0.799  29.449  0.1987 -0.1738 -0.2191
44544W        W53344   4.680   2.115   1.372 -0.1016  0.0343 -0.1979
44545W        W53345  20.548   6.901  30.982 -0.0714  0.0887  0.2479
44546W        W53346   7.248   7.316  30.061 -0.1424 -0.2148 -0.0860
44547W        W53347   9.365   0.964   2.117  0.4682  0.1245 -0.3523
44548W        W53348  22.425   3.491   5.004  0.2956 -0.0444  0.1876
44549W        W53349  16.947   6.810   1.599 -0.2843 -0.0467 -0.0861
44550W        W53350   0.943   6.147  27.707  0.3254 -0.0545 -0.1539
44551W        W53351  18.869   0.735  23.737  0.2191  0.1398 -0.3463
44552W        W53352  20.554   1.500   7.625  0.0524  0.1532  0.1365
44553W        W53353   0.787   2.744  21.308  0.0473  0.2174 -0.1311
44554W        W53354  18.423   0.267   2.532  0.0348  0.1494  0.0334
44555W        W53355   5.688   5.711  31.618 -0.0678 -0.2696 -0.1342
44556W        W53356   3.700   5.328  26.208  0.1076 -0.1946  0.2551
44557W        W53357   2.445   0.583  25.463 -0.0851 -0.0046  0.0529
44558W        W53358   4.868   5.003   1.147  0.2085  0.0801 -0.0027
44559W        W53359   4.267   4.004   8.279 -0.3710  0.2553  0.1766
44560W        W53360   2.142   1.531  24.760  0.0401  0.0479  0.0448
44561W        W53361   3.646   2.968  25.406 -0.2994  0.0380 -0.0468
44562W        W53362  10.448   0.298   4.981 -0.0095 -0.1471 -0.1958
44563W        W53363  22.211   2.037  20.297 -0.0496 -0.3245 -0.1643
44564W        W53364  17.959   6.027   8.796  0.1950 -0.0695 -0.0369
44565W        W53365  21.765   2.052  25.570  0.1566  0.0393  0.2490
44566W        W53366   1.908   0.027  23.854  0.0907 -0.1534  0.0897
44567W        W53367   6.337   2.383  31.297  0.0889 -0.2864  0.3802
44568W        W53368  17.452   0.917  26.913  0.2096  0.0549 -0.0809
44569W        W53369   4.600   6.226  26.855 -0.1010  0.2220 -0.2146
44570W        W53370  14.647   4.014   6.954 -0.1206  0.0580  0.1505
44571W        W53371  19.227   3.396  17.354  0.0267 -0.1352 -0.2349
44572W        W53372  13.774   1.731   2.625  0.0897  0.0071 -0.1277
44573W        W53373  18.526   0.916  23.439  0.3352 -0.1738  0.0674
44574W        W53374  10.246   6.828  26.232 -0.1443  0.0413  0.0985
44575W        W53375  13.827   6.398  14.285 -0.2028  0.0553  0.1354
44576W        W53376  18.515   1.287   4.563 -0.2151  0.2079 -0.1488
44577W        W53377  10.532   5.256  11.052 -0.2124 -0.0213 -0.1201
44578W        W53378  22.645   7.622  20.565 -0.0558  0.1376 -0.1554
44579W        W53379  20.900   6.632  20.369 -0.0614  0.1484  0.2114
44580W        W53380   6.076   3.256  22.826  0.1150  0.0033  0.2059
44581W        W53381  17.130   5.864  27.482  0.1233 -0.1589 -0.1047
44582W        W53382   5.475   7.058  13.399  0.0953  0.1551  0.1667
44583W        W53383   0.988   4.743   4.178 -0.0925 -0.1882  0.0815
44584W        W53384  22.334   2.418  25.200  0.0633  0.3650  0.0614
44585W        W53385   5.166   4.149  13.871 -0.1687 -0.0818  0.0394
44586W        W53386  15.350   1.577  27.767  0.0901 -0.0825 -0.0765
44587W        W53387  19.484   6.575  30.736  0.0103 -0.0348  0.1714
44588W        W53388  19.657   1.030  18.303 -0.1273 -0.1562 -0.2747
44589W        W53389  16.165   7.798   2.831  0.1040 -0.0739 -0.1165
44590W        W53390  24.769   1.083  26.781  0.2238 -0.1692 -0.4152
44591W        W53391  19.671   5.030  24.716  0.1038  0.1017  0.0283
44592W        W53392  21.897   5.346  25.732 -0.0903  0.4210  0.3721
44593W        W53393   3.395   3.258   6.799 -0.1498 -0.0587 -0.4750
44594W        W53394   0.721   0.857   0.071  0.3264  0.3238  0.2279
44595W        W53395  22.193   2.266   1.494 -0.0099  0.0621  0.3101
44596W        W53396  10.274   2.439  11.117  0.4430 -0.0249 -0.0976
44597W        W53397  14.668   1.352   0.602 -0.1521  0.0360  0.0975
44598W        W53398   3.920   7.108  27.147 -0.1210  0.1040  0.1089
44599W        W53399  18.128   3.213  31.076 -0.0332  0.1924 -0.1107
44600W        W53400  18.885   4.434  26.754  0.0219  0.0183 -0.0529
44601W        W53401  23.376   6.909  14.882 -0.2651 -0.0444 -0.0028
44602W        W53402  24.358   1.095  32.396 -0.2863 -0.2282 -0.4203
44603W        W53403  14.654   1.859   5.398  0.1700 -0.2596  0.0843
44604W        W53404   0.775   4.638  11.249  0.1027  0.0609 -0.0464
44605W        W53405  21.456   6.950  25.527 -0.0432 -0.2233  0.1066
44606W        W53406  20.023   2.449  31.399 -0.3989 -0.0411  0.1348
44607W        W53407  22.620   3.936   9.590  0.1931 -0.2404  0.1464
44608W        W53408  15.708   1.556   6.159 -0.2185 -0.0799 -0.0171
44609W        W53409  18.578   2.037  17.923 -0.2266  0.0053 -0.1522
44610W        W53410   0.093   5.997  11.424  0.0896 -0.1053 -0.1412
44611W        W53411  17.973   2.442  29.409  0.1068  0.0431  0.1138
44612W        W53412  14.922   3.950  12.237 -0.2020 -0.0215 -0.2797
44613W        W53413  24.222   1.313   0.894 -0.1874  0.0064 -0.0883
44614W        W53414   5.027   7.017  28.528 -0.1087 -0.0164  0.0469
44615W        W53415   8.169   0.012  23.414 -0.1472 -0.0727  0.1149
44616W        W53416   1.236   5.975  18.716  0.0507  0.0827  0.1057
44617W        W53417  12.231   4.056  30.263 -0.1981 -0.0691  0.1503
44618W        W53418  11.607   4.058  10.273 -0.2676  0.1838  0.2107
44619W        W53419  22.917   3.880  14.995  0.1514  0.1331 -0.0220
44620W        W53420  20.799   6.542  23.600 -0.1616  0.0032  0.0434
44621W        W53421  19.283   6.119   2.969 -0.1224 -0.0391 -0.0326
44622W        W53422  21.551   1.670  30.381 -0.0891 -0.0720 -0.0501
44623W        W53423  17.316   5.633  26.626  0.0260 -0.2015  0.3158
44624W        W53424  12.838   5.294  11.278 -0.1227 -0.1541 -0.1652
44625W        W53425  20.887   6.655  22.648  0.0213  0.1540 -0.3240
44626W        W53426   1.743   1.492   0.712  0.0212 -0.2414  0.3366
44627W        W53427  19.663   4.344  14.692 -0.0309  0.0294 -0.0830
44628W        W53428  20.984   1.205  21.201 -0.2723  0.3717 -0.1347
44629W        W53429  24.092   1.883  32.438  0.1382 -0.0282  0.2059
44630W        W53430   2.638   3.761  22.860  0.0340 -0.2561  0.3834
44631W        W53431  14.293   3.739  27.668 -0.2678 -0.0909 -0.0898
44632W        W53432  13.552   2.034   4.861 -0.0678  0.0336  0.0299
44633W        W53433  11.396   4.381  15.559 -0.1302 -0.1307  0.0582
44634W        W53434   7.196   1.108  28.984  0.1119  0.0748  0.1192
44635W        W53435   1.775   6.454  11.774  0.3691  0.2784  0.0561
44636W        W53436  21.830   6.024  23.987  0.0691 -0.0224  0.0438
44637W        W53437   6.913   4.687   7.505  0.1071 -0.1221 -0.0275
44638W        W53438  18.819   0.254   1.597  0.1576 -0.0907 -0.3257
44639W        W53439  17.912   2.585  31.541 -0.0916 -0.1345 -0.3880
44640W        W53440  21.962   3.743  28.834 -0.1742  0.2323  0.0690
44641W        W53441  16.840   0.998  28.867  0.1185  0.2944  0.2396
44642W        W53442   3.982   0.558   4.436 -0.1813 -0.0824  0.2098
44643W        W53443  10.358   7.114  27.220 -0.1085  0.2070  0.0571
44644W        W53444   2.960   2.790   6.187 -0.0929  0.1002 -0.3514
44645W        W53445  19.573   5.029  23.424 -0.0789 -0.3124  0.1219
44646W        W53446   2.514   5.589  22.120 -0.2198 -0.1581  0.0857
44647W        W53447  21.129   0.172  18.672  0.1607  0.1480 -0.1040
44648W        W53448   4.064   4.256  11.867  0.0276 -0.0430  0.1204
44649W        W53449  16.353   5.182   3.965 -0.1871  0.0765  0.1883
44650W        W53450   9.203   2.274   5.487  0.3157 -0.0227 -0.1659
44651W        W53451   1.928   2.125  30.006  0.0006  0.0709 -0.3174
44652W        W53452   5.568   4.028  22.980 -0.2836  0.2148 -0.0973
44653W        W53453   9.305   3.516  30.928 -0.0539  0.3276 -0.1896
44654W        W53454  21.277   2.219  24.538  0.0864  0.0482  0.0956
44655W        W53455   5.554   1.332  27.206 -0.0358  0.1083  0.1450
44656W        W53456   5.973   1.990   2.538  0.0846  0.1580 -0.3496
44657W        W53457   5.976   5.052  16.461 -0.0347 -0.0678 -0.0844
44658W        W53458   3.001   6.387  28.457  0.0909 -0.1268  0.0638
44659W        W53459   8.537   1.714  10.310  0.0730  0.2991 -0.1793
44660W        W53460  13.580   4.753  22.459  0.0263 -0.0626 -0.2017
44661W        W53461  10.259   2.131  22.794  0.0415  0.0630  0.2148
44662W        W53462  23.014   3.835   6.027  0.1266 -0.0951  0.0349
44663W        W53463   7.032   7.633  27.084 -0.0996 -0.1139 -0.1473
44664W        W53464  21.230   1.348  25.069  0.2206  0.1776 -0.1972
44665W        W53465   2.793   4.095  23.409 -0.0662  0.0212 -0.2753
44666W        W53466   8.868   5.972  24.830  0.1173  0.0409 -0.2791
44667W        W53467  13.548   3.807  29.206 -0.1738  0.1089  0.0105
44668W        W53468  11.951   7.383   5.601  0.0715  0.0972  0.1507
44669W        W53469  16.567   5.226   7.109  0.0757 -0.0920 -0.1685
44670W        W53470  10.656   5.746   0.877  0.0629  0.0345  0.0100
44671W        W53471  12.692   5.078   2.252 -0.2918 -0.3410 -0.1027
44672W        W53472   2.239   0.329  26.082 -0.1327 -0.2493  0.1683
44673W        W53473   7.262   6.094   2.863  0.0368 -0.3126 -0.1790
44674W        W53474  12.872   2.093  25.852  0.1718  0.1650  0.1840
44675W        W53475  16.259   6.913   2.688 -0.3589  0.0438 -0.1523
44676W        W53476   4.181   2.173  23.851 -0.1380  0.3978 -0.1216
44677W        W53477  17.922   7.744   3.021 -0.4234 -0.2711 -0.2053
44678W        W53478  16.276   4.122  26.145  0.1018  0.0093  0.0211
44679W        W53479  23.393   7.567  23.204 -0.1741 -0.0284  0.2506
44680W        W53480  22.532   7.690   1.692 -0.2773  0.0826 -0.1162
44681W        W53481  21.451   7.409   3.842 -0.0848  0.2047  0.0520
44682W        W53482   3.532   3.133   9.227  0.2844  0.3455  0.2312
44683W        W53483  12.713   1.051  11.182 -0.2118 -0.0546  0.2385
44684W        W53484  15.020   6.402  20.526  0.1531 -0.0690  0.2871
44685W        W53485   7.529   2.598  15.464 -0.0058  0.0958 -0.0791
44686W        W53486   4.967   6.753   3.554  0.0243  0.2156  0.0713
44687W        W53487  12.008   1.751  23.522 -0.2383 -0.2030  0.1102
44688W        W53488  23.911   6.324  17.028  0.0307 -0.3056 -0.3548
44689W        W53489   9.204   1.768  18.848  0.1726 -0.3410  0.1330
44690W        W53490   8.547   2.236  29.425 -0.1328 -0.1728  0.0476
44691W        W53491  12.639   1.704   9.077 -0.1582 -0.2377 -0.0688
44692W        W53492   4.399   0.202  25.438 -0.1522 -0.3330 -0.0407
44693W        W53493  14.925   5.074   1.380 -0.0629 -0.0589  0.0820
44694W        W53494  21.409   3.991  16.148 -0.3547 -0.1182  0.2608
44695W        W53495   4.112   1.403  11.123 -0.0095  0.2702  0.0550
44696W        W53496   1.433   3.938  25.904  0.0389  0.2431 -0.0238
44697W        W53497  16.475   3.358  19.190 -0.0716 -0.1152  0.0826
44698W        W53498  22.359   1.229   3.071 -0.1061  0.0813 -0.0508
44699W        W53499  17.989   2.952   7.433 -0.1853 -0.0656 -0.2315
44700W        W53500  10.027   0.526   4.838 -0.0801 -0.0757 -0.0148
44701W        W53501   7.784   7.593  12.697  0.0868 -0.0016 -0.1950
44702W        W53502  23.961   7.443  10.648 -0.2288 -0.3452  0.1394
44703W        W53503   6.282   2.360   4.046  0.0443  0.0666  0.0717
44704W        W53504   6.547   3.045  12.227 -0.1622  0.0881  0.1371
44705W        W53505  20.081   4.809   4.546  0.0160 -0.0944 -0.1960
44706W        W53506  12.821   7.348   0.486 -0.0311  0.1432  0.2952
44707W        W53507  21.609   5.855   0.704 -0.0900 -0.0216  0.1445
44708W        W53508   7.568   6.958  14.530  0.0734 -0.0211  0.0146
44709W        W53509  17.448   0.899  22.361  0.0714  0.1796 -0.0584
44710W        W53510   0.876   1.985  11.720 -0.1897 -0.1251 -0.2943
44711W        W53511   4.213   3.142  27.039 -0.1253  0.2823 -0.0002
44712W        W53512  21.795   6.755  27.844 -0.0171 -0.1744  0.1837
44713W        W53513  21.054   2.612   8.631  0.0789 -0.0594  0.1240
44714W        W53514   2.876   3.323   0.602 -0.1053 -0.0873  0.1245
44715W        W53515  13.368   2.557  32.308  0.2113 -0.0482  0.1076
44716W        W53516   6.671   5.269  29.229 -0.3342  0.0998 -0.1949
44717W        W53517  24.868   4.652  16.524  0.2970  0.0312 -0.0191
44718W        W53518  18.485   7.084  30.883 -0.1529 -0.0965 -0.1123
44719W        W53519   9.351   1.906  13.322  0.1098  0.2449 -0.2712
44720W        W53520  20.261   1.937   1.913  0.0907  0.0160 -0.0421
44721W        W53521  10.314   5.212  10.007 -0.1986 -0.1231 -0.0792
44722W        W53522  12.306   7.780   2.600  0.1358  0.0040 -0.4529
44723W        W53523  22.060   5.954  21.955 -0.0086 -0.2048  0.0402
44724W        W53524  13.587   7.026  23.996  0.0009  0.1992  0.1089
44725W        W53525  19.359   5.445  20.701 -0.1447 -0.0968  0.3087
44726W        W53526   5.837   4.408  11.941 -0.2137  0.0925 -0.1605
44727W        W53527  15.462   4.668  29.497  0.0171 -0.0654  0.1917
44728W        W53528  21.464   3.694  21.750  0.2522 -0.1459  0.3106
44729W        W53529  17.503   6.047  22.452 -0.0069  0.1415 -0.2987
44730W        W53530   4.686   0.243  31.238 -0.3098 -0.2818 -0.1170
44731W        W53531  12.030   2.058  13.522 -0.2434  0.0496  0.1502
44732W        W53532   7.370   1.052  11.479 -0.2182 -0.0281 -0.0360
44733W        W53533   2.872   1.815  30.820 -0.0495  0.3072  0.0034
44734W        W53534  12.617   4.776   9.696  0.1870  0.0844  0.2589
44735W        W53535  11.861   2.443  31.968  0.1397 -0.0514  0.2706
44736W        W53536  23.685   6.115   9.061  0.3146 -0.0339 -0.0701
44737W        W53537   2.247   3.186  27.645 -0.2999 -0.0991 -0.1052
44738W        W53538   5.100   6.268  27.659 -0.2447 -0.1702 -0.4871
44739W        W53539   9.192   1.850  11.663 -0.1957  0.1749  0.1513
44740W        W53540  22.921   3.259  29.104  0.0605  0.0690 -0.0075
44741W        W53541   9.428   3.538  22.877  0.3155  0.1171  0.1858
44742W        W53542  20.150   3.504  31.499  0.1922  0.0616 -0.0516
44743W        W53543  10.874   2.583   7.249 -0.2909 -0.0936 -0.0537
44744W        W53544   1.905   5.250   8.211  0.0279 -0.1254  0.1046
44745W        W53545  20.980   7.511  23.565 -0.0426  0.0670  0.2469
44746W        W53546   8.254   1.678  32.651 -0.0402  0.2010  0.0709
44747W        W53547  16.774   6.767  10.188  0.0163 -0.0136  0.0166
44748W        W53548   7.376   7.370   3.799 -0.0458 -0.4166  0.2918
44749W        W53549   6.270   7.062  28.792 -0.1436 -0.0197  0.1191
44750W        W53550  18.896   7.144   3.765 -0.2202 -0.0447  0.0214
44751W        W53551  12.612   4.415   8.683  0.1208  0.3631 -0.2143
44752W        W53552  21.047   6.652   5.914  0.0957  0.1358 -0.1861
44753W        W53553  19.422   3.185   9.462  0.0632  0.2882  0.1762
44754W        W53554   4.130   0.859  31.660 -0.2157 -0.0842  0.0785
44755W        W53555   6.246   1.487   3.964  0.2618  0.0793  0.1248
44756W        W53556  20.136   1.864  29.293 -0.1697 -0.1165  0.3722
44757W        W53557  13.093   6.770   1.245 -0.0164  0.3310 -0.0372
44758W        W53558  16.808   4.937   3.634  0.0349  0.2031  0.1564
44759W        W53559  13.546   1.477   3.015  0.3516 -0.0629  0.1895
44760W        W53560   0.040   7.608  24.689  0.1110 -0.0631  0.2487
44761W        W53561   5.566   6.072  22.241 -0.1774  0.0255  0.0750
44762W        W53562  13.319   4.133   4.944 -0.1871 -0.3528  0.3157
44763W        W53563   5.441   7.570  23.115  0.2365 -0.1875 -0.0911
44764W        W53564  21.534   5.161  26.509 -0.2634 -0.1427 -0.0857
44765W        W53565  11.158   3.420  11.959 -0.0382  0.2754 -0.0941
44766W        W53566   4.591   2.341   0.852  0.0849  0.3353  0.3497
44767W        W53567  22.979   5.485  25.469 -0.1132 -0.0264 -0.1959
44768W        W53568   5.750   2.842  11.649 -0.0932  0.1442 -0.0494
44769W        W53569   2.111   1.135  21.555  0.0835 -0.1721 -0.4191
44770W        W53570  10.274   0.728   0.882 -0.0099  0.0288 -0.5827
44771W        W53571  22.531   5.076  28.620  0.0106 -0.0436 -0.0736
44772W        W53572  23.279   0.855  24.059 -0.1901  0.0222  0.0978
44773W        W53573  19.379   3.914  25.622  0.3562 -0.0598  0.0066
44774W        W53574  14.973   6.443  25.666  0.2434  0.1343  0.1782
44775W        W53575  12.253   2.448  11.714  0.0016  0.3075 -0.0856
44776W        W53576   1.505   2.971  20.712  0.0767  0.0702  0.0256
44777W        W53577  14.424   4.472  11.640 -0.1305 -0.0535  0.1889
44778W        W53578   0.045   2.792  32.470  0.1321  0.1129 -0.0658
44779W        W53579   2.147   6.914  30.023 -0.0661  0.1582  0.1013
44780W        W53580  10.085   3.954  29.096 -0.0840 -0.0461 -0.2140
44781W        W53581  20.252   7.403  24.271  0.0351 -0.1185 -0.1596
44782W        W53582  17.344   5.845  10.449 -0.1574 -0.1249 -0.0614
44783W        W53583   0.181   3.879  22.887 -0.0239 -0.0243 -0.3275
44784W        W53584  16.574   3.312   2.501  0.0141  0.0409  0.0071
44785W        W53585   9.579   2.402   5.134 -0.2636 -0.3051 -0.0532
44786W        W53586   8.455   5.948  11.549 -0.1942  0.1788  0.0606
44787W        W53587   8.332   5.181  28.597 -0.0406  0.1787  0.1026
44788W        W53588  21.555   5.375  26.055 -0.0785  0.2227  0.0957
44789W        W53589  22.554   0.116  28.314  0.0891  0.1072  0.2168
44790W        W53590  22.099   1.269  18.647 -0.0299 -0.2045 -0.3380
44791W        W53591   6.352   4.558   7.744  0.1069  0.3680 -0.2915
44792W        W53592  13.323   7.343  23.676 -0.2131  0.0808 -0.0412
44793W        W53593  21.571   2.645  16.613  0.1232 -0.1385 -0.0036
44794W        W53594  14.253   6.339  25.152  0.1210 -0.0101 -0.1067
44795W        W53595  16.596   7.659  31.187 -0.0206  0.2527 -0.4886
44796W        W53596  12.726   5.288  25.414 -0.0202  0.0532  0.2052
44797W        W53597   6.134   6.599  13.387  0.1140 -0.2011 -0.1253
44798W        W53598  12.146   4.769   4.422 -0.2144 -0.0783  0.2844
44799W        W53599  23.114   6.645  31.294 -0.0112 -0.0923 -0.0156
44800W        W53600   0.339   2.326  23.856  0.3205  0.0549  0.0027
44801W        W53601  20.587   3.684  17.326 -0.1921  0.2467 -0.1424
44802W        W53602   0.140   1.709  21.377  0.0535 -0.2341  0.1991
44803W        W53603  12.395   2.814   4.629 -0.2402  0.0049  0.4897
44804W        W53604  19.659   5.572   8.655 -0.1488 -0.0111  0.5241
44805W        W53605   2.751   6.213   5.781 -0.0978 -0.3250 -0.0195
44806W        W53606  17.841   7.349  32.334  0.0998  0.0087  0.0071
44807W        W53607  15.677   6.531   6.898 -0.0938 -0.1354 -0.2818
44808W        W53608   7.566   4.740  26.557 -0.0793  0.0818  0.1208
44809W        W53609   6.217   1.932  32.608 -0.0995  0.0392 -0.0702
44810W        W53610   4.427   7.289   6.354 -0.3076 -0.2062  0.0484
44811W        W53611  15.041   3.044  19.655 -0.0171 -0.0499 -0.1574
44812W        W53612   9.639   1.921  26.157 -0.0002 -0.0478  0.2205
44813W        W53613  13.372   0.620  21.122 -0.1754  0.2649 -0.3179
44814W        W53614  15.183   2.048  11.402 -0.1643  0.3075 -0.4587
44815W        W53615  18.141   6.740  31.177  0.1867 -0.1015  0.1497
44816W        W53616   4.990   6.596  24.814  0.1481  0.2961  0.1571
44817W        W53617  22.271   4.631  27.468  0.1373  0.0503  0.0182
44818W        W53618  14.358   1.143   6.763 -0.2083 -0.0742  0.0958
44819W        W53619  20.262   4.390   7.760  0.0127 -0.0020 -0.0600
44820W        W53620  20.732   7.175  23.118 -0.0107  0.0220  0.5711
44821W        W53621   2.262   6.355   1.434 -0.0175 -0.0334 -0.1466
44822W        W53622   1.250   4.459  18.979 -0.1713  0.0086 -0.2067
44823W        W53623   5.178   0.682   1.102  0.3174  0.2003 -0.0233
44824W        W53624  13.173   7.643  29.486 -0.1855  0.1503  0.1201
44825W        W53625  16.384   1.398  25.188  0.0880  0.1803  0.0371
44826W        W53626   3.030   2.390  31.947 -0.1490  0.0428  0.0926
44827W        W53627   8.254   0.739  17.577  0.0076 -0.0577 -0.1709
44828W        W53628  21.327   1.810  15.079 -0.0327 -0.0406 -0.3534
44829W        W53629  12.332   2.119  22.804 -0.2425  0.0696 -0.1216
44830W        W53630  18.331   0.517   9.774  0.0288 -0.0409  0.0358
44831W        W53631  14.276   4.596  30.009  0.1094  0.1045 -0.1149
44832W        W53632  24.809   7.712  21.147  0.1085 -0.0299 -0.1237
44833W        W53633   1.531   5.578   1.222 -0.0139  0.0632  0.1727
44834W        W53634   5.429   3.029  31.291  0.0556  0.1428 -0.1315
44835W        W53635   5.743   6.343   9.264  0.1567 -0.1647  0.2677
44836W        W53636  18.082   4.549  23.631  0.0912 -0.2211 -0.1366
44837W        W53637  14.993   3.960  32.485 -0.5425  0.0142  0.2966
44838W        W53638  15.119   2.794  10.938  0.0088  0.2309 -0.0010
44839W        W53639  21.936   4.149  14.467  0.1236 -0.2314 -0.0248
44840W        W53640   9.444   4.436  11.534 -0.0891 -0.1556 -0.1314
44841W        W53641  17.669   3.779   9.370 -0.0495  0.1442  0.0966
44842W        W53642   8.219   4.880   4.691 -0.1864 -0.0927  0.2944
44843W        W53643  16.988   6.340   5.081  0.2743  0.2202  0.1263
44844W        W53644  12.682   0.176  11.348 -0.0674  0.0704  0.0937
44845W        W53645   4.995   3.988  12.113 -0.2819  0.2445 -0.3288
44846W        W53646  22.345   4.672   6.588 -0.0609 -0.0426  0.0271
44847W        W53647   5.511   3.910  28.944 -0.0435  0.0186  0.0430
44848W        W53648   1.583   5.923  29.555  0.1945  0.0027 -0.0620
44849W        W53649  17.223   4.674   6.846  0.0474 -0.0429  0.1218
44850W        W53650  11.639   1.326  11.594 -0.2064  0.1504  0.0268
44851W        W53651   5.647   4.436  13.145  0.3867 -0.1462  0.3022
44852W        W53652  13.917   0.947   0.066 -0.0682 -0.1546  0.3919
44853W        W53653  10.420   4.495   3.584 -0.4741 -0.0386 -0.3164
44854W        W53654   2.670   2.795  32.656 -0.2034 -0.0421 -0.3579
44855W        W53655   6.253   0.560  29.632 -0.2284 -0.1582  0.0886
44856W        W53656   7.245   3.200  13.375  0.3878  0.0077 -0.0728
44857W        W53657  11.547   3.396   8.200 -0.3683 -0.3894  0.1851
44858W        W53658  23.178   1.102  19.546 -0.3003 -0.1378 -0.1152
44859W        W53659  18.191   4.161  18.457 -0.2160  0.0354  0.0166
44860W        W53660  23.277   5.974  23.255 -0.3463  0.1989 -0.0475
44861W        W53661  22.304   5.810  10.046  0.2193 -0.0171 -0.0300
44862W        W53662   1.723   5.586  25.970  0.1784  0.1332 -0.4983
44863W        W53663  14.875   2.179  22.823 -0.2020  0.2649  0.1711
44864W        W53664  13.056   3.117  21.954 -0.1911  0.2722  0.0231
44865W        W53665  18.380   0.593   0.400  0.2060  0.3162  0.1299
44866W        W53666  23.371   5.887   7.342  0.0156  0.1051 -0.0944
44867W        W53667   9.357   0.831   8.818 -0.2629  0.3172  0.1640
44868W        W53668   6.827   3.725  25.379  0.0099 -0.2421  0.0110
44869W        W53669   5.079   6.266   1.757  0.0160 -0.1415  0.2150
44870W        W53670   6.524   7.072   4.032  0.1052 -0.1199  0.0715
44871W        W53671   0.180   1.748  27.528  0.0971  0.2963 -0.2964
44872W        W53672  19.778   7.057   8.446 -0.1783 -0.1215  0.1233
44873W        W53673  23.425   5.542  19.703  0.1174 -0.1119 -0.1207
44874W        W53674  18.124   2.319  15.190 -0.2572  0.1669 -0.2314
44875W        W53675  18.915   1.891   9.451  0.0804  0.2227 -0.0980
44876W        W53676   5.045   3.671  31.684 -0.2298 -0.0154  0.0279
44877W        W53677  21.506   1.862   0.302  0.1476  0.1291 -0.2050
44878W        W53678   8.849   6.069  18.104  0.0880 -0.1529  0.1522
44879W        W53679  12.969   0.921   3.701  0.0750 -0.0894 -0.1141
44880W        W53680  17.181   0.068   2.537  0.1987  0.1647 -0.2022
44881W        W53681   9.177   3.627   0.473  0.0792  0.0938  0.1314
44882W        W53682  22.363   1.625  28.963 -0.1576 -0.1271 -0.0698
44883W        W53683  11.161   1.612   7.474  0.0562 -0.0675 -0.1750
44884W        W53684  11.533   5.815  26.983 -0.2838  0.0716  0.0078
44885W        W53685  12.810   3.370   6.575 -0.0739 -0.0168  0.3661
44886W        W53686  14.148   4.667  30.515  0.1364  0.0376  0.0240
44887W        W53687   8.894   1.185  26.027 -0.1184  0.1206 -0.2842
44888W        W53688   2.393   7.800   9.795 -0.3065  0.2000  0.0282
44889W        W53689  10.325   2.800  15.940 -0.0739 -0.0660 -0.0419
44890W        W53690   9.738   1.047   9.474 -0.1092  0.2218  0.0096
44891W        W53691   6.097   3.005  23.731  0.1051 -0.0065  0.2254
44892W        W53692   7.373   7.382   7.511 -0.1864  0.2785  0.0243
44893W        W53693  14.714   4.873  25.824  0.0409  0.1544  0.3197
44894W        W53694  22.577   0.225  16.877  0.1172 -0.0268 -0.2017
44895W        W53695   6.753   6.171   0.091  0.3500 -0.0490  0.0295
44896W        W53696  14.954   3.982  23.722  0.1365  0.1903  0.0125
44897W        W53697   3.321   7.437   1.747  0.0673 -0.1028  0.0419
44898W        W53698  17.046   3.121   4.724 -0.0913  0.0929  0.2972
44899W        W53699  10.973   4.896  29.630  0.1271 -0.2524 -0.0120
44900W        W53700  16.553   3.344   5.375 -0.0921  0.0553  0.2070
44901W        W53701   2.925   4.787  10.086 -0.1039 -0.0470 -0.1576
44902W        W53702  20.634   0.512  30.201  0.1218  0.2683  0.2501
44903W        W53703  24.244   6.285  15.695  0.0706  0.0613 -0.1653
44904W        W53704   9.917   5.807  15.314  0.1050  0.0098 -0.1051
44905W        W53705  21.476   0.144  32.589 -0.0648  0.0457  0.0085
44906W        W53706   8.994   7.552  26.530  0.3711 -0.3155 -0.3475
44907W        W53707  17.425   6.951  21.306 -0.0765  0.4555 -0.4946
44908W        W53708  16.975   5.663  28.570 -0.2888  0.0938 -0.2000
44909W        W53709  16.410   6.784  18.344 -0.1187  0.0937  0.0738
44910W        W53710   6.060   7.541  24.708 -0.1007  0.0663  0.1230
44911W        W53711  19.010   4.683  27.200  0.1826  0.0339 -0.1314
44912W        W53712   7.068   5.838   5.708 -0.0893  0.2139  0.0936
44913W        W53713  10.880   7.769  30.596  0.2561  0.0422  0.2114
44914W        W53714  23.306   2.914  16.234 -0.3695 -0.0892  0.1179
44915W        W53715  11.382   1.064   1.960 -0.1760  0.0851  0.1693
44916W        W53716  13.145   1.541  26.727 -0.0710  0.2623 -0.1667
44917W        W53717  10.383   4.997   3.810 -0.0872 -0.2756 -0.0166
44918W        W53718   1.773   6.110  31.785  0.0109 -0.2550  0.0482
44919W        W53719  12.381   5.783  22.044  0.1301 -0.1586  0.1125
44920W        W53720   7.008   7.763  24.230 -0.2658 -0.1348 -0.0980
44921W        W53721   9.193   6.634  25.620  0.1393 -0.1142  0.1221
44922W        W53722   7.274   1.491  12.210  0.2494 -0.1357 -0.2520
44923W        W53723  13.193   4.969   9.836 -0.0986  0.2495  0.1832
44924W        W53724  21.970   7.349  19.900  0.0030 -0.0167  0.3445
44925W        W53725   7.514   2.937  23.911 -0.1069  0.2148 -0.0947
44926W        W53726  11.742   2.631  25.471 -0.1502 -0.0116  0.2092
44927W        W53727  12.801   0.719  26.843  0.2095 -0.1750  0.0954
44928W        W53728  23.028   6.247   4.066 -0.0091  0.2074  0.0999
44929W        W53729   3.264   2.915  11.941 -0.3213 -0.0161  0.0164
44930W        W53730  17.270   1.155  21.956 -0.0675 -0.0204 -0.0584
44931W        W53731  16.897   6.849   9.720  0.0347  0.2204  0.0812
44932W        W53732  11.417   4.670  27.251 -0.2142 -0.0895 -0.3334
44933W        W53733   7.251   3.616  31.801  0.1388 -0.1589 -0.1698
44934W        W53734  21.151   0.153  17.981 -0.1111 -0.3255 -0.1232
44935W        W53735   5.103   1.246  12.038 -0.0754  0.0183 -0.2849
44936W        W53736   6.413   4.314   4.827  0.1263  0.1830  0.1594
44937W        W53737   8.746   1.664  11.787  0.0289 -0.2029  0.0110
44938W        W53738   2.749   1.659  13.711 -0.1369 -0.1582  0.1110
44939W        W53739  21.716   0.432  27.010 -0.1339  0.0017 -0.0861
44940W        W53740   8.558   5.502  11.977  0.2532  0.2689  0.1660
44941W        W53741  18.849   1.695  18.840 -0.0041  0.2015  0.0557
44942W        W53742  17.807   1.216  10.588  0.1693  0.1519  0.2898
44943W        W53743  10.067   5.935   1.594 -0.1279  0.3409 -0.0831
44944W        W53744   2.897   3.623   6.900 -0.0502  0.1024  0.1348
44945W        W53745   2.214   6.097  22.732 -0.1665  0.1398  0.2349
44946W        W53746  18.200   4.646  29.365  0.1153  0.0747  0.1598
44947W        W53747  21.796   1.256  21.926 -0.2997  0.1364 -0.2270
44948W        W53748   9.174   2.214   1.831 -0.0322 -0.1210 -0.0636
44949W        W53749  16.979   6.455  32.694  0.3085  0.1939 -0.1973
44950W        W53750   8.203   3.701  28.965 -0.0367 -0.1434 -0.0021
44951W        W53751   7.656   2.756  30.294  0.0697 -0.0651  0.2645
44952W        W53752  14.127   0.480  25.768  0.0035  0.0036 -0.0903
44953W        W53753  17.077   4.682  19.302 -0.0300 -0.1859 -0.0464
44954W        W53754  22.967   0.458  24.063  0.0757  0.0158 -0.0261
44955W        W53755  20.589   6.669  24.514 -0.1907 -0.2665 -0.0420
44956W        W53756   1.359   7.454  21.615 -0.2355 -0.3134  0.1749
44957W        W53757   5.184   2.912  31.740 -0.0545  0.2424  0.3109
44958W        W53758   9.571   7.274  10.273 -0.0342 -0.1741 -0.0178
44959W        W53759  14.606   0.474   7.474  0.0185 -0.0709 -0.2500
44960W        W53760  10.850   4.748   7.438 -0.0584 -0.0172  0.0712
44961W        W53761  24.532   5.301  18.621 -0.3097 -0.1583 -0.1832
44962W        W53762  10.946   7.444  24.191  0.1123  0.2733 -0.1136
44963W        W53763   1.936   1.310   4.828 -0.0452 -0.3202  0.2063
44964W        W53764   8.138   5.899  16.217  0.3594  0.1290  0.0648
44965W        W53765   2.845   3.746   1.470  0.1164 -0.1281  0.1480
44966W        W53766  20.458   1.183  32.551  0.1584 -0.0628  0.1191
44967W        W53767   3.760   4.443  10.120  0.1098  0.1471 -0.1413
44968W        W53768  14.896   6.887   3.235 -0.1012  0.0659  0.1264
44969W        W53769   2.571   0.628   5.689 -0.4425  0.2538  0.0043
44970W        W53770  15.409   6.939  31.139  0.1126 -0.2842 -0.1408
44971W        W53771  21.985   6.221   0.987 -0.1168  0.3223 -0.1705
44972W        W53772   4.067   0.464  27.416  0.2206  0.1545  0.1183
44973W        W53773  19.372   6.815   5.620  0.0996 -0.0799  0.0507
44974W        W53774   8.404   2.780  18.937 -0.1124 -0.0302 -0.0952
44975W        W53775  19.995   4.772  20.323 -0.2175 -0.3961 -0.1686
44976W        W53776  23.997   5.825   2.584 -0.4187 -0.0160 -0.1354
44977W        W53777   8.093   5.254  17.775  0.2034  0.0951 -0.0264
44978W        W53778  19.665   7.347  29.141  0.1765 -0.3089 -0.0582
44979W        W53779   1.907   2.489   3.286  0.2308  0.1427  0.0374
44980W        W53780  17.916   4.309  29.118  0.2210  0.1729 -0.0868
44981W        W53781   3.212   0.795  28.172  0.0266 -0.3363 -0.2188
44982W        W53782  18.354   3.533  17.926 -0.0234 -0.2157 -0.2286
44983W        W53783  22.479   4.812   6.131  0.5313 -0.0521  0.1544
44984W        W53784   1.686   5.817  20.057 -0.2020  0.1181  0.1171
44985W        W53785  12.124   0.116  31.155  0.2257 -0.0771 -0.3119
44986W        W53786  24.953   4.767  20.413 -0.1688  0.0199 -0.0707
44987W        W53787  24.042   7.354  32.573  0.0246 -0.0142 -0.1172
44988W        W53788   5.169   2.722  23.831  0.2997 -0.0714 -0.2967
44989W        W53789  16.728   0.638  18.493  0.0273  0.0858  0.0611
44990W        W53790   3.555   2.162  20.606  0.2432 -0.1348 -0.1834
44991W        W53791  20.082   4.980  23.687  0.0151 -0.0210 -0.2319
44992W        W53792   6.959   1.446  17.218 -0.0816 -0.0057 -0.0346
44993W        W53793   4.421   4.938   9.288 -0.4536 -0.1579 -0.2848
44994W        W53794   0.933   0.959  29.581 -0.2458  0.1537 -0.1668
44995W        W53795   4.164   2.477   6.066  0.1594 -0.0068 -0.3897
44996W        W53796  21.940   6.572  24.089  0.0302 -0.2178 -0.0856
44997W        W53797  10.013   4.808  26.042  0.0551  0.1598  0.3174
44998W        W53798  19.472   2.232   6.429 -0.3695 -0.1046 -0.0432
44999W        W53799  18.738   0.612   8.336 -0.5325 -0.0766  0.0942
45000W        W53800  21.908   7.664   3.321 -0.1512 -0.2738 -0.2078
45001W        W53801  20.777   3.932  15.158  0.2338  0.0460 -0.1071
45002W        W53802   8.990   0.831  12.593 -0.1417 -0.0501 -0.1697
45003W        W53803  15.058   6.855  11.611  0.0851  0.1355 -0.1587
45004W        W53804   4.567   1.277  21.638  0.0818 -0.0970  0.1600
45005W        W53805   6.771   1.028   5.018 -0.0153 -0.1060 -0.0234
45006W        W53806   1.932   3.167  20.516  0.1773 -0.2154 -0.2422
45007W        W53807  13.358   7.634   5.157 -0.1165  0.1537  0.0792
45008W        W53808  19.850   5.122  18.955  0.0411  0.3683  0.0076
45009W        W53809  21.931   3.540  31.520  0.0531 -0.1394 -0.1209
45010W        W53810  18.155   6.387   2.491 -0.0186 -0.0774 -0.0752
45011W        W53811  13.984   2.542   6.014 -0.2672  0.1729  0.1351
45012W        W53812  14.219   0.100   8.774  0.1290  0.2086 -0.0323
45013W        W53813   3.022   1.026   6.991  0.0743  0.1841  0.0849
45014W        W53814   1.157   0.855  22.418  0.2943  0.1621 -0.0767
45015W        W53815  18.863   2.883  20.349 -0.0015 -0.1195 -0.0457
45016W        W53816  13.425   2.198  25.948 -0.1453  0.1656 -0.2785
45017W        W53817  20.158   3.537   6.327 -0.0272 -0.3671  0.2767
45018W        W53818  10.550   7.679  25.741 -0.0909  0.0097 -0.1798
45019W        W53819  19.591   3.022  17.625  0.0545 -0.0012  0.2477
45020W        W53820   6.345   4.074   5.350  0.2484 -0.2139  0.0775
45021W        W53821   8.313   3.469  10.512  0.1623  0.0111 -0.1986
45022W        W53822  13.831   0.279  26.338  0.2399 -0.2778  0.1117
45023W        W53823  19.553   3.548  20.367  0.1348  0.1362 -0.3551
45024W        W53824  15.563   6.162   2.036 -0.1094 -0.2466 -0.0346
45025W        W53825  11.336   5.161  23.502  0.0418  0.2268  0.0301
45026W        W53826  11.415   2.473   3.688 -0.1066  0.1841  0.1674
45027W        W53827   1.301   0.728  32.079 -0.0625  0.2100 -0.0844
45028W        W53828  16.447   5.418  27.389  0.2234  0.1869 -0.1821
45029W        W53829  19.269   0.650  17.308  0.0470 -0.2559 -0.0684
45030W        W53830   9.593   3.102  24.758  0.1872  0.0765 -0.0593
45031W        W53831  13.877   4.840   0.412  0.2292  0.0879  0.1045
45032W        W53832  16.325   7.745  23.657  0.2447 -0.0256 -0.3546
45033W        W53833  13.821   6.159  31.558  0.2291 -0.0413  0.1576
45034W        W53834  14.063   4.372   3.929  0.0552  0.1359  0.0996
45035W        W53835  22.428   2.744  14.908  0.1884  0.1955  0.0291
45036W        W53836   5.797   1.096   3.878  0.0387 -0.0695  0.6000
45037W        W53837   7.163   7.027   6.517 -0.1117 -0.1273  0.2963
45038W        W53838  11.387   0.838  16.795 -0.0599  0.2279 -0.2801
45039W        W53839   4.259   0.060  10.740  0.1544 -0.2113 -0.1918
45040W        W53840   8.792   1.142  28.054 -0.0751 -0.0872  0.0113
45041W        W53841  18.271   0.363   1.621 -0.1840  0.0348 -0.1080
45042W        W53842  20.009   3.211   2.090 -0.1209 -0.2044 -0.0131
45043W        W53843  17.340   0.952  17.891  0.0902 -0.2283  0.2638
45044W        W53844   8.625   1.649  25.325  0.0856 -0.1800 -0.3995
45045W        W53845   5.873   6.164  30.380  0.2850 -0.3979  0.3717
45046W        W53846  13.924   4.331   0.409 -0.1037 -0.0503 -0.0907
45047W        W53847  18.763   1.998  28.388  0.2278 -0.2476 -0.0635
45048W        W53848  11.003   7.310  11.527 -0.0413  0.1314 -0.3683
45049W        W53849   2.109   4.215   7.684  0.1813 -0.0987 -0.2013
45050W        W53850  19.712   2.757  26.690  0.0744 -0.0694  0.0254
45051W        W53851  16.174   7.520  28.262  0.0635  0.0197  0.1065
45052W        W53852   2.356   5.400   6.603  0.1351  0.2098  0.0968
45053W        W53853  24.250   3.358  26.585 -0.3742 -0.0123 -0.0298
45054W        W53854  21.358   6.751  24.860  0.0193 -0.2335  0.1732
45055W        W53855  11.830   3.107  14.962 -0.0117  0.1749 -0.1479
45056W        W53856  21.613   5.011   6.121  0.2814 -0.0661  0.2319
45057W        W53857   6.647   1.086  16.795 -0.4279  0.1658 -0.0367
45058W        W53858  21.741   6.111   6.338  0.0892 -0.2572 -0.1112
45059W        W53859  19.192   5.757  31.016 -0.1377 -0.2904 -0.1373
45060W        W53860  19.168   4.177  23.155  0.0203 -0.1783  0.3869
45061W        W53861  13.902   3.205   3.029 -0.0046  0.1477  0.0038
45062W        W53862   6.798   3.727  27.078 -0.2328  0.1979 -0.2095
45063W        W53863  22.084   3.557  16.563 -0.0109 -0.2382 -0.1115
45064W        W53864  17.428   3.013  10.312  0.0122  0.0822 -0.0081
45065W        W53865  18.480   5.598  25.767 -0.3376  0.0808 -0.0427
45066W        W53866  18.044   0.398   7.664  0.0256 -0.1469  0.2452
45067W        W53867   7.858   2.902   7.617 -0.1896 -0.0173 -0.0612
45068W        W53868  13.329   4.633   1.353 -0.2694  0.4203 -0.0286
45069W        W53869  11.809   1.213  24.101 -0.1882 -0.0620 -0.0112
45070W        W53870   6.523   2.729   7.834 -0.1211 -0.2655 -0.0462
45071W        W53871   4.832   5.216   7.711  0.0363 -0.1021  0.0542
45072W        W53872   4.087   1.819   8.981 -0.0623  0.1730 -0.0658
45073W        W53873   4.887   2.678  28.946 -0.0771  0.2174  0.0350
45074W        W53874   1.051   6.459  31.615  0.0855  0.0611 -0.1761
45075W        W53875  15.457   7.685  21.513  0.0676  0.1377  0.2386
45076W        W53876  24.186   4.456  28.621  0.0051  0.0434 -0.0958
45077W        W53877  10.997   6.337   4.998 -0.2432 -0.2521  0.0427
45078W        W53878   2.752   1.086  10.748 -0.3893  0.0496  0.0892
45079W        W53879   1.418   5.637   6.763 -0.0072  0.1417 -0.2415
45080W        W53880  13.703   6.957   6.379 -0.0172 -0.0204  0.1602
45081W        W53881   8.726   3.492  13.972  0.0869  0.0383 -0.1340
45082W        W53882  23.556   0.834  19.288  0.0778 -0.2038 -0.2151
45083W        W53883   1.634   4.117  11.422  0.0564 -0.0823  0.2001
45084W        W53884   4.235   1.856   4.982  0.2141  0.1072  0.2686
45085W        W53885  15.504   5.210  25.149 -0.2364 -0.0183 -0.0511
45086W        W53886   9.365   4.425  27.461  0.1558  0.0012  0.0686
45087W        W53887   2.594   3.683   0.790 -0.0740  0.1329 -0.1244
45088W        W53888  21.335   7.048  21.797  0.2811  0.2044  0.0135
45089W        W53889  19.123   5.721  20.260  0.1375  0.0436 -0.0449
45090W        W53890   3.333   7.009  11.805 -0.1711 -0.0264  0.0309
45091W        W53891  17.977   5.412  28.330  0.2184 -0.0031  0.3322
45092W        W53892  17.595   0.158  10.009  0.0764  0.0174  0.0780
45093W        W53893  17.081   1.156  31.225  0.0955 -0.0116 -0.0337
45094W        W53894  24.404   1.778  30.010 -0.3907  0.1337  0.2095
45095W        W53895  15.150   4.275   4.074  0.4881 -0.3407  0.1098
45096W        W53896   8.289   4.388   7.353 -0.0529 -0.1154 -0.1970
45097W        W53897  15.987   6.309  20.890 -0.0536 -0.0681  0.0253
45098W        W53898  23.183   3.517  17.300  0.0116  0.0208  0.1562
45099W        W53899   0.179   7.429   4.156 -0.1072  0.0749  0.2259
45100W        W53900   8.108   4.472   1.746  0.0771  0.1910 -0.0848
45101W        W53901   5.552   3.082  32.086 -0.0711 -0.0355 -0.1900
45102W        W53902   2.227   0.183  28.676  0.0676 -0.3505  0.1618
45103W        W53903   7.515   3.843   7.798  0.2138 -0.1065 -0.1503
45104W        W53904   0.683   6.990  29.319 -0.0362 -0.0269 -0.1373
45105W        W53905  12.328   4.353   7.242 -0.0022 -0.2383 -0.1689
45106W        W53906   9.280   7.533  31.878 -0.2417 -0.0725  0.0229
45107W        W53907  19.446   0.326  17.682  0.3042 -0.2500  0.1136
45108W        W53908  16.166   6.334  30.194 -0.2146  0.1272 -0.1443
45109W        W53909  16.927   6.060   3.441 -0.2328  0.0633  0.0212
45110W        W53910  16.770   7.590  19.478 -0.5419  0.1121  0.0885
45111W        W53911  11.895   1.384   0.474  0.1706  0.0046  0.1945
45112W        W53912  24.184   5.446  30.932 -0.1632 -0.1632  0.1429
45113W        W53913  18.101   5.002   1.263  0.0460  0.2768  0.2641
45114W        W53914  20.184   5.709  29.874 -0.0461  0.1115 -0.0328
45115W        W53915  10.581   1.301   0.026 -0.0361 -0.0757  0.2642
45116W        W53916   8.203   6.257   1.207  0.1626  0.0349 -0.0213
45117W        W53917  24.206   5.053   3.096 -0.0852 -0.1712 -0.1768
45118W        W53918   7.945   1.887   5.302 -0.3587  0.2305  0.3072
45119W        W53919  16.768   2.911   1.547 -0.2890 -0.1437  0.1545
45120W        W53920  18.975   6.963   8.869 -0.0117  0.0908 -0.1474
45121W        W53921   4.853   6.016   5.508 -0.0044  0.0434  0.1034
45122W        W53922  22.221   7.280  20.313 -0.1381  0.1442  0.2940
45123W        W53923  14.734   3.099  23.993 -0.1121 -0.2304 -0.1219
45124W        W53924   1.443   5.330  28.785  0.1691  0.0389  0.0524
45125W        W53925   7.789   5.593  26.690 -0.2700  0.1926 -0.1040
45126W        W53926  13.035   6.757  25.677  0.3004  0.1476 -0.1402
45127W        W53927  21.959   4.687  15.136  0.0262  0.2149 -0.0701
45128W        W53928   9.691   5.762   2.943 -0.3381 -0.2309  0.4087
45129W        W53929  21.812   4.453  25.517 -0.0189  0.0551  0.1036
45130W        W53930  13.760   5.991   4.261 -0.0835  0.0545  0.1332
45131W        W53931   6.753   4.500   3.770  0.0600 -0.1158  0.0501
45132W        W53932  20.232   7.393  29.825  0.0530  0.1086  0.2240
45133W        W53933  11.591   5.884  16.005  0.0060  0.2477  0.0422
45134W        W53934  22.461   4.322   0.998 -0.0272  0.2852 -0.0117
45135W        W53935   1.481   2.743   7.686  0.0198  0.1853  0.2717
45136W        W53936  17.016   7.225  31.636  0.1468  0.0720  0.3327
45137W        W53937   1.901   2.009  20.009  0.1500  0.3492 -0.0372
45138W        W53938  21.265   1.825   4.590 -0.3452  0.1866  0.0084
45139W        W53939   8.176   3.235   9.483 -0.3539 -0.2655 -0.2613
45140W        W53940   8.406   2.203  13.657  0.1326 -0.2097  0.3031
45141W        W53941   3.304   7.465   3.866  0.0512 -0.0062  0.1020
45142W        W53942  16.230   7.542  22.415  0.1933 -0.0341  0.1132
45143W        W53943   8.145   2.839   4.237  0.1602  0.0645 -0.0991
45144W        W53944  21.357   1.556  18.162  0.1380  0.0882  0.0068
45145W        W53945  17.546   5.568  22.261 -0.1611  0.0729 -0.0152
45146W        W53946   0.631   2.872  18.737 -0.0891  0.1790  0.2287
45147W        W53947  10.394   3.492  10.151 -0.0561 -0.2222  0.2094
45148W        W53948  17.681   7.643  25.065  0.1814 -0.0882 -0.2418
45149W        W53949  14.373   4.954   0.574 -0.1766  0.1597 -0.2245
45150W        W53950   3.250   2.635  31.053  0.0315 -0.0588  0.4079
45151W        W53951  18.949   5.950  18.358 -0.2593 -0.5423 -0.1057
45152W        W53952   6.837   6.339   2.623  0.2164 -0.0555  0.0948
45153W        W53953  11.357   4.041   3.936  0.0154 -0.1558 -0.1223
45154W        W53954  15.398   5.736   9.197 -0.1067 -0.0137  0.0070
45155W        W53955  18.926   5.207   9.044  0.0874  0.0172  0.0897
45156W        W53956   7.272   0.337  15.466 -0.1052 -0.0522 -0.0299
45157W        W53957  15.233   1.285  11.638  0.4322 -0.0055 -0.0951
45158W        W53958  15.618   1.610  22.954  0.2426 -0.1179  0.3497
45159W        W53959  12.926   0.032  27.941 -0.0704 -0.0803  0.1665
45160W        W53960   0.034   4.063  25.752  0.2508 -0.1030  0.0245
45161W        W53961  12.720   4.695   2.723  0.3217 -0.0046 -0.0809
45162W        W53962  20.221   3.802  20.863  0.2571 -0.4553 -0.0085
45163W        W53963  20.595   3.777   7.644  0.1687  0.0391  0.0483
45164W        W53964   4.289   0.856   6.675  0.0431 -0.1087  0.0536
45165W        W53965  19.942   1.669  28.881  0.1245  0.2733 -0.1919
45166W        W53966   4.395   1.315   5.235  0.0952  0.0011  0.1753
45167W        W53967   1.962   7.132  11.159 -0.0014  0.0874  0.0108
45168W        W53968  19.239   0.569  15.286  0.0699  0.2245 -0.2640
45169W        W53969  12.689   2.109  23.243 -0.0530  0.0354  0.1425
45170W        W53970  23.597   0.379  23.978  0.1092 -0.0605  0.3253
45171W        W53971  19.302   0.587  32.561  0.2211 -0.0520 -0.0331
45172W        W53972   7.064   5.873  30.553 -0.1620  0.2419  0.0654
45173W        W53973  16.282   3.703   1.903  0.1355  0.0770  0.1196
45174W        W53974   9.066   1.803   2.793 -0.1973 -0.0714  0.1347
45175W        W53975   7.212   2.865   4.294  0.2039 -0.0453  0.0409
45176W        W53976  18.259   6.633   6.934  0.1185  0.1116  0.1175
45177W        W53977  17.965   1.649  21.065 -0.3728 -0.1305  0.1937
45178W        W53978  11.554   6.847  27.880 -0.2151 -0.3503  0.0044
45179W        W53979  23.728   7.270   8.210  0.2364  0.3451  0.3084
45180W        W53980   8.995   2.930  18.203 -0.0733 -0.2488 -0.2922
45181W        W53981   4.963   3.254  31.359 -0.2272 -0.0447  0.0409
45182W        W53982  10.867   2.976   8.965 -0.1496  0.5404 -0.0832
45183W        W53983  10.021   0.856  30.091  0.1016 -0.0590 -0.1248
45184W        W53984  19.786   0.922  24.904  0.1157 -0.1327  0.2455
45185W        W53985  17.226   3.285  29.019  0.0530  0.0213 -0.1710
45186W        W53986  21.369   2.329  25.811  0.1350  0.2994 -0.1468
45187W        W53987  15.699   0.397  21.493 -0.1973 -0.1640 -0.0498
45188W        W53988   8.541   0.492  24.537 -0.3977  0.3431 -0.0829
45189W        W53989  19.981   4.682  23.295  0.2335 -0.0122 -0.3455
45190W        W53990   1.996   0.622   9.201  0.0752  0.0475 -0.1975
45191W        W53991   8.235   4.019  30.051  0.1991 -0.1133  0.0197
45192W        W53992  19.914   5.167   6.553 -0.1120  0.3393 -0.1867
45193W        W53993  13.713   4.624   1.723  0.2408 -0.0813  0.1939
45194W        W53994  21.721   4.810  31.899  0.0310  0.0313 -0.2889
45195W        W53995   4.181   1.028  11.766 -0.1556 -0.2501  0.2041
45196W        W53996   6.630   3.759  15.738  0.1959  0.1512  0.0256
45197W        W53997   0.358   7.738  30.795 -0.0123 -0.3123 -0.4288
45198W        W53998   6.851   4.802  32.474 -0.1414 -0.1018 -0.0312
45199W        W53999  21.732   6.156   3.232  0.0521 -0.1924 -0.0051
45200W        W54000   4.444   6.022   1.030 -0.1170  0.0256  0.3001
45201W        W54001  21.496   1.950  20.911  0.1908 -0.1345 -0.0000
45202W        W54002  13.606   0.769  28.969  0.1424  0.0012  0.0477
45203W        W54003   5.985   5.037   5.902  0.1357 -0.2539 -0.3653
45204W        W54004   4.624   2.621  30.195 -0.2094  0.1561  0.1055
45205W        W54005   4.562   5.379  28.516 -0.2092  0.0918 -0.1972
45206W        W54006  19.642   6.632  17.902  0.2131  0.4856 -0.1944
45207W        W54007   7.907   6.545  22.981  0.0833  0.0424  0.2187
45208W        W54008  22.249   7.529  20.912 -0.0949 -0.0870  0.2078
45209W        W54009  11.281   6.292  26.729  0.1270 -0.0523 -0.1265
45210W        W54010   6.970   7.560   7.720 -0.1144 -0.0330 -0.3176
45211W        W54011   5.909   6.209   1.077  0.0427 -0.3411  0.1822
45212W        W54012  13.530   2.131  12.289  0.1535 -0.1468  0.1140
45213W        W54013   7.532   7.387  26.699  0.1515  0.0084  0.1941
45214W        W54014   6.432   1.911   2.161  0.1606 -0.1506 -0.0802
45215W        W54015   8.251   2.199   8.040  0.0074  0.2982 -0.0089
45216W        W54016  16.465   1.715  28.272 -0.4390 -0.3048 -0.0124
45217W        W54017  24.081   6.051  16.168 -0.0832  0.0865 -0.2384
45218W        W54018  13.566   4.464  28.694 -0.3259 -0.0795 -0.0580
45219W        W54019  20.774   3.256   9.823 -0.1351 -0.2185  0.0438
45220W        W54020  12.141   1.809  30.689  0.2040  0.3222 -0.0586
45221W        W54021  23.379   3.963   5.624 -0.1464 -0.1292  0.2801
45222W        W54022  11.204   1.357   1.570  0.0830  0.0266  0.0712
45223W        W54023  10.919   1.621  16.500 -0.1417  0.2602 -0.0269
45224W        W54024  21.922   5.519  21.751 -0.0899  0.0815  0.0649
45225W        W54025   8.960   2.126   6.469 -0.1681  0.0240  0.1315
45226W        W54026  17.697   6.325  28.818  0.3108  0.2417 -0.1881
45227W        W54027  19.296   3.213   2.864  0.0406 -0.0038 -0.0895
45228W        W54028  21.269   5.834   5.543  0.3387 -0.2398  0.0399
45229W        W54029  23.753   5.390  28.413 -0.0260 -0.0117 -0.1620
45230W        W54030  18.461   1.572   2.414  0.0110 -0.1861  0.1233
45231W        W54031  16.235   0.386   2.506 -0.2540  0.0601 -0.0339
45232W        W54032  22.812   7.417   1.401  0.1061  0.0194 -0.0013
45233W        W54033  13.227   1.454   0.765  0.0354 -0.2475 -0.2216
45234W        W54034   3.495   2.296  31.696 -0.0628  0.0316 -0.2176
45235W        W54035  12.117   0.049  23.249  0.0731  0.1120  0.0440
45236W        W54036   9.017   6.828  16.844  0.0557 -0.1402 -0.0613
45237W        W54037  11.594   6.983   5.483 -0.2219 -0.0104 -0.0043
45238W        W54038   9.089   0.803  18.094 -0.0468 -0.2556  0.2818
45239W        W54039  22.267   6.364   7.812 -0.0878 -0.1615 -0.0533
45240W        W54040   6.390   5.256  28.762 -0.4518  0.1814  0.3877
45241W        W54041   5.314   7.300   8.336 -0.2015  0.0311 -0.0110
45242W        W54042  24.721   4.117  16.410  0.2001 -0.0342 -0.3972
45243W        W54043  23.850   3.671   3.847 -0.1527  0.2891  0.2205
45244W        W54044   7.061   7.695  23.674  0.2407  0.1061 -0.4569
45245W        W54045  23.326   5.878  27.641 -0.1130 -0.0327  0.1171
45246W        W54046  10.445   6.469   7.225 -0.1681  0.0955  0.1376
45247W        W54047  14.980   0.805  27.044  0.0960 -0.1014  0.0166
45248W        W54048   5.930   3.366  24.206 -0.2432 -0.1675  0.3969
45249W        W54049  11.210   5.258  28.908 -0.0483 -0.4538 -0.3565
45250W        W54050   8.656   5.120   4.898  0.1595 -0.0651 -0.0449
45251W        W54051  12.136   6.544  10.713  0.4726  0.0568  0.3052
45252W        W54052   6.801   6.491  12.908  0.0562  0.0474  0.0504
45253W        W54053  12.501   0.189   3.530 -0.1433 -0.1841  0.2622
45254W        W54054   8.444   2.888  14.320 -0.0109 -0.0624 -0.1438
45255W        W54055  20.008   4.601  24.870 -0.0426  0.0738  0.0445
45256W        W54056   2.218   0.307  31.408  0.1115  0.0735  0.1704
45257W        W54057  22.889   4.056   6.471 -0.1209 -0.1419 -0.0190
45258W        W54058  21.192   5.882   6.319  0.0404 -0.0984 -0.2495
45259W        W54059  17.943   0.786  21.475 -0.0933 -0.1225 -0.0478
45260W        W54060   0.219   4.007  31.600 -0.1504 -0.1674  0.1468
45261W        W54061   4.902   7.806  25.497  0.1567 -0.0352 -0.0909
45262W        W54062  23.981   7.064  28.842 -0.1245  0.1410  0.0688
45263W        W54063   1.550   5.348  23.104 -0.3009 -0.0436  0.1332
45264W        W54064   3.901   2.261   2.746  0.1490 -0.0537 -0.1251
45265W        W54065   8.557   6.461  24.625  0.2467 -0.0693  0.4364
45266W        W54066   1.423   5.268  18.766  0.0583  0.1357  0.0744
45267W        W54067   1.642   4.863  19.042  0.1818 -0.1885  0.1144
45268W        W54068  18.445   0.720  19.585 -0.2263  0.2023  0.3523
45269W        W54069   0.028   3.784  21.980 -0.0571 -0.1213  0.0067
45270W        W54070  22.848   3.954  17.186  0.0769 -0.0136 -0.3068
45271W        W54071   6.410   7.173   3.482  0.0831 -0.0160 -0.0608
45272W        W54072  13.803   1.132  24.556  0.2371 -0.0801 -0.3324
45273W        W54073   1.279   6.804  20.869  0.2562  0.0311  0.1278
45274W        W54074   9.658   7.355   1.458 -0.1485  0.1358 -0.2926
45275W        W54075   8.522   2.681   8.847  0.0179  0.0964  0.0208
45276W        W54076   8.749   0.695  10.461  0.0406  0.0528 -0.2065
45277W        W54077   0.353   5.972  30.203  0.2242  0.0590  0.2749
45278W        W54078   5.922   3.366  26.154 -0.0202 -0.0381 -0.0479
45279W        W54079   2.761   7.420   2.935  0.1206  0.2085 -0.0369
45280W        W54080  15.517   2.916  26.868 -0.0886 -0.0581 -0.0193
45281W        W54081  18.643   6.719   9.660  0.0618  0.2717 -0.0867
45282W        W54082   9.880   3.069  15.945  0.1365 -0.2797 -0.1779
45283W        W54083  16.082   0.658   9.132  0.0046 -0.1931 -0.0507
45284W        W54084   8.820   7.121  27.227  0.1273  0.0266  0.1295
45285W        W54085  10.524   5.915  25.325 -0.1727 -0.0023  0.1894
45286W        W54086  13.700   6.519   4.075 -0.1031 -0.1972 -0.2026
45287W        W54087  13.669   3.653  10.139  0.2201 -0.1687  0.0841
45288W        W54088  17.815   7.628  23.442 -0.0743  0.4423  0.1379
45289W        W54089  10.741   4.863   7.906 -0.1019  0.0150 -0.2903
45290W        W54090  23.937   2.499  21.835  0.1661  0.2516  0.0616
45291W        W54091  20.601   3.741  17.831  0.0772  0.0460 -0.1018
45292W        W54092  14.920   0.484  20.412 -0.3043 -0.2220 -0.0269
45293W        W54093   4.393   3.344   4.596  0.1109  0.2486 -0.1687
45294W        W54094  15.980   7.773   3.709 -0.0823  0.0467 -0.2111
45295W        W54095  20.071   3.844   0.794 -0.1165 -0.3010 -0.1523
45296W        W54096  13.271   5.241  29.069  0.0403  0.0267  0.1411
45297W        W54097   9.882   3.250   0.103 -0.0188 -0.1749  0.2605
45298W        W54098   9.502   2.677  15.669 -0.1117  0.0195 -0.0323
45299W        W54099  24.191   6.686  26.631 -0.1964 -0.2461 -0.0241
45300W        W54100  22.387   1.814  28.169 -0.0807  0.1841 -0.0769
45301W        W54101   9.610   1.861   3.610  0.1156  0.0245  0.2608
45302W        W54102  10.390   3.026  11.794  0.1167  0.0370  0.0375
45303W        W54103  14.586   3.707  26.842  0.1750  0.1182 -0.1004
45304W        W54104  15.140   3.059  10.490  0.2056  0.3470 -0.2041
45305W        W54105  15.681   5.424  28.598 -0.1378 -0.1615 -0.0352
45306W        W54106  15.996   1.726  18.803  0.0759 -0.0220 -0.0250
45307W        W54107   1.433   2.186   5.855 -0.0231 -0.0414  0.0029
45308W        W54108  18.057   4.565   2.993 -0.3457  0.3891 -0.0080
45309W        W54109   2.836   6.585  22.087 -0.0870  0.2016 -0.1883
45310W        W54110  21.767   7.008  20.197 -0.3301  0.0452  0.0508
45311W        W54111  19.620   2.148  27.867 -0.0285  0.0611 -0.0200
45312W        W54112  16.784   6.137   1.808 -0.0353 -0.0479 -0.1243
45313W        W54113  12.356   5.033  29.989  0.0004 -0.0819 -0.1208
45314W        W54114  19.285   3.439   6.828 -0.1131 -0.2501  0.3030
45315W        W54115   4.701   5.046  28.836  0.3976 -0.1531 -0.0380
45316W        W54116  21.533   5.397   4.926  0.1833  0.3496 -0.1131
45317W        W54117   9.877   3.921   6.883  0.4504  0.0475  0.0778
45318W        W54118  15.423   6.267   5.112  0.0481 -0.1532 -0.2009
45319W        W54119   1.416   4.530  26.150 -0.0659  0.2173  0.0738
45320W        W54120  24.096   7.536  22.215  0.0660  0.0368 -0.0742
45321W        W54121  19.205   6.488  21.071  0.0021  0.0063  0.0349
45322W        W54122  15.587   5.086   1.514  0.0390  0.2685  0.0324
45323W        W54123  21.316   4.768  29.648 -0.1552  0.3056  0.1355
45324W        W54124  11.608   4.668  32.225 -0.1457 -0.1629 -0.1732
45325W        W54125   1.836   1.217   1.749 -0.3634  0.2061  0.2200
45326W        W54126  11.474   2.844   3.332 -0.0362  0.0598  0.0645
45327W        W54127  20.609   0.090  30.533  0.0568 -0.1577  0.0777
45328W        W54128  17.492   0.191   8.911  0.0573  0.2417  0.1326
45329W        W54129  11.038   0.370  26.863 -0.0156  0.1870 -0.1458
45330W        W54130   5.767   0.043  23.397 -0.0310  0.0335 -0.0676
45331W        W54131   1.334   1.520  25.176 -0.1272  0.0389  0.0919
45332W        W54132  19.462   5.714   1.138  0.0587  0.0200  0.0966
45333W        W54133  24.085   4.550   3.266  0.1266 -0.1012  0.0723
45334W        W54134  13.046   0.605  17.125 -0.1596  0.1097 -0.1407
45335W        W54135  18.618   2.016  31.176 -0.1220  0.0576 -0.2191
45336W        W54136  11.088   3.831  26.100  0.1079  0.0352 -0.1340
45337W        W54137   4.499   1.534   2.828  0.2032 -0.2831  0.2297
45338W        W54138  22.016   7.124  27.625  0.2000 -0.2815  0.0742
45339W        W54139  18.094   1.359   2.962 -0.4235  0.2642  0.1941
45340W        W54140  16.384   6.755  19.709 -0.0767 -0.4831  0.0336
45341W        W54141   7.609   4.137   4.626 -0.0126  0.1131  0.1324
45342W        W54142  15.470   2.629   7.807  0.1624  0.0608 -0.1554
45343W        W54143  19.224   1.706   3.038 -0.0657 -0.0228 -0.2995
45344W        W54144  10.570   4.457  24.225 -0.0517 -0.3359 -0.1175
45345W        W54145   4.316   5.063  31.845 -0.0900 -0.0733 -0.1428
45346W        W54146  13.017   0.194   3.231  0.0708 -0.2190 -0.1999
45347W        W54147  17.998   0.279  31.205 -0.1051  0.0339 -0.0741
45348W        W54148  18.730   5.403  24.450  0.0619 -0.1737 -0.0780
45349W        W54149   1.677   6.464   8.067 -0.0462  0.2606  0.1092
45350W        W54150   9.259   6.961  27.386  0.1535 -0.0562  0.0269
45351W        W54151  14.787   5.143  28.229 -0.1751  0.2478  0.0676
45352W        W54152  14.859   1.359  27.159 -0.0669 -0.1351  0.2113
45353W        W54153  23.430   0.348  21.956 -0.1141 -0.0671 -0.1313
45354W        W54154  22.599   0.388   5.912 -0.0693  0.0728 -0.0879
45355W        W54155   7.436   1.179  24.900 -0.2961  0.0935  0.1011
45356W        W54156  12.748   6.620  31.762  0.4807  0.0993  0.2215
45357W        W54157  23.839   7.463   7.600  0.1658 -0.2287 -0.1754
45358W        W54158  12.974   4.998   7.586 -0.1544  0.0386  0.0763
45359W        W54159  16.358   1.445   6.938  0.2667 -0.0586 -0.1243
45360W        W54160  10.456   5.346   1.112  0.5170  0.0362  0.1666
45361W        W54161  21.286   5.038  25.052 -0.0210 -0.0210 -0.1092
45362W        W54162  19.909   2.657  23.774 -0.0969 -0.1202  0.0313
45363W        W54163  22.532   2.993  28.003  0.1423 -0.0535  0.2440
45364W        W54164  20.223   1.351  31.482  0.1195 -0.1950 -0.0078
45365W        W54165  17.839   2.366  21.719  0.1283  0.0131 -0.1076
45366W        W54166  15.377   4.410   7.165  0.0462  0.0997  0.2095
45367W        W54167   2.170   1.067   1.235 -0.0960 -0.2474  0.0736
45368W        W54168  12.429   1.738   8.156 -0.0776  0.1730 -0.1206
45369W        W54169   0.192   6.337  16.552 -0.2177 -0.2021 -0.1625
45370W        W54170  13.069   0.084  13.942  0.1852 -0.1430  0.1551
45371W        W54171  21.260   4.827  20.663 -0.1323  0.0594  0.4551
45372W        W54172  20.574   6.323   1.650  0.2513 -0.0979 -0.1553
45373W        W54173  17.899   6.810   4.539  0.0651  0.0735 -0.0850
45374W        W54174   1.742   5.210  28.405 -0.0788 -0.0332 -0.1114
45375W        W54175  12.533   5.006  27.053  0.0631  0.0678 -0.2245
45376W        W54176  11.448   6.792  29.973 -0.2735  0.0905  0.0932
45377W        W54177   4.763   0.012  10.726  0.2108 -0.0675  0.1761
45378W        W54178   2.914   6.142  22.992 -0.2646 -0.0552  0.1660
45379W        W54179  11.833   1.145   1.046 -0.1848 -0.0457 -0.0074
45380W        W54180  14.435   7.476  28.965  0.1469 -0.0774 -0.0104
45381W        W54181  16.421   3.315  32.623 -0.2689  0.0134  0.2808
45382W        W54182  15.423   0.652  30.237  0.1196  0.1766 -0.1170
45383W        W54183   8.247   1.976  26.667 -0.1300  0.0276  0.1005
45384W        W54184  20.522   2.017  20.918 -0.0553 -0.0023 -0.0011
45385W        W54185   2.834   6.167   5.287  0.0846 -0.0391 -0.0829
45386W        W54186   6.706   7.355   4.861  0.0552  0.0987  0.3393
45387W        W54187   7.047   0.686  11.171 -0.0622  0.0636 -0.2043
45388W        W54188   9.081   1.352  16.711  0.0865 -0.2257 -0.1398
45389W        W54189   4.406   6.833  29.995 -0.0102  0.0676 -0.1335
45390W        W54190  17.445   4.644   9.699 -0.0673  0.0511  0.0693
45391W        W54191  13.289   6.893  27.655  0.3684  0.0140 -0.1469
45392W        W54192  20.170   4.350   0.249 -0.1752 -0.0876  0.5273
45393W        W54193   3.743   3.746   1.576 -0.0020  0.1055  0.0591
45394W        W54194   2.792   3.996  30.473  0.2681 -0.3586  0.2295
45395W        W54195  18.619   1.773   5.327 -0.0057 -0.0592 -0.3236
45396W        W54196  21.980   0.471  26.341  0.0174  0.1971  0.1314
45397W        W54197  13.515   4.936  26.472 -0.0897  0.0845 -0.2453
45398W        W54198   3.927   1.558   4.676  0.0559  0.1511 -0.2570
45399W        W54199   7.307   3.236  30.788  0.0494 -0.2894 -0.1185
45400W        W54200   5.924   6.541  23.864  0.1411  0.1554  0.1519
45401W        W54201  12.019   7.208  31.981 -0.1373  0.2198  0.0315
45402W        W54202  11.676   5.830  25.017  0.1374  0.0105  0.0935
45403W        W54203   1.277   1.829  31.246 -0.2004  0.1369 -0.0527
45404W        W54204   5.618   3.016  25.580  0.0390 -0.1455 -0.1837
45405W        W54205  17.926   0.923  26.054 -0.4429  0.1162  0.2634
45406W        W54206   5.330   0.934   3.857 -0.2166 -0.0023  0.3007
45407W        W54207   4.307   5.268   6.838  0.0786  0.0330  0.3010
45408W        W54208  17.603   6.757   6.327 -0.0028 -0.0569 -0.0743
45409W        W54209   9.613   1.629  10.774  0.0781  0.3525 -0.0294
45410W        W54210   6.246   4.925  30.456  0.0582  0.2990  0.0614
45411W        W54211   5.875   0.775  14.857 -0.0428 -0.0629 -0.0340
45412W        W54212   9.673   1.419  26.277 -0.2225  0.3069  0.1492
45413W        W54213  17.376   1.636  17.168  0.2312  0.0285 -0.2810
45414W        W54214  22.108   2.226  30.746 -0.1117 -0.0457 -0.1532
45415W        W54215  12.535   6.929  22.777  0.0958  0.0030 -0.2107
45416W        W54216  11.404   7.441  11.771  0.2142 -0.0625 -0.0461
45417W        W54217  18.362   5.670  23.960  0.2374  0.1087  0.2506
45418W        W54218  20.318   4.454  15.376 -0.0212  0.1061 -0.2950
45419W        W54219   0.339   7.414   1.465  0.3595  0.1960 -0.2901
45420W        W54220   2.411   4.751  10.709 -0.0332 -0.2415 -0.1710
45421W        W54221   2.273   5.706  32.634  0.0528 -0.1098  0.1793
45422W        W54222   0.988   2.505  18.760  0.1633 -0.0702 -0.0228
45423W        W54223  20.642   0.240   8.692  0.0319 -0.0262  0.1755
45424W        W54224   0.640   0.280   6.151 -0.0810  0.1243 -0.0064
45425W        W54225   9.651   6.154  29.940  0.0037  0.1678  0.0377
45426W        W54226  23.373   1.075   6.722 -0.2009  0.2546 -0.3059
45427W        W54227   3.238   7.312   5.867  0.0616  0.0580  0.2732
45428W        W54228  20.849   5.534  28.769 -0.0288 -0.4557  0.1212
45429W        W54229  11.759   3.550   1.237 -0.2769  0.0841  0.1146
45430W        W54230   2.363   0.375  32.618 -0.3632  0.3351  0.2182
45431W        W54231   0.490   0.272   5.684  0.2210  0.1415 -0.3313
45432W        W54232  19.689   7.412  17.212  0.0901 -0.0571  0.0153
45433W        W54233  21.810   2.793   6.232  0.1877  0.1155 -0.3509
45434W        W54234  14.644   1.479   4.269 -0.2030  0.1465 -0.1387
45435W        W54235   6.202   2.773   3.118 -0.1512  0.0955 -0.1488
45436W        W54236  22.175   5.841  19.548 -0.1775 -0.1284 -0.0380
45437W        W54237  12.763   2.588  12.995  0.2651  0.0001 -0.2140
45438W        W54238  10.049   5.130   2.169 -0.1033  0.4273  0.1955
45439W        W54239   8.687   1.810  29.096  0.0062  0.4302 -0.0162
45440W        W54240   8.772   4.789  26.146 -0.0108  0.0423  0.5327
45441W        W54241  20.101   3.442  27.787 -0.0198  0.1639  0.0195
45442W        W54242   4.276   2.266  22.717 -0.1754  0.0141  0.2652
45443W        W54243  11.958   0.651  13.726 -0.1202 -0.1020  0.1003
45444W        W54244  16.890   3.749  30.421 -0.0147 -0.0854  0.1798
45445W        W54245   4.084   2.594   0.027  0.2993  0.1424  0.1345
45446W        W54246   6.217   5.227  13.386  0.4214  0.0809 -0.0284
45447W        W54247   8.858   1.247   7.729  0.3378 -0.0189  0.2003
45448W        W54248  11.492   1.003   3.851  0.0470  0.0284  0.1337
45449W        W54249  12.290   6.934  26.242 -0.1264 -0.1956  0.3450
45450W        W54250  15.218   2.792  25.180 -0.0882  0.2254  0.0740
45451W        W54251   5.839   4.817  13.549 -0.2784  0.2166 -0.1059
45452W        W54252   5.040   6.762  11.341  0.1148 -0.0269  0.0092
45453W        W54253   8.701   0.950  29.409 -0.0238 -0.1147 -0.1323
45454W        W54254  20.999   3.680   9.792  0.1963  0.1399 -0.0548
45455W        W54255   6.971   3.038  14.147  0.3535 -0.0480  0.2882
45456W        W54256   0.763   2.905  22.023 -0.2537 -0.1801  0.0617
45457W        W54257  17.606   1.984   0.753  0.0401 -0.2726 -0.1508
45458W        W54258   3.894   5.460   4.501 -0.0732  0.0206  0.2104
45459W        W54259  20.078   3.825  21.632 -0.0772  0.1316 -0.1051
45460W        W54260   5.460   3.124   9.239 -0.1585  0.0351 -0.0228
45461W        W54261  16.037   2.926  18.149 -0.0330 -0.1337 -0.0964
45462W        W54262   8.171   3.276   7.808  0.0130  0.1919  0.0462
45463W        W54263   4.740   6.025  30.191  0.0013  0.4540  0.0315
45464W        W54264  24.654   6.341   0.005  0.0789 -0.0257 -0.0798
45465W        W54265  13.634   4.658   4.717 -0.0840 -0.0050 -0.1565
45466W        W54266  24.449   4.989  30.939  0.2257  0.1448 -0.2330
45467W        W54267  13.221   0.470  27.443 -0.0144  0.0320 -0.1554
45468W        W54268  19.585   3.462  15.795 -0.0552 -0.1627  0.0060
45469W        W54269  10.864   3.943  28.571  0.2132 -0.0256  0.0060
45470W        W54270   9.340   4.995  17.263  0.2028 -0.2164 -0.0000
45471W        W54271  18.648   1.230  16.791  0.0123  0.0653  0.0337
45472W        W54272  22.883   4.061  25.016  0.2573 -0.1215 -0.2067
45473W        W54273  11.095   3.450   6.764  0.0243 -0.2263 -0.0726
45474W        W54274   8.588   0.226  32.082 -0.1295 -0.1023 -0.3168
45475W        W54275   2.910   4.566  26.332  0.4050  0.0415  0.0849
45476W        W54276   9.277   1.863  29.990 -0.2179 -0.0644 -0.1477
45477W        W54277   5.029   6.398  29.179 -0.0129  0.1287 -0.1256
45478W        W54278  11.007   3.431  28.853  0.1589  0.0798 -0.1288
45479W        W54279   4.939   4.469  29.057 -0.1532  0.1308 -0.2103
45480W        W54280  13.156   0.171   0.913  0.1135  0.1156  0.0394
45481W        W54281  23.036   2.357   3.563 -0.0906  0.2227  0.3391
45482W        W54282   6.487   4.492  28.075 -0.1865  0.1689  0.2577
45483W        W54283   3.126   3.515  12.678  0.1523 -0.1370  0.1149
45484W        W54284  21.047   6.201   4.076 -0.3070  0.0302  0.1890
45485W        W54285   2.336   2.412  21.550 -0.0233  0.1078  0.0824
45486W        W54286   5.372   5.713  26.159  0.1613 -0.0719 -0.0336
45487W        W54287  23.903   1.331  20.067 -0.2709  0.0177  0.2889
45488W        W54288  13.447   3.413  27.450  0.0911 -0.0373  0.0183
45489W        W54289  17.083   6.838  12.103 -0.0163  0.1443 -0.0772
45490W        W54290  14.404   2.198   9.298  0.3007 -0.1792  0.1642
45491W        W54291   4.807   5.349   3.265 -0.0512  0.1457  0.1932
45492W        W54292   5.658   6.890  16.205 -0.1064 -0.1524  0.2307
45493W        W54293   8.515   1.396  15.545  0.0440  0.1253  0.1773
45494W        W54294   9.714   6.914  11.752 -0.0012  0.4118 -0.3239
45495W        W54295   8.925   7.571   4.896  0.1857 -0.0392 -0.0145
45496W        W54296  24.752   7.353   8.031 -0.0356 -0.0385 -0.0531
45497W        W54297   7.317   6.119  25.739 -0.2318 -0.1574  0.2338
45498W        W54298   4.509   2.174  13.990  0.0996 -0.1396 -0.3764
45499W        W54299   2.331   3.174   6.380 -0.3368  0.1114  0.0328
45500W        W54300  12.974   7.462  27.693  0.2827  0.0587  0.0398
45501W        W54301   8.908   2.759  11.475 -0.1398  0.0834 -0.5315
45502W        W54302  18.635   0.343  21.126  0.1255 -0.3067 -0.4450
45503W        W54303  11.817   1.373  15.561  0.3366  0.1525  0.1090
45504W        W54304  21.469   0.554  19.626  0.0772 -0.6750  0.3096
45505W        W54305   9.630   4.762  17.686  0.3405  0.3620 -0.2134
45506W        W54306  14.655   2.905  29.381 -0.0497  0.1244  0.1687
45507W        W54307  20.944   7.641   9.446 -0.3095  0.1548 -0.3243
45508W        W54308   6.864   7.541  25.805 -0.0816 -0.1871  0.0696
45509W        W54309   4.482   2.372  22.152  0.2378 -0.1471  0.2547
45510W        W54310   0.225   6.889  19.643  0.4778  0.1277 -0.2152
45511W        W54311  14.528   1.468  24.047  0.4231  0.0156  0.1015
45512W        W54312   2.287   3.526   9.383 -0.1499 -0.0220 -0.0312
45513W        W54313  22.830   5.134  24.489 -0.0946  0.1162 -0.1879
45514W        W54314   9.281   6.607  23.859  0.1176 -0.0765 -0.1065
45515W        W54315  23.062   7.730   1.061  0.2468 -0.0362 -0.0012
45516W        W54316   4.821   7.016  10.487 -0.1203 -0.0370 -0.0045
45517W        W54317  11.020   7.501  17.004  0.3036 -0.0653  0.0886
45518W        W54318   0.760   5.370  22.448 -0.2630 -0.4150 -0.0438
45519W        W54319  12.291   7.778  30.699  0.0310 -0.0299  0.0282
45520W        W54320  13.453   6.472   6.324 -0.1173 -0.0339 -0.1286
45521W        W54321  20.357   3.514  26.029  0.1895  0.0492  0.0366
45522W        W54322   7.296   6.832   7.428 -0.0852 -0.0302 -0.0215
45523W        W54323   4.772   7.135   3.070  0.0214 -0.3889 -0.1257
45524W        W54324  18.815   3.420   6.319  0.1536 -0.0076 -0.1645
45525W        W54325   8.407   1.336  16.600 -0.0040  0.0094  0.0183
45526W        W54326  16.836   5.588   5.669 -0.2257  0.2079  0.2483
45527W        W54327   5.274   5.422   9.558  0.1439  0.1039  0.0728
45528W        W54328  23.410   7.287  28.183 -0.1868  0.0572  0.0541
45529W        W54329  24.911   6.422  19.156  0.1192 -0.0556  0.1322
45530W        W54330  20.575   6.081  15.295 -0.0997  0.0785  0.1539
45531W        W54331   3.559   4.537   1.660  0.3817 -0.3042  0.0531
45532W        W54332   8.529   3.054  30.654 -0.0609  0.0576  0.2405
45533W        W54333  20.690   7.004  24.105 -0.2848  0.2078  0.0528
45534W        W54334  19.052   1.282  27.908  0.1836 -0.2546  0.3351
45535W        W54335   2.430   0.988  20.503 -0.2622 -0.0409 -0.4907
45536W        W54336  11.584   4.348  28.277 -0.1195  0.1967 -0.0716
45537W        W54337  17.754   2.547  29.871 -0.0540 -0.2787 -0.1099
45538W        W54338  20.315   1.738  16.774 -0.0438 -0.1601 -0.2829
45539W        W54339   4.357   3.853  10.616 -0.0474  0.4218  0.0027
45540W        W54340   7.210   1.764   9.619 -0.1304 -0.0710  0.2882
45541W        W54341  16.170   4.259  27.142  0.0155  0.0862 -0.3325
45542W        W54342   1.508   4.891  29.111  0.0661  0.2057 -0.0294
45543W        W54343   8.186   0.114   9.397  0.1707  0.1375 -0.1569
45544W        W54344   3.134   1.637   9.808 -0.0493  0.1591  0.0269
45545W        W54345  18.609   7.122   9.966 -0.1910 -0.1571 -0.2102
45546W        W54346  11.705   3.850  29.637  0.1459 -0.0340  0.0382
45547W        W54347  22.283   1.237   8.877  0.2355 -0.0265 -0.2558
45548W        W54348   1.600   6.559  22.066  0.3713  0.0348 -0.1781
45549W        W54349   5.990   1.459  11.793  0.2021 -0.0428  0.3021
45550W        W54350   3.996   4.539   2.783 -0.3404  0.0522 -0.3115
45551W        W54351  15.560   7.311   9.851  0.2931  0.0040  0.0249
45552W        W54352  24.286   0.540  21.217 -0.0542 -0.1488 -0.1039
45553W        W54353  19.467   7.111  22.824  0.3623  0.0116 -0.0031
45554W        W54354  21.501   3.257  22.424  0.1769  0.3367 -0.1212
45555W        W54355   8.062   4.854  15.265  0.1461 -0.1446  0.0858
45556W        W54356   7.733   0.516   6.529 -0.1480  0.0462 -0.3282
45557W        W54357  11.869   4.637   5.336  0.0477 -0.1027 -0.0586
45558W        W54358   9.743   3.278   5.189  0.0743  0.2926 -0.2072
45559W        W54359  12.575   1.313  21.938  0.0923 -0.3465 -0.1774
45560W        W54360   4.135   4.585  31.743 -0.3777  0.2920  0.0869
45561W        W54361  21.588   7.721  23.009  0.2291 -0.0488 -0.1410
45562W        W54362  16.586   4.699  29.487 -0.1036  0.1148 -0.0100
45563W        W54363   9.494   7.680   4.847 -0.3289 -0.1913 -0.2653
45564W        W54364   3.403   1.383   2.829 -0.1874 -0.2335  0.3071
45565W        W54365  11.157   4.138  30.089 -0.2262 -0.0100  0.0013
45566W        W54366  19.381   2.186  15.492  0.4080  0.1672 -0.0677
45567W        W54367  23.657   3.278  22.453  0.0317  0.0394 -0.1070
45568W        W54368  10.924   6.929   7.705  0.2941  0.3643 -0.3116
45569W        W54369   7.662   2.403   2.128  0.1695  0.0003 -0.1049
45570W        W54370   2.723   4.189  29.890 -0.1292  0.1563  0.4146
45571W        W54371  23.749   6.286  21.308 -0.1953  0.0056 -0.1698
45572W        W54372  20.204   0.260  21.426 -0.2802 -0.1198  0.0479
45573W        W54373   0.571   3.968  17.823 -0.0236  0.1442 -0.1860
45574W        W54374  13.169   5.748  32.425  0.1513  0.0022 -0.1523
45575W        W54375  18.898   6.287   2.132  0.1181 -0.0381 -0.0386
45576W        W54376  19.849   0.064  15.430 -0.3967 -0.1180 -0.1146
45577W        W54377  20.199   5.996  25.480  0.0591 -0.0319  0.3564
45578W        W54378  11.487   2.468   8.489  0.0524  0.0028  0.2828
45579W        W54379  12.099   4.002  11.624 -0.0461 -0.2762  0.0955
45580W        W54380  18.317   0.109  26.070 -0.1746  0.2446 -0.1561
45581W        W54381  24.227   4.865   7.111 -0.0113 -0.1486 -0.2316
45582W        W54382   0.593   7.198  31.174  0.0134  0.0007 -0.1144
45583W        W54383   8.954   3.797  10.893  0.1384 -0.0135  0.0069
45584W        W54384  10.600   7.465  30.395 -0.3089  0.0597  0.0045
45585W        W54385  21.941   6.850  15.330 -0.3898  0.1180  0.0454
45586W        W54386   4.804   6.662  13.866  0.1886 -0.0105  0.0564
45587W        W54387  18.362   2.694  32.350  0.1016  0.2834  0.1139
45588W        W54388   3.907   6.091  22.203 -0.5480 -0.1016 -0.2457
45589W        W54389  21.027   1.926   3.060  0.0043  0.0122 -0.2980
45590W        W54390   4.566   4.713  10.591  0.0331  0.2521  0.0047
45591W        W54391  18.663   6.981  21.803 -0.0175  0.1511  0.1936
45592W        W54392   8.090   6.623   4.736  0.2724  0.1100 -0.0162
45593W        W54393  10.306   5.556  25.023  0.1092 -0.1309 -0.1253
45594W        W54394  15.576   5.276  24.550  0.1428 -0.3405  0.1675
45595W        W54395   7.888   3.065   6.028  0.2623  0.3393  0.0745
45596W        W54396   1.280   1.895  28.398 -0.0407  0.1119 -0.1098
45597W        W54397   7.782   1.250   4.718  0.0991 -0.0331  0.3478
45598W        W54398   5.128   6.508  14.439 -0.0751 -0.1153  0.1794
45599W        W54399  11.927   4.784   0.424 -0.1942 -0.3743  0.0669
45600W        W54400   5.223   3.534   0.699  0.0851  0.0412  0.0807
45601W        W54401   0.985   7.126   4.781 -0.2646  0.0738 -0.2004
45602W        W54402  13.316   5.731  31.037 -0.3327  0.1965  0.0104
45603W        W54403   0.084   6.008   3.114 -0.2895  0.0769 -0.0167
45604W        W54404  23.237   7.688  10.198 -0.1603  0.1081  0.2311
45605W        W54405  10.836   0.354  15.070  0.0736 -0.2190 -0.5782
45606W        W54406  11.108   4.826   0.730 -0.0724  0.0134 -0.1635
45607W        W54407  14.377   6.904  11.493  0.0321 -0.1072 -0.2920
45608W        W54408  16.551   4.468   3.792  0.2265 -0.0455 -0.1086
45609W        W54409  11.873   0.107  12.550  0.0254  0.2081  0.1306
45610W        W54410   8.046   0.213   0.610 -0.0505  0.2255 -0.0581
45611W        W54411  14.106   2.897  10.428 -0.0104 -0.1945 -0.2155
45612W        W54412  11.323   3.700  30.957 -0.1927 -0.0654  0.0671
45613W        W54413  17.218   7.627  28.888 -0.1370  0.3231  0.0292
45614W        W54414  10.678   3.816  12.589 -0.1431  0.0184  0.1000
45615W        W54415  13.297   6.743   4.236  0.1972  0.0819  0.0032
45616W        W54416  15.027   5.160   5.616 -0.1489 -0.1359  0.0160
45617W        W54417   4.079   6.811   6.580  0.1944  0.1241  0.1231
45618W        W54418   8.597   5.393  14.157  0.1186  0.2147 -0.0556
45619W        W54419   0.202   2.405  28.029  0.0016  0.1335  0.0562
45620W        W54420  17.961   5.094  10.822 -0.2384  0.4378 -0.2553
45621W        W54421  23.775   6.456  28.481  0.0267  0.0268 -0.1267
45622W        W54422  23.365   0.035  26.832  0.0250  0.3746 -0.2089
45623W        W54423  11.067   6.800  14.964 -0.2206  0.4848  0.1934
45624W        W54424   9.573   7.667  13.559  0.1616 -0.0452  0.2149
45625W        W54425  21.497   3.776  25.616 -0.1600  0.1392 -0.2758
45626W        W54426  10.197   0.121   3.530  0.4626  0.0304 -0.1599
45627W        W54427  18.606   2.447  15.325  0.1063  0.0254  0.2301
45628W        W54428  21.873   5.227   5.212 -0.2422  0.0804  0.1593
45629W        W54429   7.942   4.521   5.723  0.0206  0.0078  0.0386
45630W        W54430   8.123   3.409  11.628  0.0941 -0.1447  0.3412
45631W        W54431  19.072   6.533  19.666 -0.1288 -0.0882  0.0694
45632W        W54432  22.695   0.936  24.075  0.1823 -0.4616 -0.0282
45633W        W54433   3.029   6.898  30.387 -0.2608  0.0642  0.2127
45634W        W54434   5.321   6.427   2.715  0.0960  0.1984  0.2791
45635W        W54435   1.960   7.300   5.362  0.2919  0.3123 -0.0729
45636W        W54436  21.638   6.786  25.999  0.0709 -0.0440 -0.2067
45637W        W54437  16.627   1.667   9.269 -0.0266 -0.1021 -0.1062
45638W        W54438  17.352   7.569   7.810 -0.0925  0.1386 -0.1510
45639W        W54439   1.118   5.282  28.425  0.1293 -0.0075  0.1078
45640W        W54440   8.059   2.406  24.886  0.3099 -0.0986 -0.0247
45641W        W54441   9.737   2.659  14.693  0.0412  0.0683  0.1385
45642W        W54442  10.107   5.686  10.116 -0.0723  0.1850  0.1839
45643W        W54443  12.766   6.826   4.173  0.2349 -0.3272  0.3766
45644W        W54444  20.443   3.016   9.498  0.1815  0.0835 -0.1531
45645W        W54445   7.295   1.762  29.709  0.1868 -0.2046 -0.0031
45646W        W54446  18.651   5.869  21.182  0.1702 -0.2338  0.2011
45647W        W54447  16.714   7.579   5.791 -0.0516 -0.0257 -0.2503
45648W        W54448   9.619   6.868   1.606 -0.2631  0.3950  0.0531
45649W        W54449  19.129   7.768   2.362 -0.0231 -0.1353  0.3396
45650W        W54450  10.681   0.742  26.167 -0.0969  0.1239 -0.1413
45651W        W54451   5.658   4.940  29.135  0.0748  0.2579 -0.1762
45652W        W54452   0.166   1.060  17.985  0.1704  0.1908  0.0416
45653W        W54453   2.045   4.127   5.297 -0.0287  0.2255 -0.1438
45654W        W54454   2.899   4.740  11.892  0.2494 -0.1540  0.1902
45655W        W54455   2.463   4.991  12.080 -0.0004  0.1196  0.2998
45656W        W54456  10.259   1.361  10.014  0.0897 -0.1228  0.0512
45657W        W54457  19.694   7.003   0.224  0.0268  0.0836  0.0593
45658W        W54458   2.658   1.289   1.248 -0.0750 -0.1705  0.2339
45659W        W54459   5.421   1.834   9.200  0.0503  0.0300 -0.1329
45660W        W54460   8.267   6.756   5.260 -0.0071 -0.1437 -0.1941
45661W        W54461   0.964   1.750   6.445 -0.1773  0.0193 -0.1689
45662W        W54462  15.963   2.921  19.929 -0.0519  0.1052  0.1925
45663W        W54463   4.128   1.374   6.253  0.0601 -0.0397  0.0014
45664W        W54464  16.149   3.561   7.473 -0.0008 -0.1179 -0.1361
45665W        W54465  13.717   1.466   8.639  0.0153  0.0252 -0.1823
45666W        W54466  23.515   2.357  26.630 -0.0290 -0.0851 -0.1661
45667W        W54467  17.024   1.590  30.235  0.2815  0.1334 -0.1602
45668W        W54468   6.072   2.680  28.352 -0.1140  0.1792 -0.2083
45669W        W54469  14.168   3.965   0.233 -0.0549  0.2161  0.4297
45670W        W54470  11.546   5.280   6.177  0.2147 -0.0468 -0.3174
45671W        W54471   2.509   2.407   0.326 -0.1821  0.1507  0.1074
45672W        W54472  23.948   0.230  28.154 -0.0831 -0.1283 -0.3594
45673W        W54473  14.827   6.931   1.936  0.0098  0.1634 -0.0821
45674W        W54474  15.615   3.138  24.578  0.1113  0.2197  0.1397
45675W        W54475  11.703   3.458  13.842 -0.0769  0.0357 -0.1571
45676W        W54476   0.578   4.576  22.068 -0.2270 -0.0553  0.0502
45677W        W54477   9.484   2.165  14.116 -0.1295  0.3612  0.2942
45678W        W54478  13.812   5.675  10.329 -0.0907 -0.1185  0.2405
45679W        W54479  14.242   3.280  12.864 -0.0465 -0.2805  0.1566
45680W        W54480  24.932   1.696   4.130 -0.1566 -0.0334 -0.2780
45681W        W54481   7.755   3.377  32.213  0.1315 -0.3943  0.1352
45682W        W54482  10.848   2.685   6.737 -0.0091  0.5336  0.2660
45683W        W54483   8.831   6.002  29.614  0.0424  0.0646  0.0158
45684W        W54484  16.502   3.735   5.692  0.0721  0.1645  0.0021
45685W        W54485  24.184   7.053   4.763 -0.2588  0.1082  0.1674
45686W        W54486   6.659   1.484  27.114  0.0519  0.0146 -0.2166
45687W        W54487   1.760   3.286   0.848  0.1245  0.0512 -0.1028
45688W        W54488   3.855   0.038   5.877  0.2158  0.1864  0.0475
45689W        W54489  23.906   4.573  20.503 -0.0431 -0.1295 -0.2604
45690W        W54490  23.157   6.019  18.480 -0.0170 -0.0884  0.1912
45691W        W54491  21.048   1.453  29.447 -0.0488  0.3710 -0.1702
45692W        W54492   7.655   1.025  11.877 -0.2547  0.1881 -0.2753
45693W        W54493   1.453   3.613  21.946 -0.0229 -0.0711  0.0410
45694W        W54494  11.757   4.374   7.176 -0.0017 -0.1388 -0.0168
45695W        W54495   6.597   1.654   0.375  0.2754 -0.0318 -0.1660
45696W        W54496  23.681   0.942   0.464 -0.0392  0.0933 -0.3843
45697W        W54497  17.586   7.373   5.717 -0.1915 -0.3368 -0.2060
45698W        W54498  15.769   1.948  26.088 -0.1876 -0.1007  0.0247
45699W        W54499  23.978   1.878   7.069  0.1434 -0.0705  0.0979
45700W        W54500   6.593   5.032   7.866 -0.0272 -0.1868  0.0373
45701W        W54501   5.171   6.805   3.067 -0.1163  0.1935  0.0290
45702W        W54502   3.625   6.482  22.102  0.2681  0.1621 -0.2561
45703W        W54503   9.121   3.388  13.720  0.0625  0.2648  0.3164
45704W        W54504   9.422   3.813  17.935 -0.1132  0.0194 -0.1788
45705W        W54505   1.725   2.785  26.629  0.2718  0.0833  0.0260
45706W        W54506  11.924   4.198  31.067  0.0881 -0.0114  0.1619
45707W        W54507  19.430   2.480  23.937 -0.0969 -0.1045 -0.2224
45708W        W54508  17.231   7.499   8.772 -0.0755  0.2799  0.0604
45709W        W54509  19.361   3.222   5.867  0.1519 -0.0299 -0.0910
45710W        W54510   4.255   7.052  12.709  0.0276 -0.1310 -0.0929
45711W        W54511   7.169   4.946  30.263  0.0239  0.0760 -0.0875
45712W        W54512   0.939   7.275  24.895 -0.0892  0.0102  0.2929
45713W        W54513  11.331   4.174   3.428  0.1700 -0.0117  0.2153
45714W        W54514   1.787   6.608   7.444  0.1740 -0.3431 -0.0617
45715W        W54515  14.063   0.121  23.743 -0.1580 -0.0138 -0.0755
45716W        W54516   0.742   2.541   7.119 -0.1821 -0.0663  0.1843
45717W        W54517  17.505   7.501  24.371 -0.2309 -0.1010  0.0378
45718W        W54518  11.071   5.665   0.558  0.0264  0.0206 -0.1942
45719W        W54519   3.202   1.752  12.353  0.0980 -0.1587 -0.0045
45720W        W54520  15.188   5.523  24.246  0.2662  0.3181  0.1974
45721W        W54521  24.149   4.528  18.306 -0.2162  0.0344 -0.1206
45722W        W54522  17.213   6.546  31.340  0.1646  0.1641 -0.0643
45723W        W54523  12.938   2.542   0.853  0.1498  0.0458  0.2104
45724W        W54524   3.900   3.702  13.526  0.1144 -0.2380 -0.3599
45725W        W54525  12.372   7.083   6.835  0.1079 -0.2576  0.1117
45726W        W54526  17.468   5.753  24.054  0.3148  0.1690 -0.0817
45727W        W54527  18.652   2.446  27.775  0.0490  0.0815  0.2563
45728W        W54528  21.954   3.462  19.117 -0.0432 -0.2074 -0.2304
45729W        W54529  11.411   4.410  30.469  0.0893  0.2251 -0.1055
45730W        W54530  16.185   3.171  26.252  0.1269 -0.2707 -0.2226
45731W        W54531   9.781   2.791  32.031  0.0297  0.0585 -0.0986
45732W        W54532  19.539   2.899  29.353 -0.1044  0.2413 -0.3633
45733W        W54533   3.481   7.668   0.041 -0.2081 -0.2358  0.0254
45734W        W54534  20.761   5.888   5.370  0.1685  0.1030  0.0295
45735W        W54535   6.756   6.551   4.184 -0.2027 -0.2200 -0.0823
45736W        W54536   7.887   7.092  25.300  0.1642  0.0146 -0.0764
45737W        W54537  11.522   6.521  13.562 -0.3369  0.0119 -0.0548
45738W        W54538  21.513   3.505  25.090 -0.0137  0.3308 -0.0170
45739W        W54539  21.274   5.830  32.560  0.3521  0.2218  0.2869
45740W        W54540  16.386   2.829  19.184  0.1026  0.0427  0.0435
45741W        W54541  12.363   6.973  11.129 -0.0261 -0.2700  0.1677
45742W        W54542  18.287   0.489  20.662  0.0505  0.3175  0.0225
45743W        W54543  13.456   1.040   7.038 -0.1971 -0.2281 -0.2379
45744W        W54544   9.661   2.510  24.191  0.0672  0.0123 -0.2100
45745W        W54545   7.538   0.324  28.522 -0.0724  0.2181  0.3796
45746W        W54546  19.114   6.207  30.779  0.1376  0.0221 -0.1134
45747W        W54547   2.354   6.641   1.991 -0.0603  0.1939  0.0242
45748W        W54548  12.967   5.517   2.324 -0.1063 -0.0908  0.1791
45749W        W54549  11.719   2.373  23.218 -0.1053 -0.0981 -0.0592
45750W        W54550  22.295   0.490  17.196 -0.1594 -0.0907 -0.0148
45751W        W54551  23.585   6.670  18.303 -0.2265 -0.0922  0.1062
45752W        W54552   5.682   3.790  26.155  0.1357 -0.0420  0.1502
45753W        W54553   2.929   3.950   1.020  0.0790  0.1108 -0.0886
45754W        W54554  12.947   2.215  30.986  0.0647 -0.1092  0.1628
45755W        W54555   3.678   6.334   3.377 -0.2711  0.1627 -0.1974
45756W        W54556  16.636   4.618  18.229  0.4725 -0.0867  0.1535
45757W        W54557   9.619   5.050  14.509  0.0397  0.0898 -0.0807
45758W        W54558   3.322   2.942  28.535  0.1433  0.0946  0.1999
45759W        W54559  12.602   6.668  10.744  0.1814  0.1664  0.1851
45760W        W54560  15.109   5.781  23.799  0.0295 -0.1557  0.1682
45761W        W54561   8.744   3.115  16.711  0.3441 -0.0803 -0.1796
45762W        W54562   4.173   7.017  24.641 -0.1532  0.2178  0.1003
45763W        W54563  18.178   2.478   7.200 -0.2542 -0.0231 -0.1060
45764W        W54564  16.274   0.773  10.246 -0.1864  0.2953  0.1028
45765W        W54565  18.131   3.623  18.793  0.0293 -0.2270  0.3548
45766W        W54566  21.289   0.024  19.469 -0.0878 -0.0372  0.0163
45767W        W54567   0.255   4.732  24.060  0.1827 -0.1750  0.1985
45768W        W54568   6.930   7.186  32.445  0.0760 -0.0457  0.0921
45769W        W54569   7.557   1.151   8.119  0.0593 -0.1659 -0.2377
45770W        W54570   0.517   6.822  24.756  0.0426  0.0789 -0.0355
45771W        W54571  20.996   2.322   6.582  0.1015 -0.0449  0.1632
45772W        W54572  20.504   1.309  23.008 -0.2367  0.1463  0.3904
45773W        W54573  18.778   6.085  15.868 -0.0039 -0.1636  0.1078
45774W        W54574  21.830   2.011  17.414  0.0777  0.1842  0.0357
45775W        W54575   3.541   5.674  27.413  0.0482 -0.0376  0.3181
45776W        W54576  22.470   6.944   9.643 -0.2399 -0.0058 -0.0747
45777W        W54577  13.085   6.141  24.280 -0.3313  0.2048 -0.3268
45778W        W54578  16.027   7.405  23.526 -0.0737 -0.1011  0.3312
45779W        W54579  23.733   7.178   1.612 -0.1240  0.1054  0.0857
45780W        W54580   4.964   0.687  13.205 -0.3078  0.0249  0.0274
45781W        W54581  16.998   5.675  19.480 -0.1133 -0.4181 -0.1410
45782W        W54582   2.417   4.559   3.648 -0.2042  0.1952 -0.0949
45783W        W54583  19.529   2.651  32.527 -0.1190 -0.2515 -0.0068
45784W        W54584  12.349   7.209   2.389  0.1110  0.2142  0.2739
45785W        W54585  19.242   1.028  23.954  0.0860  0.2083  0.2018
45786W        W54586  16.284   3.046   1.549 -0.0227 -0.1702 -0.1405
45787W        W54587  14.420   7.125  32.229 -0.1311  0.2612 -0.1618
45788W        W54588   9.582   1.661   8.808 -0.1893  0.1589  0.1286
45789W        W54589  10.614   4.162  31.439  0.1501 -0.1216 -0.1190
45790W        W54590   4.467   7.593  12.147 -0.1287 -0.0560 -0.0037
45791W        W54591  18.867   0.817  26.573 -0.1240  0.0516  0.0642
45792W        W54592  23.958   7.113   5.787  0.0507 -0.0994  0.0953
45793W        W54593   6.551   1.814   8.755  0.0251 -0.2264 -0.0948
45794W        W54594   1.352   3.222  31.825 -0.0079 -0.0602 -0.1974
45795W        W54595   1.847   0.096  30.960  0.4122 -0.0943 -0.0991
45796W        W54596   8.263   5.027   9.170  0.1660 -0.0574  0.2731
45797W        W54597   7.604   3.146  31.761 -0.0812  0.0382  0.0372
45798W        W54598  23.300   7.645   2.878  0.1167 -0.2475  0.0097
45799W        W54599  23.466   7.362   9.719 -0.0915  0.2856  0.4424
45800W        W54600   7.007   2.831  15.082  0.2173  0.2622 -0.1833
45801W        W54601  20.617   6.132  23.843  0.3373  0.1212 -0.1157
45802W        W54602   2.960   5.156  23.414  0.4614 -0.3173  0.0734
45803W        W54603  13.610   4.752  23.082  0.1769  0.3106  0.4771
45804W        W54604  15.391   6.253  30.203 -0.0054  0.0483 -0.1699
45805W        W54605  24.621   6.409  11.095  0.0433  0.1661 -0.2239
45806W        W54606   1.715   1.145  23.437  0.1475 -0.2034  0.0482
45807W        W54607  22.277   4.085  18.764 -0.0679 -0.1367 -0.1180
45808W        W54608   2.426   1.872   5.860  0.0085  0.2593 -0.2223
45809W        W54609  16.160   4.100  30.667 -0.1359 -0.0563 -0.0145
45810W        W54610  19.041   4.647  29.716 -0.4702  0.0136 -0.2400
45811W        W54611  18.711   0.951  27.714 -0.1995  0.2065 -0.4144
45812W        W54612   9.941   0.263  29.432 -0.3428 -0.2630  0.0229
45813W        W54613   1.244   1.142  24.285  0.2568 -0.0802 -0.0379
45814W        W54614   6.638   2.399  32.475  0.0452 -0.1843 -0.1586
45815W        W54615   3.784   5.937  21.271  0.3241 -0.0403  0.1104
45816W        W54616   6.781   3.743  30.594  0.0477  0.0181 -0.4857
45817W        W54617  18.707   6.557  16.207  0.0080  0.3839  0.0570
45818W        W54618  15.732   4.914  28.078  0.1113 -0.0924 -0.1266
45819W        W54619  21.894   2.383   3.843 -0.0212 -0.0378  0.0980
45820W        W54620   7.949   3.037   3.460 -0.0022  0.1342 -0.2251
45821W        W54621   6.962   7.412   8.234 -0.0332  0.0299 -0.0915
45822W        W54622   0.402   0.017  26.057  0.1513 -0.0695 -0.1618
45823W        W54623  18.146   0.403   0.864  0.1681 -0.1425 -0.0633
45824W        W54624  12.235   2.931   3.999 -0.1186  0.0661 -0.1145
45825W        W54625  16.829   6.443  26.167 -0.0570  0.0273 -0.2902
45826W        W54626   7.904   2.002  16.038 -0.1265  0.0477  0.0584
45827W        W54627   0.257   4.083  27.623 -0.3315  0.2196 -0.2260
45828W        W54628  11.586   5.199  22.025 -0.0326 -0.0318 -0.0844
45829W        W54629  18.158   4.988  27.009 -0.1390 -0.2557  0.2590
45830W        W54630   5.135   1.779  25.542 -0.1222  0.0761  0.0546
45831W        W54631   1.173   0.938  25.075  0.2478 -0.0388 -0.1494
45832W        W54632  16.206   2.175   7.809 -0.0654 -0.1446 -0.2764
45833W        W54633  12.014   5.276   1.238  0.1149  0.0548  0.3044
45834W        W54634  15.005   7.658   4.175 -0.2315  0.0899  0.3457
45835W        W54635   0.448   5.561  25.128  0.0877  0.0137 -0.1918
45836W        W54636  20.041   0.272  25.279  0.0037 -0.2541  0.1716
45837W        W54637  13.835   0.178  26.800 -0.1921  0.0449 -0.2091
45838W        W54638  24.996   1.022  30.320  0.0028  0.1818 -0.1974
45839W        W54639   8.942   6.532  18.218  0.0544 -0.0747 -0.0326
45840W        W54640   4.182   7.354  13.956  0.1251 -0.1323  0.0445
45841W        W54641  16.465   3.794  24.575  0.0842 -0.0483  0.2924
45842W        W54642   6.307   3.166   7.679  0.0143  0.0286  0.0762
45843W        W54643   7.053   0.338   2.780 -0.0894  0.0524 -0.2983
45844W        W54644   4.171   4.576  11.463 -0.0500  0.4069 -0.1676
45845W        W54645   6.948   2.309   8.955  0.1638 -0.2923 -0.0389
45846W        W54646  18.824   0.948   0.471  0.1897 -0.4138 -0.0739
45847W        W54647  10.379   2.167   5.250 -0.1201 -0.0848  0.2552
45848W        W54648  15.134   3.534   5.661  0.1553  0.0528 -0.0335
45849W        W54649  19.085   3.687  26.383 -0.2679  0.2536 -0.0664
45850W        W54650   3.243   4.497  31.623  0.1000 -0.0678  0.3953
45851W        W54651   8.307   6.616   6.218 -0.1791  0.0787 -0.1363
45852W        W54652  15.442   5.100   6.598  0.1746  0.0773  0.0518
45853W        W54653  16.913   4.757   4.987  0.1352 -0.2014  0.1904
45854W        W54654  10.872   2.425  28.320 -0.1599 -0.2247 -0.2108
45855W        W54655  24.514   6.089   3.207  0.2012 -0.0358 -0.2060
45856W        W54656  18.361   3.536  30.138  0.2024 -0.1527  0.0158
45857W        W54657  17.077   1.334  29.384  0.2372 -0.0605 -0.2407
45858W        W54658   1.212   4.712  23.933 -0.2920 -0.2589  0.2833
45859W        W54659  21.309   2.510  18.079 -0.0652 -0.1626  0.0410
45860W        W54660   2.726   5.582   0.163  0.2730 -0.1254 -0.0585
45861W        W54661  18.051   2.423   2.156 -0.0403 -0.0114  0.0144
45862W        W54662  15.689   0.480   6.292 -0.1884  0.0127 -0.0098
45863W        W54663  21.943   0.954  16.019 -0.0616 -0.0528 -0.2898
45864W        W54664  17.703   3.891  18.670  0.1719  0.0540 -0.1471
45865W        W54665   2.294   0.179  25.085  0.3982  0.1154  0.1634
45866W        W54666  10.070   4.151   4.289 -0.1477 -0.2914  0.1407
45867W        W54667  24.009   0.995   0.053 -0.2692 -0.3852  0.0463
45868W        W54668  10.593   0.028   8.854  0.0604 -0.1665  0.0441
45869W        W54669   4.813   4.154  28.204  0.2700  0.2205  0.2105
45870W        W54670   2.193   4.203   3.423 -0.1822  0.0522  0.1120
45871W        W54671  13.852   4.130   8.801  0.1005  0.0094  0.0433
45872W        W54672   6.637   0.074   4.834 -0.3323  0.1193 -0.0612
45873W        W54673   9.984   3.130  10.478  0.0080  0.2191 -0.1662
45874W        W54674   2.419   2.121   2.004 -0.0240  0.3590 -0.1861
45875W        W54675  15.715   1.458   0.862  0.1937  0.1686 -0.1329
45876W        W54676  22.376   6.268   6.269  0.0054 -0.3302 -0.1703
45877W        W54677   9.974   7.525  10.068  0.2800 -0.1361  0.0390
45878W        W54678  22.422   2.393  19.515 -0.3271 -0.1284  0.4097
45879W        W54679  22.258   1.697  30.776 -0.1085 -0.1970  0.0320
45880W        W54680  22.123   5.985   8.683  0.2231 -0.3062  0.1515
45881W        W54681   0.567   5.633  26.071  0.2710  0.2089  0.0818
45882W        W54682  19.794   6.131  20.212  0.2705 -0.0759 -0.0657
45883W        W54683  10.463   3.288  12.907  0.0811 -0.0593 -0.2382
45884W        W54684  12.862   0.621  26.058  0.0558 -0.0454 -0.3472
45885W        W54685  19.716   4.312   2.814 -0.1062  0.1107  0.0965
45886W        W54686  11.863   6.544  22.502  0.1584  0.0101 -0.1713
45887W        W54687   4.331   0.881   4.724 -0.1490  0.2348  0.3309
45888W        W54688  24.487   1.815   2.019  0.0520 -0.0564  0.1463
45889W        W54689   0.916   1.443   5.022  0.0771  0.1119 -0.0486
45890W        W54690   4.012   5.892  13.873  0.0173 -0.0258  0.1403
45891W        W54691  19.178   7.444  32.308 -0.2707 -0.2277  0.1676
45892W        W54692  15.053   5.240  20.826  0.1355 -0.1368  0.0450
45893W        W54693   2.062   2.330  26.583  0.1921 -0.2406 -0.0895
45894W        W54694  14.580   4.288  23.614 -0.0527  0.1730 -0.1850
45895W        W54695   4.705   2.694  11.175 -0.0765 -0.0625  0.0043
45896W        W54696   8.870   2.596   4.807 -0.1264 -0.1717 -0.0893
45897W        W54697  18.887   3.604   7.977 -0.0578  0.0230  0.3869
45898W        W54698   6.546   4.792  31.924 -0.3655  0.3082 -0.1226
45899W        W54699  12.985   2.835  22.442 -0.1915  0.2847 -0.0389
45900W        W54700   0.289   4.555  29.649  0.1359 -0.0512  0.2233
45901W        W54701   1.256   0.696  18.304 -0.0018 -0.1065 -0.1643
45902W        W54702  15.850   5.610   8.080 -0.1275 -0.1309 -0.3367
45903W        W54703  23.937   3.151  30.437 -0.3058  0.0929  0.0106
45904W        W54704   6.990   2.913  17.052 -0.1776  0.1040  0.0673
45905W        W54705   6.473   5.279  30.682  0.1996  0.1074  0.1267
45906W        W54706   5.467   6.865   1.662  0.0054 -0.0287  0.1238
45907W        W54707   2.507   7.005  10.111 -0.1860  0.3785  0.1923
45908W        W54708   2.772   5.111   0.088 -0.3345  0.0133 -0.1803
45909W        W54709  21.206   0.592  20.065  0.1202  0.0882  0.0722
45910W        W54710  25.007   2.002  10.787  0.1361  0.5564 -0.0179
45911W        W54711   4.661   3.444  13.979 -0.3486  0.1965  0.0306
45912W        W54712  20.823   0.134   6.600  0.0746  0.2162 -0.0593
45913W        W54713  11.379   3.804  31.819  0.1596  0.0090  0.0187
45914W        W54714  24.158   5.178   9.566 -0.1170 -0.0526  0.0226
45915W        W54715   1.587   1.455  31.025 -0.2455  0.1348  0.0878
45916W        W54716  15.279   2.602  27.210  0.0965  0.1514  0.0423
45917W        W54717  17.416   6.035  21.037  0.0008 -0.0439 -0.3046
45918W        W54718   2.769   2.225  28.213 -0.3749 -0.0526 -0.2471
45919W        W54719  11.758   5.971   5.579  0.0362 -0.2062 -0.0834
45920W        W54720  16.583   2.544  23.631  0.2067  0.1274  0.1100
45921W        W54721   1.460   4.523   4.238  0.0624 -0.3384  0.1976
45922W        W54722   1.067   3.265   8.627 -0.0794 -0.2360 -0.1318
45923W        W54723   6.610   2.624   1.544  0.3428 -0.2703  0.0235
45924W        W54724   9.723   2.613   7.777  0.0437  0.2161 -0.2345
45925W        W54725   7.107   5.445  23.468  0.1048  0.0099 -0.0604
45926W        W54726  14.007   1.986   4.185  0.0565 -0.0932 -0.0260
45927W        W54727  15.315   0.053  24.003 -0.3709 -0.1676 -0.2138
45928W        W54728  10.563   4.132  14.266  0.0348  0.2827  0.2399
45929W        W54729  15.565   5.800  28.304  0.0832  0.0210 -0.0337
45930W        W54730  15.271   4.721   1.620 -0.0366  0.2793  0.3044
45931W        W54731  16.988   6.285  27.933  0.3057 -0.0673  0.0444
45932W        W54732  20.837   6.261  29.423  0.0596  0.0872 -0.0443
45933W        W54733   8.149   1.477  26.699  0.2302 -0.2344 -0.1641
45934W        W54734   2.644   2.208   5.546 -0.0569  0.1353 -0.0107
45935W        W54735   4.213   3.190   7.481  0.2989  0.0257  0.1520
45936W        W54736  21.706   1.752  16.900  0.2385 -0.2903 -0.2155
45937W        W54737   7.270   7.775   2.107 -0.0931 -0.1275  0.0906
45938W        W54738  23.594   1.751  26.928  0.0915  0.3919  0.0857
45939W        W54739  22.659   4.120  30.214  0.1385 -0.1929 -0.1034
45940W        W54740  15.585   4.769   2.053  0.0658 -0.0362 -0.1975
45941W        W54741  18.331   7.696   1.521  0.0856 -0.2648 -0.1199
45942W        W54742   9.460   3.489  13.134  0.3429 -0.1349  0.0673
45943W        W54743   8.060   7.273   5.426  0.0050 -0.1663 -0.2945
45944W        W54744  20.706   2.205   4.141  0.1691 -0.1480  0.0548
45945W        W54745   7.078   1.703  22.325 -0.0094  0.0637 -0.0953
45946W        W54746  12.521   6.220  21.251 -0.0859  0.0305 -0.0303
45947W        W54747  23.770   6.283  29.505  0.1159 -0.1761  0.1652
45948W        W54748   9.179   6.573  13.693  0.1212  0.0379  0.2447
45949W        W54749   5.120   3.549  22.300  0.1033  0.0525 -0.4029
45950W        W54750  23.946   2.719  26.679 -0.1984  0.1097  0.0015
45951W        W54751   0.581   2.296  18.339 -0.5098  0.2870  0.0481
45952W        W54752  17.066   2.656   6.482 -0.2440  0.1931 -0.3169
45953W        W54753   6.213   4.216  25.403 -0.1300 -0.2130 -0.0041
45954W        W54754  25.004   5.755  21.387  0.0004 -0.0733  0.0050
45955W        W54755  17.098   2.391  17.399 -0.3131  0.1832 -0.2289
45956W        W54756   6.853   1.775   0.890 -0.2225 -0.4361  0.0107
45957W        W54757  16.136   0.123  29.903 -0.2185  0.0566  0.0348
45958W        W54758  22.428   0.997  20.417  0.0503  0.2338  0.1802
45959W        W54759   0.718   6.108  24.297 -0.1697  0.0078  0.0860
45960W        W54760  21.997   7.087  17.874  0.0366 -0.2440  0.0696
45961W        W54761   8.325   2.123  17.848  0.3486 -0.0817 -0.0547
45962W        W54762   0.614   0.369  32.642 -0.2843  0.0492  0.0332
45963W        W54763   2.672   3.898  10.833  0.0979 -0.1051  0.1535
45964W        W54764   5.329   6.238  26.246  0.0077 -0.2610 -0.1030
45965W        W54765  24.186   1.095   5.789 -0.0656 -0.1258 -0.0278
45966W        W54766   8.759   5.741  17.254  0.2462 -0.1061 -0.1040
45967W        W54767   2.466   5.034   3.689 -0.0306  0.0535 -0.0773
45968W        W54768  21.926   2.194   9.762  0.0723 -0.0513  0.1274
45969W        W54769  14.976   5.335   8.137  0.1687 -0.0537 -0.0735
45970W        W54770   9.073   1.371   2.372  0.2166  0.0605 -0.0861
45971W        W54771   4.961   3.185  24.868 -0.2148  0.1321 -0.2439
45972W        W54772   9.373   1.283  26.641  0.0932 -0.1750 -0.2863
45973W        W54773  19.462   5.392   2.234  0.2815 -0.1613  0.2203
45974W        W54774  20.061   7.674  31.148  0.2097 -0.0599  0.1479
45975W        W54775  22.294   5.104  31.683 -0.0185  0.0191  0.0415
45976W        W54776  13.137   3.265  29.770  0.1533  0.0552 -0.0424
45977W        W54777  15.146   5.993   1.734  0.3538 -0.0764 -0.0672
45978W        W54778   1.193   0.588  10.518 -0.1809 -0.1294  0.2486
45979W        W54779   3.042   0.366  10.367 -0.0225 -0.2015 -0.1131
45980W        W54780   2.786   7.416   1.190 -0.0217 -0.1587 -0.0157
45981W        W54781  23.472   2.109  26.079  0.0089 -0.0160 -0.1180
45982W        W54782   8.250   3.455  17.785 -0.0899  0.0606 -0.0618
45983W        W54783   3.546   4.470   8.823 -0.2303 -0.2461 -0.2435
45984W        W54784   6.950   4.628   6.896  0.1436 -0.0061 -0.0886
45985W        W54785   8.639   1.294  13.283  0.2090  0.1296  0.1022
45986W        W54786  24.865   7.573  26.768 -0.2029  0.0415  0.0785
45987W        W54787  20.502   7.585  23.432  0.0702  0.1460  0.1949
45988W        W54788   1.990   5.225   6.886  0.2151  0.2694 -0.4779
45989W        W54789   9.047   3.509  27.232 -0.1716  0.2601  0.1757
45990W        W54790   7.282   4.612  16.450 -0.0233 -0.2601 -0.1698
45991W        W54791   0.812   0.755   7.006  0.0064 -0.1462 -0.1504
45992W        W54792  15.592   4.467   0.102  0.0291 -0.2500  0.0596
45993W        W54793  20.252   6.783   1.850 -0.0461 -0.1327 -0.6149
45994W        W54794   2.119   1.159   2.199 -0.1909  0.0198  0.2176
45995W        W54795  19.395   5.180  17.853  0.0775 -0.0090  0.2233
45996W        W54796   1.621   0.639  19.583  0.0859 -0.0091 -0.0724
45997W        W54797  12.998   7.014  23.922  0.1780  0.1998  0.3569
45998W        W54798  22.516   5.737   6.146  0.1845  0.0663 -0.1606
45999W        W54799  13.896   2.603   0.421  0.1749 -0.0729 -0.1806
46000W        W54800  23.326   5.428  10.255 -0.1740  0.0692  0.0656
46001W        W54801  13.475   3.926  10.551 -0.1871 -0.0292  0.0039
46002W        W54802  24.734   1.852  27.407  0.3254 -0.1792 -0.0402
46003W        W54803   7.002   2.799   5.097 -0.1029 -0.3207 -0.0506
46004W        W54804  20.314   3.702  16.795 -0.1649  0.0628 -0.1688
46005W        W54805  24.734   7.736  20.668  0.0740 -0.2270  0.2916
46006W        W54806   3.094   5.609  12.204 -0.1396 -0.1613 -0.2206
46007W        W54807  10.663   7.255  22.465  0.1134  0.0781 -0.0042
46008W        W54808  16.521   2.582   6.586  0.0921 -0.0078 -0.0220
46009W        W54809   8.035   7.289   2.246 -0.0199  0.0928 -0.1194
46010W        W54810   6.713   0.890  29.745 -0.0791  0.1334  0.1614
46011W        W54811   5.527   1.615   3.108  0.3149 -0.3733 -0.0570
46012W        W54812  10.443   1.517  26.716  0.1547  0.3035 -0.1928
46013W        W54813   8.617   1.587  27.027  0.0612  0.3289 -0.0384
46014W        W54814  24.448   7.115  22.927  0.2390  0.3205  0.1306
46015W        W54815   2.583   6.655  12.168 -0.0339  0.0069  0.3603
46016W        W54816  20.255   7.367  24.896  0.2465  0.0692  0.3381
46017W        W54817   9.948   6.596  13.542 -0.3095  0.0929 -0.3055
46018W        W54818   8.788   2.812  31.351  0.0708 -0.0066  0.0600
46019W        W54819  15.745   4.380  21.842  0.0439 -0.1173  0.0256
46020W        W54820  17.098   7.693  11.091  0.0674  0.1652  0.3113
46021W        W54821   1.459   1.726   9.993  0.0075 -0.1429  0.0876
46022W        W54822   2.561   2.499  28.987  0.1137 -0.1399 -0.0016
46023W        W54823  14.968   0.043  12.474 -0.0557  0.1065  0.0236
46024W        W54824  19.426   4.838  17.278  0.2205 -0.0744 -0.0295
46025W        W54825  16.772   0.623   5.672  0.0139 -0.1825 -0.0661
46026W        W54826   6.185   5.833  28.706 -0.1966  0.0968  0.0151
46027W        W54827   1.380   6.578   3.894 -0.1625  0.3127 -0.1652
46028W        W54828   3.403   3.933  26.095 -0.0700  0.1126 -0.1859
46029W        W54829   0.380   7.155   1.999 -0.2973 -0.3266 -0.0151
46030W        W54830   2.234   2.974  25.605 -0.3178 -0.3772  0.0100
46031W        W54831  23.779   3.427  25.961 -0.3515  0.0696 -0.1135
46032W        W54832   3.078   0.883  11.910  0.2113  0.1102  0.0291
46033W        W54833  14.840   4.370  11.968  0.0161 -0.1035 -0.0649
46034W        W54834  21.906   5.498  16.134  0.1834 -0.2164 -0.1952
46035W        W54835   3.034   1.644  28.620  0.1317 -0.0813  0.1636
46036W        W54836  15.712   6.386  25.943 -0.0041  0.1837 -0.0684
46037W        W54837   5.853   0.459  12.052 -0.1568  0.2432 -0.1122
46038W        W54838  22.132   0.555  31.974 -0.2299  0.1617 -0.0879
46039W        W54839  18.791   3.309  16.640  0.1198  0.2507 -0.1857
46040W        W54840   6.273   5.417   1.374  0.0122 -0.0937 -0.0061
46041W        W54841  12.747   6.402   8.265  0.0886  0.1116 -0.0343
46042W        W54842   6.276   7.812   7.212  0.1325 -0.1131 -0.1649
46043W        W54843  13.791   5.533  30.739 -0.3566  0.1006 -0.2679
46044W        W54844  21.848   5.833  15.781  0.0382 -0.0429  0.1141
46045W        W54845   9.038   1.743   8.002 -0.1600 -0.0039 -0.0234
46046W        W54846   1.069   2.427  30.368 -0.1505  0.1518  0.2798
46047W        W54847   7.845   3.275  10.731 -0.1235  0.1852 -0.1404
46048W        W54848   5.337   1.285  28.207  0.0585  0.3416 -0.0886
46049W        W54849  13.746   1.919   9.081 -0.0198 -0.0795 -0.1214
46050W        W54850   7.451   3.834  29.564 -0.1317  0.1310 -0.0016
46051W        W54851   0.630   1.850  22.865  0.1910 -0.1519 -0.1096
46052W        W54852   3.811   1.977  10.428 -0.0914  0.0049 -0.1045
46053W        W54853  12.393   4.725  11.056 -0.0888 -0.3285 -0.3414
46054W        W54854   9.037   2.299   2.921  0.0489 -0.1775  0.0742
46055W        W54855  24.918   1.505  22.967  0.0319 -0.1755  0.0103
46056W        W54856  10.879   5.176  23.628  0.0039  0.0850 -0.1489
46057W        W54857   9.058   4.416   2.070  0.0665  0.2140  0.2487
46058W        W54858   0.375   4.503  31.812 -0.0258 -0.1952  0.0106
46059W        W54859   7.494   0.884  15.818  0.0781  0.1762  0.1906
46060W        W54860  16.480   4.287  21.578 -0.2749  0.0984 -0.0020
46061W        W54861   6.773   1.439  14.849  0.0480  0.1249 -0.2631
46062W        W54862  17.383   0.808  20.972  0.1143 -0.1078 -0.1026
46063W        W54863  20.402   2.886  15.384 -0.2293  0.0001  0.0697
46064W        W54864  19.923   4.437  28.918  0.3039 -0.1250  0.0198
46065W        W54865   6.826   2.943   2.607  0.2760  0.0555 -0.0470
46066W        W54866  14.117   4.476   7.728 -0.1382 -0.3214 -0.0576
46067W        W54867  15.074   0.943  23.835 -0.0619  0.2536 -0.0676
46068W        W54868   4.670   3.038  10.794  0.2140 -0.1305 -0.0034
46069W        W54869   3.295   3.058   0.839  0.1123 -0.0868  0.1590
46070W        W54870  10.940   3.579   1.667  0.0260 -0.1350  0.1641
46071W        W54871  17.240   1.281  10.533  0.1264 -0.0744  0.1315
46072W        W54872  12.824   4.220  32.235  0.1168 -0.0398  0.1549
46073W        W54873  20.831   3.534   8.928 -0.1218 -0.0335 -0.1335
46074W        W54874   4.160   3.389   5.209  0.1230  0.3884 -0.0712
46075W        W54875  12.861   1.938  21.430  0.0300 -0.3048  0.3091
46076W        W54876   2.533   0.513  21.394  0.3270  0.2113 -0.1740
46077W        W54877   7.015   4.935  25.131 -0.1021 -0.0184  0.0298
46078W        W54878   8.740   3.907  27.479 -0.2710 -0.0543 -0.0660
46079W        W54879  16.462   1.529  12.338 -0.0610  0.1158  0.0494
46080W        W54880   6.385   6.132   1.001 -0.1241  0.0234  0.1157
46081W        W54881  19.071   3.572   8.405 -0.0928  0.1665 -0.2735
46082W        W54882  17.529   5.834  24.628 -0.1338  0.0818 -0.0227
46083W        W54883   5.917   0.622  11.140 -0.0742 -0.0278  0.0002
46084W        W54884  22.377   3.149  22.335  0.2760 -0.1366  0.3155
46085W        W54885   5.889   4.572   5.687 -0.2477  0.0007 -0.0848
46086W        W54886   1.334   3.777  23.691 -0.0281  0.0701  0.0243
46087W        W54887  14.840   3.446   9.984  0.0546 -0.4085  0.1862
46088W        W54888   9.635   4.136   9.234 -0.1600 -0.0543 -0.3745
46089W        W54889   6.568   3.769  29.711 -0.0245  0.0500  0.0415
46090W        W54890  11.096   3.103  29.252 -0.0738 -0.1597 -0.0887
46091W        W54891   7.791   5.589  17.396  0.0595 -0.3418 -0.0484
46092W        W54892  24.677   2.879  30.949 -0.2492  0.4540 -0.1364
46093W        W54893  24.418   7.074   6.020 -0.0331 -0.1384  0.0674
46094W        W54894  24.583   1.967  20.295  0.0096  0.0256 -0.3055
46095W        W54895  22.015   4.304  25.065 -0.0848 -0.0229  0.4749
46096W        W54896  17.581   2.483   1.455  0.3447 -0.1018  0.0535
46097W        W54897  19.791   7.790  20.539 -0.1657 -0.0566 -0.0552
46098W        W54898  23.786   3.145   4.242  0.0406 -0.0344 -0.0314
46099W        W54899  10.589   7.811  26.273  0.0635 -0.1385 -0.1372
46100W        W54900  19.244   1.514   3.919  0.0080 -0.1944 -0.0024
46101W        W54901   2.921   0.791   7.477  0.2824  0.4082  0.1433
46102W        W54902  11.488   4.163  25.474  0.1755  0.1558 -0.2360
46103W        W54903  21.043   1.081   4.984  0.0650 -0.1053  0.1377
46104W        W54904   4.463   2.878  22.189 -0.1829 -0.0584 -0.2089
46105W        W54905   4.141   3.600  29.916  0.0929 -0.1083 -0.0026
46106W        W54906  18.911   2.573   7.236 -0.5560 -0.0628  0.2230
46107W        W54907  17.239   2.418  26.785  0.1971 -0.1032  0.1238
46108W        W54908   0.448   0.418   9.803 -0.1629  0.1997  0.0978
46109W        W54909  16.968   3.788  25.820 -0.0389 -0.2409  0.4784
46110W        W54910  22.068   2.830  20.944  0.3558 -0.0970 -0.0623
46111W        W54911  12.962   5.080   1.356  0.1373 -0.2069 -0.1571
46112W        W54912   9.648   5.355  16.853 -0.1350  0.1032 -0.0937
46113W        W54913  21.106   1.424   3.942 -0.4555  0.0153  0.1510
46114W        W54914  22.893   3.768   4.309 -0.1311 -0.0490  0.0186
46115W        W54915   8.696   4.284  16.841  0.2355  0.0905  0.1895
46116W        W54916   3.210   4.189   4.949  0.0838 -0.1912  0.1156
46117W        W54917   5.476   6.785  15.093  0.4839 -0.1480 -0.0258
46118W        W54918  15.392   3.298  21.798 -0.1833  0.1538 -0.0650
46119W        W54919  21.518   1.358  28.693  0.0147  0.1235 -0.1431
46120W        W54920  22.279   4.845  17.125  0.2388  0.3981 -0.2869
46121W        W54921   1.513   1.085   5.682 -0.0830 -0.3035 -0.0479
46122W        W54922  13.380   1.114  28.202 -0.2686  0.2116  0.2632
46123W        W54923   0.266   5.274  31.192 -0.1051 -0.0453 -0.2112
46124W        W54924   2.421   5.903   6.626  0.0940 -0.1770 -0.0443
46125W        W54925   2.383   7.781   7.936  0.1987 -0.2900  0.1222
46126W        W54926  21.682   5.457  30.208  0.0688 -0.1643 -0.1648
46127W        W54927  10.403   1.607  28.601  0.0954  0.0881  0.1435
46128W        W54928   6.397   7.329   7.454  0.0949 -0.0139 -0.1395
46129W        W54929  16.684   2.995   6.269 -0.2729  0.0868 -0.3408
46130W        W54930  12.378   6.310  14.780 -0.4604 -0.0310 -0.0745
46131W        W54931  22.387   7.685  26.824 -0.1112  0.0751  0.0205
46132W        W54932  21.421   7.158  17.865 -0.1868 -0.0561 -0.2007
46133W        W54933   3.596   5.609  11.110  0.0711  0.0642 -0.0495
46134W        W54934  14.493   0.991   0.207  0.1441 -0.3618  0.0070
46135W        W54935   3.481   5.174  11.874 -0.3210 -0.2203  0.3911
46136W        W54936  22.519   5.652  24.174  0.0964 -0.0026  0.1409
46137W        W54937  10.787   1.862   8.719  0.0448  0.0794  0.1168
46138W        W54938  11.747   3.908   0.818 -0.0490 -0.0957  0.1401
46139W        W54939  16.466   4.332   0.301  0.0428  0.0551 -0.1649
46140W        W54940   6.121   2.368   5.111  0.0981  0.2142 -0.2759
46141W        W54941  21.394   7.754  16.354 -0.2264  0.2599 -0.0426
46142W        W54942  15.979   1.962  10.946 -0.0183  0.0620  0.0183
46143W        W54943  18.839   1.906  22.352  0.0073 -0.0142  0.0026
46144W        W54944   0.042   3.302  10.098 -0.0888  0.2266 -0.1214
46145W        W54945   8.469   5.509  28.967  0.0727 -0.1291 -0.0587
46146W        W54946   3.483   4.920  29.728  0.1992  0.0050 -0.3279
46147W        W54947  10.895   0.481  30.236  0.1144  0.0827  0.0105
46148W        W54948  20.415   1.922   5.346 -0.2148 -0.1118  0.0777
46149W        W54949   1.226   5.312   3.056 -0.2838 -0.0998  0.2443
46150W        W54950  13.172   3.652   6.796  0.2543 -0.1172 -0.2357
46151W        W54951  20.706   1.868   5.816  0.1805 -0.0693  0.2382
46152W        W54952  17.199   7.410   2.795  0.0896  0.1203 -0.1582
46153W        W54953   6.157   4.570  17.516 -0.0155  0.1499  0.1855
46154W        W54954   2.752   4.398  10.778  0.0741  0.0691  0.1239
46155W        W54955   2.793   3.505  25.643  0.1966  0.2662  0.1343
46156W        W54956   3.061   5.718  27.543  0.2145  0.0807 -0.0703
46157W        W54957  18.172   6.442   8.512  0.1068 -0.1042 -0.0631
46158W        W54958  11.517   2.155  27.105  0.0977 -0.0837 -0.0240
46159W        W54959  14.900   5.556   1.490  0.4631  0.0292  0.1763
46160W        W54960  20.944   6.174  16.676 -0.1056  0.2656 -0.0194
46161W        W54961   6.359   5.984  31.173 -0.2363 -0.1482 -0.1799
46162W        W54962   1.809   2.305   4.412 -0.0073  0.1180 -0.1716
46163W        W54963  10.390   7.550  29.053 -0.1706  0.2404 -0.3279
46164W        W54964  11.898   5.765   9.392  0.1323  0.0533  0.2149
46165W        W54965   3.192   0.632  26.837  0.0618  0.0029 -0.1059
46166W        W54966  15.086   2.831  31.812  0.0575 -0.0892  0.0266
46167W        W54967   9.608   1.298   7.237  0.2369 -0.0074 -0.1925
46168W        W54968   0.185   1.460  29.956  0.0764  0.1703 -0.1315
46169W        W54969   2.375   4.655   8.514 -0.1668 -0.3980  0.0982
46170W        W54970   9.095   6.302  10.004  0.3675 -0.0197  0.1432
46171W        W54971   3.474   2.414  21.154  0.2628  0.0924  0.0525
46172W        W54972  12.285   7.390  15.450  0.2167 -0.4662 -0.1713
46173W        W54973  24.221   4.783   1.830  0.1920  0.1376  0.1045
46174W        W54974   3.626   4.435  12.308  0.0510 -0.1452 -0.1548
46175W        W54975  24.884   7.575  22.474  0.0137 -0.2732  0.2962
46176W        W54976   8.196   2.469  25.364 -0.0132 -0.0935 -0.0868
46177W        W54977   9.684   2.561  24.824  0.0049  0.2046  0.0961
46178W        W54978   8.050   7.342  28.868 -0.0503 -0.2020 -0.0933
46179W        W54979   0.348   1.900   7.918  0.0698  0.1469 -0.3096
46180W        W54980  14.065   1.085  11.686 -0.1147 -0.1589  0.0040
46181W        W54981   9.386   4.339   2.419  0.0985 -0.3854 -0.2173
46182W        W54982  19.794   7.069  16.469  0.0518  0.1173  0.0983
46183W        W54983   9.983   1.455   2.136  0.0629 -0.3239 -0.0410
46184W        W54984  18.488   2.197  32.539  0.3698  0.2505  0.0823
46185W        W54985  13.580   5.756  13.780  0.1027  0.1602  0.0706
46186W        W54986  23.514   7.690   6.260 -0.1411 -0.0330  0.0609
46187W        W54987  14.275   2.020  23.103  0.0240 -0.5484  0.0590
46188W        W54988   7.896   3.567   3.533 -0.1199  0.1212 -0.0426
46189W        W54989  13.303   4.595  22.111 -0.0209  0.2445  0.1448
46190W        W54990   6.020   4.309   4.489  0.1143 -0.0569 -0.1329
46191W        W54991   2.252   2.574  22.342 -0.2281 -0.0761 -0.3135
46192W        W54992   3.830   4.966  28.602 -0.0329 -0.0961 -0.0940
46193W        W54993   0.205   3.546  26.948 -0.2924  0.1668  0.1451
46194W        W54994  12.882   1.373  15.670 -0.2601  0.0016 -0.1964
46195W        W54995  23.491   6.073  29.069 -0.1015  0.2182  0.0767
46196W        W54996  13.637   6.081  32.064 -0.0394  0.1061  0.1868
46197W        W54997  21.699   4.108  25.927 -0.1932 -0.0990 -0.0378
46198W        W54998   7.618   4.921  13.919  0.1714 -0.2402 -0.2144
46199W        W54999  21.245   1.115   5.812 -0.0885  0.3703  0.0473
46200W        W55000   8.999   4.479  22.789  0.0776  0.0484  0.2333
46201W        W55001  24.229   2.929  21.063  0.0974  0.0028  0.1665
46202W        W55002  23.574   0.816   9.796  0.1581  0.1189 -0.0899
46203W        W55003  21.441   3.527   0.975  0.2698  0.0938 -0.1712
46204W        W55004  17.387   0.331  32.145 -0.1102 -0.2068  0.0447
46205W        W55005   9.638   1.811   0.365 -0.0013  0.5120  0.0824
46206W        W55006   4.041   1.362  21.575 -0.2943 -0.1420 -0.1719
46207W        W55007  20.572   0.280   7.453  0.3192  0.0165  0.2633
46208W        W55008  10.159   2.233   9.796 -0.1810  0.2004  0.0921
46209W        W55009   0.690   0.381  29.714 -0.3870 -0.0493 -0.0530
46210W        W55010  13.396   3.821   8.047  0.2203 -0.0851 -0.1131
46211W        W55011  10.231   7.027   3.214  0.1365  0.1295  0.0157
46212W        W55012   4.605   3.488   1.213  0.0024  0.0769 -0.2387
46213W        W55013  15.389   6.421  31.190  0.3849  0.0054  0.1347
46214W        W55014   0.474   0.962   8.933 -0.3275 -0.1351 -0.2159
46215W        W55015   0.479   1.018  17.130 -0.1551  0.2192 -0.3672
46216W        W55016   1.751   7.509  10.893  0.2680  0.1304 -0.1511
46217W        W55017   3.510   2.606  10.203 -0.0779 -0.2394 -0.0723
46218W        W55018   2.368   3.373  12.302 -0.0977 -0.0673  0.0617
46219W        W55019  22.385   3.779  23.651 -0.0199  0.0353  0.1728
46220W        W55020   1.328   0.781  26.357 -0.1659 -0.1100 -0.1060
46221W        W55021  11.189   0.121  14.062 -0.0919  0.1628 -0.0553
46222W        W55022  16.381   7.661   0.499  0.1043  0.0634  0.0208
46223W        W55023  20.036   3.139  26.595 -0.0287  0.3726 -0.1921
46224W        W55024  10.286   3.922  13.515 -0.0430 -0.3705  0.0073
46225W        W55025   7.757   3.648  25.806  0.0685  0.0991 -0.6061
46226W        W55026  23.903   0.638  25.566 -0.0303 -0.0649  0.1185
46227W        W55027  12.498   3.834  28.484 -0.0103  0.2080  0.2147
46228W        W55028   8.383   4.919   7.489  0.2369  0.1088 -0.2622
46229W        W55029  15.455   3.032   9.365  0.2518 -0.0759  0.0752
46230W        W55030   2.966   4.487  20.628  0.2805 -0.2399 -0.0350
46231W        W55031   9.412   1.591   4.492  0.2152 -0.0328  0.1586
46232W        W55032  23.486   1.263   4.603  0.0814 -0.2219 -0.0090
46233W        W55033  19.459   2.314   4.479  0.0946  0.2232  0.0193
46234W        W55034   6.488   3.724   6.344  0.0771 -0.0853  0.2265
46235W        W55035  15.805   2.692   6.191  0.1901 -0.0057  0.1724
46236W        W55036  19.574   6.553  21.431  0.1160  0.0299  0.3484
46237W        W55037  14.941   0.895  11.963 -0.1425  0.0686  0.0603
46238W        W55038  19.199   6.953  21.386  0.0402  0.3819 -0.3462
46239W        W55039  20.934   1.790  19.286 -0.1769 -0.2574  0.0043
46240W        W55040  20.508   4.294   2.483  0.0054  0.0426  0.1847
46241W        W55041   6.113   7.792  26.826  0.1741 -0.4511 -0.0626
46242W        W55042  10.108   2.427  31.160 -0.2247 -0.2127  0.0214
46243W        W55043   1.672   7.248   4.233  0.3426 -0.3002 -0.2235
46244W        W55044   3.620   0.633  10.504 -0.0820  0.0450  0.0406
46245W        W55045  10.850   3.753  12.109  0.0591  0.0134  0.1330
46246W        W55046   9.451   3.739  30.252 -0.2048  0.1880 -0.0240
46247W        W55047   2.255   4.986   1.352  0.0299 -0.3648  0.1670
46248W        W55048  12.970   7.002  24.398 -0.0173  0.1171  0.1273
46249W        W55049  23.872   6.677   9.749 -0.1718 -0.1555 -0.2426
46250W        W55050   6.421   6.212  12.685  0.0188  0.0481 -0.0309
46251W        W55051  24.792   0.185  22.094 -0.1698 -0.2377 -0.0456
46252W        W55052  19.329   5.165   6.863 -0.3836 -0.2678 -0.3207
46253W        W55053   1.484   6.130  21.117 -0.0529  0.0217  0.1893
46254W        W55054   7.655   2.168  22.732 -0.0262 -0.0821  0.1288
46255W        W55055   4.792   7.044   4.058 -0.3700  0.0597  0.0344
46256W        W55056  22.526   2.268   8.943 -0.0379  0.3899  0.0320
46257W        W55057   9.757   0.899   8.409  0.1314  0.0149 -0.2214
46258W        W55058   5.932   5.408  28.987 -0.3784  0.0842  0.1129
46259W        W55059   5.006   1.495  16.215  0.0859  0.0116  0.1813
46260W        W55060  17.245   2.665  23.046  0.0163 -0.0197  0.0044
46261W        W55061  23.551   3.592  16.666  0.1906  0.0741  0.2289
46262W        W55062  20.983   0.378  19.658  0.0263 -0.1988  0.0600
46263W        W55063  14.822   3.259  31.708  0.0070  0.1878 -0.0503
46264W        W55064   2.016   0.742  22.768 -0.2840 -0.3262 -0.3257
46265W        W55065  16.399   4.431  19.897 -0.0651 -0.1468 -0.2757
46266W        W55066   2.340   7.594  28.458 -0.1495  0.1154  0.0409
46267W        W55067   7.185   4.456   1.387 -0.1458  0.1275  0.1272
46268W        W55068  16.778   6.833  17.972 -0.1102  0.2903 -0.1453
46269W        W55069  22.177   0.169   6.227  0.0402 -0.1205 -0.1511
46270W        W55070  15.515   5.327   3.859  0.1092  0.1185 -0.0003
46271W        W55071   3.063   1.862  21.856  0.1341  0.0264  0.1011
46272W        W55072   0.555   5.399   9.738  0.1055  0.1568  0.0998
46273W        W55073  21.319   3.588  30.211 -0.2578 -0.2482 -0.2121
46274W        W55074   9.769   1.768  15.738  0.0220 -0.3682 -0.0683
46275W        W55075   5.669   0.125  24.786  0.2724 -0.0649 -0.0530
46276W        W55076   6.111   2.059  16.224 -0.2210 -0.1916 -0.0410
46277W        W55077   9.094   2.095  12.483 -0.0895 -0.1820  0.1020
46278W        W55078  13.702   4.639  24.701 -0.0465  0.2685  0.1494
46279W        W55079  14.197   7.680  26.710  0.1147  0.0729  0.0903
46280W        W55080   7.573   1.728  15.729  0.0479  0.2185 -0.2382
46281W        W55081  16.630   1.087   5.461  0.0549  0.2341 -0.3196
46282W        W55082   7.917   0.606  29.253  0.1146  0.0243 -0.0040
46283W        W55083   5.410   6.935   3.768  0.1034  0.0771 -0.2549
46284W        W55084  19.385   4.891  29.459 -0.0886  0.0856  0.2805
46285W        W55085   6.221   7.509  25.973 -0.0984  0.0924  0.0581
46286W        W55086   5.145   0.635  31.223 -0.0137 -0.0467 -0.0689
46287W        W55087  18.784   6.444  18.526 -0.0037  0.0729 -0.0355
46288W        W55088  17.947   0.993   4.903  0.1220 -0.1361  0.2873
46289W        W55089  20.402   5.268  22.315 -0.1530 -0.0505 -0.0225
46290W        W55090   9.012   4.196  27.085  0.0837  0.0143  0.0022
46291W        W55091  12.581   3.767  27.634  0.0492 -0.3185  0.0119
46292W        W55092   5.744   4.270   1.818  0.5277  0.2105  0.0718
46293W        W55093  15.228   0.167  22.936  0.2251 -0.2769 -0.1772
46294W        W55094  24.516   6.724  29.797 -0.0680 -0.1155  0.1041
46295W        W55095  20.473   2.431  24.543 -0.0417 -0.0829  0.0583
46296W        W55096  18.764   5.438  30.862  0.0689  0.0205  0.0382
46297W        W55097  24.492   7.484  23.508 -0.0440 -0.0974  0.0274
46298W        W55098  15.209   3.302  11.045 -0.0797  0.1966  0.0029
46299W        W55099   1.211   2.219   9.012  0.2011 -0.1201 -0.3293
46300W        W55100  15.591   5.975   8.366 -0.0634  0.1338 -0.1362
46301W        W55101   9.264   2.899   3.095 -0.2426  0.1204  0.0755
46302W        W55102   8.707   5.313  27.593 -0.1122  0.2374  0.1542
46303W        W55103   1.512   6.053  11.888 -0.1802  0.1274 -0.2660
46304W        W55104   6.862   2.085  12.587 -0.5070  0.0611 -0.0157
46305W        W55105  16.584   7.061  27.011  0.0465 -0.0927  0.2515
46306W        W55106  13.766   3.605  13.174 -0.0737 -0.1811  0.2104
46307W        W55107   5.935   6.734   8.042 -0.1930 -0.3702  0.1771
46308W        W55108  22.721   6.977  15.962  0.3006  0.0991 -0.1069
46309W        W55109   0.567   6.437  22.589  0.1110 -0.2616  0.2383
46310W        W55110  15.122   7.579  10.962  0.1385 -0.1543  0.1904
46311W        W55111  13.658   5.530   0.826 -0.0520 -0.1987 -0.2889
46312W        W55112   3.020   7.689  21.009  0.2844  0.2702 -0.0173
46313W        W55113  19.949   3.402   4.461 -0.0422  0.1023  0.0226
46314W        W55114   8.756   3.961   6.109  0.0458 -0.0885  0.1494
46315W        W55115  15.104   2.319   1.808 -0.1507  0.1628 -0.1789
46316W        W55116  18.371   7.006  18.694  0.0969 -0.0209 -0.2763
46317W        W55117  16.022   1.457  10.519  0.1494  0.2696 -0.2559
46318W        W55118  19.649   5.963   5.216  0.0187 -0.0629  0.1947
46319W        W55119  10.878   3.057  11.660 -0.2063 -0.2553 -0.1530
46320W        W55120   9.876   6.698  24.084  0.1912 -0.0468  0.0708
46321W        W55121  13.386   0.179  25.581  0.0812  0.0919 -0.1216
46322W        W55122   2.656   4.486  27.914 -0.1362 -0.1660  0.0254
46323W        W55123   7.630   4.770  15.038 -0.1044  0.1402 -0.0285
46324W        W55124   6.195   6.723   3.199  0.1308 -0.2354 -0.2397
46325W        W55125  13.744   1.693  25.909  0.0273  0.1462 -0.0744
46326W        W55126  14.696   2.170   8.872 -0.1012  0.0331  0.2077
46327W        W55127   3.386   0.051  10.172 -0.0123 -0.1880  0.1657
46328W        W55128   6.133   4.461  12.823 -0.1858  0.0814  0.3458
46329W        W55129  19.927   4.846   3.869 -0.2665 -0.2070  0.2486
46330W        W55130  12.641   2.041   5.821 -0.0346  0.0078  0.2222
46331W        W55131  19.851   4.524  32.489 -0.2590  0.0641 -0.0485
46332W        W55132  20.241   6.714  30.091 -0.0241  0.0134  0.0585
46333W        W55133  16.318   2.591  27.294  0.1314 -0.3195  0.2814
46334W        W55134  20.218   2.782   9.958  0.2353  0.1793 -0.3191
46335W        W55135  22.596   5.092  29.127 -0.0140  0.1799 -0.2472
46336W        W55136  21.116   3.576   4.016 -0.0065  0.0887  0.1384
46337W        W55137  23.798   7.492  29.102 -0.0960 -0.0744 -0.0062
46338W        W55138   0.501   1.868   3.011  0.0041 -0.0092  0.1972
46339W        W55139  12.779   6.291  28.767  0.0231 -0.1270  0.2562
46340W        W55140   3.128   0.100   2.017  0.2972  0.0436 -0.1572
46341W        W55141  10.479   2.887   5.955  0.2158  0.0547 -0.2679
46342W        W55142   9.110   2.562   3.417 -0.0292  0.1013 -0.1102
46343W        W55143   6.168   2.396   3.454 -0.1873  0.0264 -0.3052
46344W        W55144   6.156   0.802  22.801 -0.1026 -0.1846  0.0913
46345W        W55145  16.566   5.849   6.437 -0.1585  0.2394 -0.4410
46346W        W55146   0.534   2.099   0.370 -0.0540 -0.1593 -0.1675
46347W        W55147   9.142   3.956   9.343  0.0034  0.3387 -0.0757
46348W        W55148   8.451   6.426  18.244 -0.1693  0.0069 -0.2273
46349W        W55149  16.687   0.980   6.753  0.0198  0.0810 -0.1708
46350W        W55150   7.153   2.315  11.868  0.0142 -0.0925 -0.2851
46351W        W55151   3.681   4.780  23.812 -0.0081  0.2306 -0.3408
46352W        W55152   5.330   6.738  15.768 -0.1865 -0.2358 -0.0319
46353W        W55153  12.987   2.991   8.494 -0.0804  0.1544 -0.0794
46354W        W55154   8.588   2.223  16.584  0.1202 -0.1055  0.2505
46355W        W55155   1.963   4.306   4.271  0.0462 -0.1471  0.1063
46356W        W55156   8.235   6.565   7.337 -0.2800 -0.0340  0.1735
46357W        W55157   6.905   4.467  24.967  0.1613 -0.1321  0.0384
46358W        W55158  10.381   0.826   2.805  0.0641  0.2624 -0.0421
46359W        W55159   7.128   3.041  24.279  0.2878 -0.1261  0.0218
46360W        W55160  17.936   1.541  23.985  0.0529 -0.0997 -0.4610
46361W        W55161  22.042   2.831  25.138 -0.0401  0.0356 -0.1628
46362W        W55162  17.455   1.984  18.795 -0.0592  0.1581  0.4535
46363W        W55163  22.816   7.295  24.759 -0.2006 -0.1183  0.0763
46364W        W55164   6.011   2.675   8.573 -0.1076  0.2585 -0.1740
46365W        W55165  19.848   5.616   6.201  0.2416 -0.2289  0.1457
46366W        W55166   6.222   7.565   9.352 -0.1362  0.0888  0.0913
46367W        W55167   8.198   0.512   6.226 -0.1604 -0.2187  0.1585
46368W        W55168   3.828   7.409  32.534  0.1156  0.0575  0.1182
46369W        W55169   6.110   7.784  14.319 -0.0417  0.0981  0.0302
46370W        W55170  11.943   5.837   7.876  0.1867 -0.0280 -0.2648
46371W        W55171   9.102   5.532  25.628  0.2455  0.0707  0.1068
46372W        W55172   1.007   5.955   8.574  0.1732  0.0443 -0.1802
46373W        W55173  14.839   4.858   0.872  0.2055 -0.2458  0.1791
46374W        W55174  24.548   2.880  32.204 -0.2310 -0.5100  0.0943
46375W        W55175   4.040   6.028  27.958  0.2248 -0.1901 -0.0875
46376W        W55176   0.087   3.597  11.490 -0.1493  0.2636  0.3900
46377W        W55177   7.698   3.667  11.556 -0.3610  0.2004 -0.0453
46378W        W55178  17.619   5.969   6.086 -0.0860 -0.2212  0.1402
46379W        W55179  10.712   3.624  13.786 -0.0242 -0.0678  0.0936
46380W        W55180  17.775   6.563   0.297 -0.4696 -0.2023 -0.2427
46381W        W55181  10.189   0.277  27.184  0.3054  0.3124 -0.1221
46382W        W55182   9.655   6.487   6.156 -0.0951 -0.0406  0.0772
46383W        W55183  18.218   4.531  27.672  0.0053  0.1675  0.0766
46384W        W55184   8.216   5.059  22.688  0.0982  0.3580 -0.1455
46385W        W55185  17.985   7.590   6.599  0.1739 -0.0625  0.1416
46386W        W55186  15.947   4.368   8.025  0.4641  0.0949 -0.0836
46387W        W55187   1.279   4.405  29.733  0.0300  0.2809 -0.1596
46388W        W55188  10.128   4.314  17.623  0.1965 -0.3306 -0.1506
46389W        W55189  12.525   4.121  29.798 -0.0135 -0.0106 -0.2493
46390W        W55190  17.689   6.156   0.774  0.0012 -0.1909 -0.1038
46391W        W55191   2.676   0.676  11.621 -0.2327  0.2046  0.2777
46392W        W55192   1.282   4.053   8.869 -0.1199 -0.0485 -0.0244
46393W        W55193  21.809   6.664   7.681  0.1920  0.3132  0.2300
46394W        W55194  12.956   4.127  22.731 -0.0979 -0.0518  0.0063
46395W        W55195  16.669   6.310  17.927 -0.1272 -0.1517  0.2212
46396W        W55196  15.498   1.513   4.259  0.0623  0.1808 -0.0800
46397W        W55197   8.048   7.147   4.416  0.0762  0.0549 -0.0676
46398W        W55198   2.998   2.576  22.280 -0.3038  0.1146 -0.1715
46399W        W55199   8.545   3.320   1.430  0.2609  0.0398  0.2174
46400W        W55200   9.051   0.977  10.108 -0.0909 -0.4166  0.1176
46401W        W55201  21.795   1.872  30.851  0.2622  0.3812 -0.4317
46402W        W55202  12.524   5.295   8.458  0.3050  0.0183 -0.0187
46403W        W55203  21.732   4.245  24.610  0.0799  0.1152 -0.0521
46404W        W55204   3.639   0.828   8.198  0.0777  0.0780 -0.1127
46405W        W55205  22.380   4.137   9.208  0.2086 -0.0965  0.0892
46406W        W55206   0.099   7.156   9.319  0.0786  0.2576 -0.2782
46407W        W55207  14.067   6.287  21.411  0.1327 -0.2552 -0.0423
46408W        W55208  23.833   4.044  19.750  0.1361  0.1294 -0.0816
46409W        W55209  23.992   4.245   4.365 -0.2675  0.0967 -0.1222
46410W        W55210  17.022   6.727  19.032 -0.0482  0.0488  0.0269
46411W        W55211  23.824   6.762  23.391  0.1122  0.4015 -0.0916
46412W        W55212  20.815   6.165  20.285 -0.1582  0.1948  0.1564
46413W        W55213   4.981   7.660  22.892  0.0381 -0.0773 -0.1174
46414W        W55214   1.597   4.313  24.975 -0.0093 -0.3339  0.2976
46415W        W55215   5.367   2.343  24.710  0.0863  0.2801 -0.1907
46416W        W55216  20.296   3.689  18.278 -0.1136  0.2583 -0.0890
46417W        W55217  14.500   4.258   9.518  0.3015 -0.0987  0.0773
46418W        W55218  17.022   6.983  25.496  0.3092  0.2068  0.1625
46419W        W55219  13.183   1.626   3.584 -0.0034 -0.0336  0.2029
46420W        W55220  18.825   6.580  21.367 -0.3477 -0.0390  0.1633
46421W        W55221  23.320   4.689  31.324 -0.0745  0.2958 -0.2177
46422W        W55222   3.899   3.276   0.682 -0.0609 -0.0049  0.1339
46423W        W55223  22.397   5.360   6.444  0.1910  0.2883  0.4112
46424W        W55224   0.428   4.643  20.290  0.0699  0.1103  0.0961
46425W        W55225  11.092   7.328  13.481  0.0170 -0.1797 -0.0160
46426W        W55226   7.331   3.836   0.676  0.0434  0.1326  0.2855
46427W        W55227   9.605   5.861   9.982 -0.0154  0.2531 -0.0613
46428W        W55228  13.881   1.466   9.132  0.0062 -0.2847 -0.1091
46429W        W55229   0.749   4.926   8.712  0.0729 -0.0670  0.1518
46430W        W55230   7.407   0.326  27.213 -0.1304 -0.0118  0.0793
46431W        W55231  18.761   5.669   4.773  0.0036  0.1695 -0.2535
46432W        W55232  10.140   2.151  17.913 -0.0738 -0.0370 -0.3293
46433W        W55233  21.830   0.712  28.300  0.1858  0.3618 -0.2789
46434W        W55234  18.200   6.817   1.911 -0.0325 -0.0213  0.1729
46435W        W55235  16.976   1.469   4.624 -0.1721  0.0237 -0.1415
46436W        W55236  22.707   5.694  26.361  0.4352  0.1340  0.0152
46437W        W55237  23.876   1.524  18.663 -0.2356  0.0806 -0.0345
46438W        W55238   0.166   4.714  21.696 -0.0183 -0.2461  0.2316
46439W        W55239   6.070   1.555  14.306 -0.0260 -0.1534 -0.1582
46440W        W55240   3.424   4.820   3.426 -0.1662  0.0626  0.0133
46441W        W55241   6.833   4.189  30.310  0.0865 -0.1433  0.2589
46442W        W55242  11.866   4.224  24.236  0.0993  0.0962 -0.1270
46443W        W55243   7.618   0.709   7.360 -0.2066  0.0403 -0.2262
46444W        W55244  12.507   7.226  13.110 -0.0488  0.1241  0.1179
46445W        W55245   2.053   4.860  20.338 -0.1948  0.1684  0.6321
46446W        W55246   6.831   4.058   4.961 -0.1123  0.2881 -0.2171
46447W        W55247   7.713   7.484  13.550  0.0694 -0.0501 -0.0833
46448W        W55248  18.082   1.766  11.009  0.1192 -0.1497  0.2342
46449W        W55249   0.239   3.074  30.318  0.0589  0.2066 -0.0796
46450W        W55250   1.387   2.294  24.941  0.0930 -0.3410 -0.2197
46451W        W55251  21.256   3.720   3.175  0.0850 -0.2283 -0.0106
46452W        W55252  19.251   3.307  17.883 -0.0587 -0.1160  0.0042
46453W        W55253   3.047   2.263  27.200  0.1715  0.2859 -0.1866
46454W        W55254  14.481   4.856  12.458  0.0142 -0.1208  0.1167
46455W        W55255   3.907   0.095  22.232 -0.1140  0.1635 -0.1153
46456W        W55256   4.890   4.337  30.110 -0.3385 -0.3487 -0.0623
46457W        W55257   9.676   7.623  25.903 -0.2502 -0.4544 -0.1963
46458W        W55258  16.181   0.745  25.265  0.1836  0.0101 -0.2699
46459W        W55259  20.346   0.086  20.452 -0.1996  0.0137  0.0789
46460W        W55260  17.406   2.351  17.796  0.1090  0.2011 -0.0816
46461W        W55261   4.049   7.177   0.625  0.2582 -0.1642 -0.2112
46462W        W55262  21.472   6.409  28.056  0.0782  0.3799 -0.3373
46463W        W55263   6.999   5.716  32.651  0.1208 -0.0117  0.1192
46464W        W55264  12.355   0.820   0.039 -0.2726 -0.2811  0.3378
46465W        W55265  24.165   2.358  15.389  0.1968  0.0140  0.0266
46466W        W55266  20.490   2.130  15.220  0.0570  0.1427  0.0422
46467W        W55267   7.958   2.384   9.404 -0.1359 -0.1175  0.0361
46468W        W55268   2.003   4.017  24.406 -0.0130  0.4081 -0.0119
46469W        W55269  19.205   5.907  28.023  0.2351  0.2748 -0.4296
46470W        W55270  22.415   6.205  14.666  0.2967  0.0285 -0.3394
46471W        W55271   3.209   6.660   7.275 -0.3958  0.0024 -0.0686
46472W        W55272  22.380   5.267   5.940 -0.0454 -0.0007 -0.3246
46473W        W55273  19.627   2.433  16.938  0.0538  0.1325 -0.0158
46474W        W55274  12.845   2.623  26.402 -0.1801  0.0620  0.0290
46475W        W55275   8.311   5.734  30.021 -0.2201 -0.0991 -0.1236
46476W        W55276   2.317   5.055  19.745  0.0843 -0.3093 -0.2118
46477W        W55277  21.331   7.727  21.032  0.2066 -0.0457 -0.1775
46478W        W55278  24.384   6.338   3.651  0.0593  0.0365  0.1650
46479W        W55279   7.080   5.073  15.202  0.2174  0.1196  0.6355
46480W        W55280  11.996   3.392  23.394 -0.0577  0.1421  0.2355
46481W        W55281  16.330   2.586   1.397  0.2761  0.2491 -0.2645
46482W        W55282   3.133   2.111  21.400 -0.0477  0.2930  0.0792
46483W        W55283   0.514   3.209  32.513 -0.1323 -0.0243  0.1693
46484W        W55284  11.178   7.741  26.953 -0.0538  0.1457 -0.1082
46485W        W55285   9.825   2.341  29.221 -0.0266 -0.0202 -0.1849
46486W        W55286   1.567   4.971   8.414  0.0633  0.3445 -0.1886
46487W        W55287   9.884   7.246   6.689  0.3421  0.0299  0.2200
46488W        W55288  21.319   1.803  18.588  0.0262 -0.1800  0.2167
46489W        W55289  13.541   2.208  27.272  0.0404  0.1103  0.0609
46490W        W55290   9.693   6.939  23.106 -0.2831  0.0255  0.1078
46491W        W55291  20.821   7.768   7.797  0.1107  0.3911 -0.0373
46492W        W55292  21.764   3.277  27.569  0.1834  0.4358 -0.0128
46493W        W55293  22.344   3.157   6.475 -0.0731  0.0756 -0.1179
46494W        W55294  13.099   5.496  22.969 -0.1551 -0.1266 -0.0134
46495W        W55295   8.019   5.489  28.380  0.2814  0.0904 -0.0269
46496W        W55296  14.227   5.679  22.370  0.2595 -0.1473 -0.0348
46497W        W55297   6.887   6.578   7.381 -0.3903 -0.3196  0.0288
46498W        W55298  19.885   5.724  25.244  0.2116  0.2241 -0.0450
46499W        W55299  21.604   6.839  23.398 -0.0131  0.2468  0.1102
46500W        W55300  18.907   0.963  10.206  0.2169 -0.0411 -0.0888
46501W        W55301   0.699   2.403   4.299  0.0407  0.0022  0.1557
46502W        W55302   5.322   6.712  24.108 -0.1331 -0.1302  0.2377
46503W        W55303  17.810   7.167  31.161 -0.0560 -0.2214  0.0315
46504W        W55304  20.691   3.917  32.201  0.0007 -0.0182  0.0791
46505W        W55305  20.930   6.384  27.851  0.0401 -0.0228 -0.0570
46506W        W55306  15.553   6.911  27.078  0.2540 -0.1293  0.0215
46507W        W55307  10.667   5.226   9.630  0.0336  0.3678 -0.2083
46508W        W55308  25.006   3.422   6.256 -0.0247 -0.1106  0.2017
46509W        W55309   7.320   7.323  25.002  0.0369  0.3826 -0.0760
46510W        W55310  22.455   7.740   2.546  0.1922 -0.1166 -0.1364
46511W        W55311  18.894   5.785  17.435 -0.1882 -0.1682  0.0559
46512W        W55312  10.915   0.119  31.866  0.0326 -0.0387  0.1761
46513W        W55313  21.093   0.039  27.873  0.1697 -0.2801  0.0922
46514W        W55314   5.641   2.074   5.308  0.0210 -0.0858 -0.0038
46515W        W55315  12.203   2.379  21.263 -0.4094 -0.0112  0.0074
46516W        W55316   6.645   3.561   4.054  0.0654 -0.0833 -0.0116
46517W        W55317  23.345   3.928   2.449 -0.1106  0.1233 -0.1049
46518W        W55318  16.906   2.955  20.544 -0.2333  0.1903  0.0034
46519W        W55319  13.901   0.327   6.799 -0.0716  0.1741 -0.1827
46520W        W55320  15.824   3.807   2.050 -0.2541 -0.3899 -0.1874
46521W        W55321   7.054   4.581  13.226  0.0537 -0.0319 -0.0406
46522W        W55322  15.654   1.286   2.621  0.2533 -0.2146 -0.1111
46523W        W55323   0.276   1.783  29.616  0.1795 -0.0045  0.1352
46524W        W55324   9.896   4.597  18.066 -0.0992 -0.3091  0.0464
46525W        W55325  11.520   5.043   5.209  0.0954 -0.2739  0.4845
46526W        W55326   3.601   0.695  25.538 -0.1392 -0.0372  0.2407
46527W        W55327  19.316   5.252   8.425  0.0546 -0.4145 -0.1999
46528W        W55328   4.719   3.874   2.117  0.3951 -0.2259  0.1329
46529W        W55329  10.076   4.928  14.630  0.0791  0.3585 -0.0511
46530W        W55330  23.755   2.259   2.172 -0.3398 -0.1603  0.0708
46531W        W55331   2.239   7.676  24.601  0.1152  0.2414 -0.0307
46532W        W55332  15.223   1.657  21.070  0.0958  0.1002 -0.1049
46533W        W55333   7.989   4.662   0.078  0.2584 -0.2224  0.1659
46534W        W55334   5.127   0.278  27.205 -0.0261 -0.0212 -0.0605
46535W        W55335  20.106   6.191   5.078  0.0591 -0.1442  0.0142
46536W        W55336   4.589   2.933  15.423  0.0690  0.3241  0.1674
46537W        W55337   4.410   0.232   0.939 -0.3646  0.1303 -0.0484
46538W        W55338   4.070   4.994  11.787  0.1499  0.2503  0.0637
46539W        W55339  19.996   0.673  18.370 -0.0445  0.4101 -0.2360
46540W        W55340   5.955   6.797   2.003 -0.0972  0.3100 -0.1609
46541W        W55341   7.544   0.513  11.564  0.0070 -0.0656  0.3008
46542W        W55342   9.884   1.335   6.835 -0.1894 -0.1894 -0.1235
46543W        W55343  16.575   5.762  25.022 -0.6058  0.3489  0.3892
46544W        W55344  17.787   1.462   5.769  0.2123 -0.1436  0.0661
46545W        W55345  19.280   4.028   2.126 -0.1645  0.2121  0.2338
46546W        W55346   1.440   3.460  29.652 -0.1353 -0.2674 -0.0235
46547W        W55347  17.375   5.990  26.957 -0.3300  0.0531  0.3181
46548W        W55348   6.034   4.248  27.608  0.0798  0.2801 -0.0428
46549W        W55349   6.746   0.259  11.340  0.1610  0.2971  0.1468
46550W        W55350  23.571   7.140  29.948  0.0002  0.2492  0.1929
46551W        W55351   4.089   0.594  23.832 -0.1843 -0.3919 -0.0285
46552W        W55352   4.357   3.510   8.649  0.1603  0.3290  0.6279
46553W        W55353  19.180   1.340   8.605 -0.0582  0.3178 -0.1756
46554W        W55354   7.670   7.221   8.553  0.0617 -0.0784 -0.0901
46555W        W55355   1.795   7.365  29.878  0.0196 -0.1504  0.0060
46556W        W55356   8.297   5.521   2.165  0.0159  0.0416  0.1031
46557W        W55357  16.179   6.649   7.894  0.0864  0.0333 -0.0485
46558W        W55358  13.677   4.096  32.232 -0.1483 -0.2961 -0.1500
46559W        W55359  18.527   3.122  26.254 -0.1632 -0.1810  0.4208
46560W        W55360  17.758   2.896  23.181  0.0412  0.1979 -0.0217
46561W        W55361   0.538   0.919  27.820  0.0181  0.4339  0.3213
46562W        W55362   6.358   7.077   8.377  0.0073  0.0741 -0.0761
46563W        W55363  22.812   6.289  23.668  0.0431 -0.0506 -0.1213
46564W        W55364  10.798   3.494   1.217  0.2068 -0.2648 -0.0923
46565W        W55365  12.739   1.685  16.170 -0.1572 -0.2606  0.3638
46566W        W55366  23.137   5.040  28.176  0.0024  0.2249  0.3225
46567W        W55367  21.675   6.147   7.660  0.0051  0.2631 -0.0493
46568W        W55368   3.292   4.344   3.591  0.0537  0.0084 -0.1034
46569W        W55369  10.603   6.515   7.706  0.1562  0.3586  0.0935
46570W        W55370  21.108   5.478   5.220  0.2390 -0.1372  0.0988
46571W        W55371  21.646   5.818  21.304 -0.0007 -0.1582  0.2198
46572W        W55372   5.052   1.089  12.907 -0.3199  0.2375  0.0275
46573W        W55373   2.679   4.734   0.539  0.1639 -0.1449 -0.1058
46574W        W55374  16.234   4.542  29.745 -0.0517 -0.2131 -0.1374
46575W        W55375   6.749   6.956  14.381 -0.0258  0.0988 -0.2872
46576W        W55376  15.848   5.959   4.455  0.1354 -0.1250  0.1093
46577W        W55377   2.458   6.310  28.268 -0.0244  0.0225 -0.0909
46578W        W55378   7.012   4.865   2.474 -0.1466 -0.0018 -0.0868
46579W        W55379  12.523   6.231  12.342  0.0308 -0.1567 -0.1879
46580W        W55380  21.264   5.309   3.540  0.0102  0.1175  0.0140
46581W        W55381   4.208   6.563  24.395  0.0674  0.0043 -0.0481
46582W        W55382  22.098   3.889   8.893 -0.1126 -0.0277  0.1100
46583W        W55383  20.386   3.798   2.380 -0.0400  0.1864  0.1376
46584W        W55384  18.986   6.085  21.400 -0.3759  0.0034  0.0540
46585W        W55385   4.150   7.366   7.354 -0.0792  0.1172  0.0022
46586W        W55386  18.704   1.977   1.607 -0.0449 -0.0091 -0.1115
46587W        W55387  15.449   5.365  28.068 -0.0197  0.0439  0.0676
46588W        W55388   8.767   1.041  16.490 -0.0618 -0.0864 -0.0405
46589W        W55389  18.244   1.849  24.889 -0.0480 -0.0709 -0.1576
46590W        W55390   1.212   1.276   0.800 -0.1500 -0.0194  0.0410
46591W        W55391  10.846   2.137   1.059  0.0992 -0.1448  0.2168
46592W        W55392  18.081   2.068  30.023  0.1763 -0.0450  0.1508
46593W        W55393  24.604   6.867  30.755  0.1400  0.1067 -0.0040
46594W        W55394   0.358   0.043   3.183  0.4277 -0.1659  0.2351
46595W        W55395   5.948   7.496  28.013  0.4185  0.2917 -0.2925
46596W        W55396  14.760   6.070  25.475 -0.1319  0.0016  0.4476
46597W        W55397  19.207   6.358  22.729 -0.0332  0.4014 -0.0166
46598W        W55398  19.971   3.906  19.944 -0.1540 -0.2769  0.1251
46599W        W55399  19.934   7.221  21.164 -0.1516  0.1748  0.0114
46600W        W55400  23.291   2.503  22.484  0.1644  0.1331  0.1812
46601W        W55401   5.509   6.959  10.839  0.2414  0.3760  0.0619
46602W        W55402   6.725   3.758  24.782  0.0935 -0.1315  0.0413
46603W        W55403  18.652   5.910  29.307  0.1808 -0.0708  0.1228
46604W        W55404  17.702   7.295  21.153  0.1820 -0.0426  0.2363
46605W        W55405  19.906   3.120  27.385 -0.2588  0.0162  0.1750
46606W        W55406  24.936   0.685  29.927 -0.1023 -0.0625  0.1053
46607W        W55407   5.412   0.758  30.206 -0.0530  0.2452  0.3538
46608W        W55408   3.442   4.475  10.589  0.2776  0.0783 -0.1115
46609W        W55409  12.892   3.580  24.601 -0.1332 -0.3105  0.2412
46610W        W55410   6.592   2.936  11.367 -0.2120 -0.3365 -0.1024
46611W        W55411   3.839   6.306  28.480 -0.0505 -0.0915  0.1747
46612W        W55412   8.273   2.343  16.232  0.3289  0.0742 -0.0045
46613W        W55413  10.710   0.412  25.446  0.0599 -0.1082 -0.1908
46614W        W55414   0.687   7.596   7.702  0.1931 -0.0501 -0.2246
46615W        W55415   2.273   1.212   5.171  0.0353  0.0351 -0.2685
46616W        W55416   5.073   1.933  23.493  0.1836 -0.1471 -0.0906
46617W        W55417  18.030   5.170  20.191  0.1755 -0.1712 -0.3034
46618W        W55418  19.316   2.811  25.238  0.2976 -0.0576 -0.2042
46619W        W55419   0.277   3.799  23.394  0.0304 -0.0445  0.0173
46620W        W55420   7.623   2.909   4.049 -0.1252  0.0955 -0.0614
46621W        W55421  15.822   5.196  31.785 -0.1142 -0.1215 -0.0060
46622W        W55422  13.745   5.176  24.671 -0.0052  0.0755  0.1789
46623W        W55423   9.411   2.966   4.363 -0.0943  0.2822  0.0038
46624W        W55424   8.222   7.598  27.822  0.0725  0.1240 -0.3042
46625W        W55425  13.636   7.098  31.913  0.0299 -0.1485 -0.1751
46626W        W55426   4.402   0.342   4.586 -0.0126 -0.1996  0.0613
46627W        W55427  21.135   1.519   9.716 -0.2137  0.1226 -0.2873
46628W        W55428   5.981   7.311   8.597  0.1592  0.1118  0.1491
46629W        W55429  24.421   3.299  27.618  0.0063 -0.3517 -0.2501
46630W        W55430  16.311   2.172   1.172 -0.1755 -0.2522  0.0790
46631W        W55431  18.994   4.804  25.887 -0.0338 -0.0198  0.0267
46632W        W55432   1.551   3.398  30.837  0.0108 -0.4187 -0.1065
46633W        W55433   6.703   3.812   2.312 -0.3019  0.0840 -0.1332
46634W        W55434  15.191   2.099  20.738 -0.1404  0.1182 -0.1572
46635W        W55435  17.766   5.628  23.191 -0.0929  0.1131 -0.1313
46636W        W55436   8.372   0.252  16.642 -0.1680  0.0963  0.0690
46637W        W55437  12.812   7.685  15.158 -0.0722  0.0362  0.2111
46638W        W55438  24.408   4.533  26.937  0.2191 -0.2985  0.1856
46639W        W55439  19.459   4.553  28.287 -0.0861  0.0388 -0.0505
46640W        W55440  10.646   0.841  10.728 -0.0900  0.0595 -0.1562
46641W        W55441  11.582   3.078   2.870 -0.0840 -0.1338  0.3620
46642W        W55442   5.349   4.471   6.554  0.1934  0.1319 -0.0899
46643W        W55443  19.966   0.778   3.937 -0.1713 -0.2735 -0.3043
46644W        W55444   2.702   1.816  27.859 -0.1881 -0.0673  0.1162
46645W        W55445   7.779   6.479   0.313  0.1729  0.0553 -0.0245
46646W        W55446  22.681   7.201  24.115  0.2628 -0.0755 -0.2669
46647W        W55447   8.550   2.740  16.399 -0.1093 -0.0405  0.2074
46648W        W55448   2.262   7.426   4.924 -0.2781 -0.3709 -0.2309
46649W        W55449   8.710   1.224  23.132  0.0042  0.0987 -0.0365
46650W        W55450  18.332   4.693  25.966  0.0923  0.0446  0.1908
46651W        W55451  12.487   3.960  16.065  0.3498  0.1364  0.2382
46652W        W55452  13.906   2.608  24.912 -0.1462 -0.0699 -0.2077
46653W        W55453  13.088   7.104  26.858 -0.0363 -0.1591  0.0831
46654W        W55454  19.795   4.076  21.038 -0.1224 -0.0077  0.4131
46655W        W55455  14.790   5.005   0.006 -0.1640  0.0661 -0.1925
46656W        W55456  17.558   4.142  28.143  0.0336  0.3744  0.2907
46657W        W55457  22.847   7.174  28.084  0.1745  0.1513  0.0944
46658W        W55458  24.648   5.073   9.801 -0.1754 -0.0487 -0.1120
46659W        W55459   6.804   3.653   4.663 -0.1874  0.1380 -0.1843
46660W        W55460  10.374   7.721  23.238  0.1003  0.0038  0.1099
46661W        W55461  13.872   4.723   9.195  0.1882  0.1544 -0.1923
46662W        W55462   9.021   0.886   1.489  0.1462  0.2355  0.1945
46663W        W55463  16.747   0.201  23.774  0.0651 -0.0013  0.1848
46664W        W55464   2.926   2.444   2.794 -0.3899  0.3607  0.0599
46665W        W55465  13.580   4.967  21.979 -0.0704  0.1324 -0.1563
46666W        W55466  17.556   3.061   9.373 -0.0810 -0.1501 -0.2796
46667W        W55467   0.951   0.835  20.767  0.1860 -0.3097 -0.2607
46668W        W55468  15.836   1.269  29.600  0.1323  0.2768 -0.0766
46669W        W55469  18.681   2.995   6.510  0.0201  0.1403  0.2147
46670W        W55470  11.905   2.755  12.878  0.1326  0.0231 -0.1761
46671W        W55471  21.532   2.419  31.507 -0.2456 -0.1328  0.1486
46672W        W55472  22.524   2.915  26.363 -0.1285  0.0293  0.1894
46673W        W55473  22.573   5.894  25.882  0.2109 -0.1999 -0.1926
46674W        W55474  13.662   2.894   1.901 -0.1082 -0.0446  0.0849
46675W        W55475  23.997   2.534   9.481  0.0674  0.3263  0.0227
46676W        W55476   9.951   2.896   7.422  0.3935  0.0136 -0.1592
46677W        W55477  18.401   5.149  18.632 -0.1332 -0.2085  0.3917
46678W        W55478  21.106   0.339   5.549 -0.3450 -0.2477  0.3157
46679W        W55479   9.916   6.722  13.056 -0.3021  0.0185 -0.1002
46680W        W55480   3.166   0.837  11.331 -0.1417 -0.1439 -0.0586
46681W        W55481  22.303   6.962  23.217 -0.0753  0.0799  0.1849
46682W        W55482  24.890   7.040  19.395 -0.0192  0.1340  0.1172
46683W        W55483  21.183   0.635  29.980  0.3600  0.4072 -0.0125
46684W        W55484   9.984   6.156  12.147  0.0175  0.1330 -0.0706
46685W        W55485  24.588   5.035  19.061  0.2585 -0.0221 -0.1249
46686W        W55486   2.718   0.382  23.270 -0.1594 -0.1141 -0.3103
46687W        W55487   3.948   4.076   2.424  0.0350  0.3477 -0.0828
46688W        W55488  21.917   5.718  31.008 -0.4477  0.0348  0.2662
46689W        W55489  13.318   6.541   2.531 -0.1650 -0.4362  0.1651
46690W        W55490  21.428   6.483  25.365 -0.2588 -0.3552  0.4079
46691W        W55491   2.575   7.065   9.216  0.0282  0.0975  0.0410
46692W        W55492   0.201   2.894   7.103  0.1702 -0.1248  0.1211
46693W        W55493   6.900   6.360  22.899  0.1401  0.1254 -0.1605
46694W        W55494   2.091   2.034  24.759 -0.2041  0.1044 -0.2767
46695W        W55495  17.253   2.253   6.761  0.1045  0.1667 -0.4419
46696W        W55496  22.710   7.279  30.395  0.0312 -0.1405  0.1462
46697W        W55497  23.143   7.232   6.432 -0.0404 -0.0096 -0.0998
46698W        W55498   3.592   3.674  30.170  0.0866  0.0291 -0.0614
46699W        W55499  10.990   5.074   5.165  0.1870  0.0448 -0.3683
46700W        W55500  19.439   6.040  27.243  0.0596  0.1084 -0.2959
46701W        W55501   2.495   4.448  21.389 -0.0409  0.1950  0.2471
46702W        W55502   7.652   3.633  11.020 -0.0975 -0.2539 -0.2184
46703W        W55503   3.152   6.199  21.929  0.1701  0.2779 -0.2965
46704W        W55504  20.810   5.411  20.858 -0.2520 -0.0994  0.0637
46705W        W55505  16.246   6.766   0.962  0.1588 -0.0846 -0.1810
46706W        W55506   4.161   4.725  32.195 -0.0935  0.0630 -0.0455
46707W        W55507  13.655   4.130   9.502  0.1704 -0.1079  0.3203
46708W        W55508   8.672   4.700  11.871  0.1453  0.0894  0.1192
46709W        W55509  15.896   3.237  27.060 -0.2603 -0.1513 -0.3982
46710W        W55510   1.429   5.081  26.075  0.2785  0.1547 -0.1507
46711W        W55511  13.714   4.690   8.639  0.2441  0.0548 -0.2450
46712W        W55512   0.535   2.665  10.584 -0.1384 -0.2024 -0.3739
46713W        W55513  15.140   0.103  24.564 -0.1292 -0.1911  0.0264
46714W        W55514  14.846   2.574  25.781 -0.2561  0.1204  0.1661
46715W        W55515   8.966   4.479  18.511  0.0340 -0.1857 -0.1566
46716W        W55516   9.577   7.229  32.576  0.2396  0.1683  0.0602
46717W        W55517   4.523   0.149   7.171  0.1038  0.1012 -0.1221
46718W        W55518   0.836   7.091  28.866 -0.0867  0.3690  0.0631
46719W        W55519   9.932   1.700   5.188  0.0086 -0.1714 -0.0086
46720W        W55520   4.862   2.375   4.005  0.0509  0.1257 -0.0021
46721W        W55521  10.519   1.169  15.620  0.0600 -0.1584  0.2227
46722W        W55522  11.106   0.672   3.923 -0.1434 -0.1196 -0.0460
46723W        W55523   5.745   5.296  13.213  0.1603  0.2835  0.0755
46724W        W55524  21.860   4.801   7.542 -0.2080  0.2955 -0.2418
46725W        W55525   7.543   0.225   4.447 -0.1655  0.0348  0.1941
46726W        W55526   3.713   3.031  10.363  0.1940  0.1330  0.1530
46727W        W55527  14.021   6.276   0.124  0.1213  0.0991  0.1164
46728W        W55528  11.548   1.374   2.416  0.2618  0.1581  0.1886
46729W        W55529  22.017   4.091  15.767  0.0151  0.0595  0.2029
46730W        W55530   9.375   1.216   3.569 -0.0703 -0.2411 -0.2982
46731W        W55531   8.049   2.417   7.624 -0.0477  0.0091 -0.2248
46732W        W55532  17.945   7.695   5.359 -0.1672  0.1426  0.0339
46733W        W55533  18.115   5.834   0.763 -0.0079  0.0258  0.0392
46734W        W55534  21.346   1.859   7.926 -0.0313 -0.0708 -0.1259
46735W        W55535   8.237   0.405   2.025 -0.0734  0.0997 -0.0153
46736W        W55536  23.587   6.698  18.839 -0.1573  0.1049 -0.3493
46737W        W55537  22.014   3.246   6.079  0.2150 -0.0333 -0.2991
46738W        W55538  18.483   1.022  16.404 -0.1571  0.1840 -0.1607
46739W        W55539  23.284   7.402  14.722  0.1226 -0.0946 -0.3024
46740W        W55540   1.053   5.425   1.132  0.2368  0.0608  0.1377
46741W        W55541  14.473   2.242  23.654  0.0227  0.0754  0.2058
46742W        W55542  13.501   4.394   9.024  0.0203 -0.4894  0.2514
46743W        W55543  19.677   1.786  15.471 -0.2253  0.2931  0.0831
46744W        W55544  16.011   4.839  19.535 -0.3733  0.0940 -0.1065
46745W        W55545  15.700   6.996  20.129  0.3857  0.2060 -0.0923
46746W        W55546  23.015   6.751   0.202  0.0352  0.0001 -0.0985
46747W        W55547  20.273   4.388   2.949 -0.3082  0.0720 -0.0573
46748W        W55548  10.748   3.344   0.732 -0.3589 -0.1759  0.2378
46749W        W55549  18.451   4.071  27.011 -0.1895 -0.1832 -0.0137
46750W        W55550   9.156   4.229  18.102 -0.2700  0.1990 -0.0324
46751W        W55551   4.233   4.117   3.191  0.2396  0.1484 -0.0760
46752W        W55552  15.202   4.478   2.110  0.0713  0.1706 -0.2262
46753W        W55553  12.243   7.708  28.947 -0.2949 -0.2100  0.1137
46754W        W55554  12.411   3.853   5.551 -0.0013  0.1756 -0.1706
46755W        W55555  16.296   3.961  31.988 -0.0327 -0.1143  0.0843
46756W        W55556  14.094   7.160  27.080 -0.1855 -0.0435  0.0369
46757W        W55557   6.066   2.756  17.189 -0.1980 -0.0002  0.2955
46758W        W55558  11.782   7.794  22.738  0.1189  0.1376  0.1580
46759W        W55559  23.505   7.712  27.442  0.0610  0.0295  0.0667
46760W        W55560   1.990   4.344  25.264 -0.2519 -0.1563 -0.0884
46761W        W55561  22.283   3.406  16.079 -0.2061  0.0391  0.3665
46762W        W55562  22.218   3.218  21.356  0.0082 -0.0967  0.1036
46763W        W55563  10.042   4.796  31.354 -0.3418  0.0022 -0.0761
46764W        W55564   9.272   3.081  17.675  0.0037 -0.0239  0.0501
46765W        W55565  22.572   6.459   9.884 -0.0218 -0.1715 -0.0097
46766W        W55566   0.626   6.161  30.561 -0.0347 -0.2714 -0.1753
46767W        W55567   2.895   3.029   5.507 -0.0292 -0.0092  0.0674
46768W        W55568   3.275   5.490  25.343  0.0157 -0.2976 -0.0407
46769W        W55569  15.861   7.038   3.024  0.1728 -0.3048  0.2198
46770W        W55570  15.808   5.464  21.766 -0.0683 -0.0722 -0.2777
46771W        W55571  13.474   1.003  12.268  0.1418  0.0177 -0.0205
46772W        W55572  21.983   3.283  29.060  0.0706 -0.1580 -0.1913
46773W        W55573  21.628   7.732  26.323 -0.2845 -0.0151  0.1905
46774W        W55574  21.392   0.997  19.311 -0.0460 -0.1087 -0.0030
46775W        W55575  17.931   0.047  16.440 -0.0480  0.0256 -0.2591
46776W        W55576  20.472   1.745  31.944  0.0746 -0.0293  0.0254
46777W        W55577  16.283   6.928  24.339 -0.2876  0.1237 -0.2239
46778W        W55578   1.514   6.798  26.095 -0.1013 -0.0635 -0.2214
46779W        W55579  21.642   6.174   1.303  0.0883  0.0365 -0.0485
46780W        W55580  20.966   1.495   9.210  0.3419 -0.3260 -0.0618
46781W        W55581  10.080   4.794   9.024 -0.1102  0.1350 -0.1444
46782W        W55582   0.969   7.458   9.489  0.3244 -0.1648  0.0170
46783W        W55583  19.989   1.239   5.787 -0.0601  0.1535 -0.0902
46784W        W55584  11.544   3.516  13.391  0.0251  0.1007  0.0305
46785W        W55585  13.561   5.881  15.133 -0.2956 -0.0612  0.2125
46786W        W55586  21.381   6.874  32.341  0.0411 -0.0295 -0.3242
46787W        W55587  18.522   1.959  27.508 -0.0691  0.3267 -0.0452
46788W        W55588   1.516   4.697  23.024 -0.1592  0.2069 -0.4821
46789W        W55589  11.408   4.282  24.471 -0.0790 -0.0450  0.0853
46790W        W55590  22.142   6.076  22.873 -0.1246 -0.1396  0.0384
46791W        W55591   9.675   1.989  22.940 -0.1977 -0.0204  0.0632
46792W        W55592  17.604   4.323  26.965  0.1522  0.1260 -0.0340
46793W        W55593  19.931   0.692  16.123 -0.1160 -0.0028  0.1897
46794W        W55594  15.499   4.676   8.138 -0.0522 -0.3468  0.1866
46795W        W55595  12.505   2.710  29.167 -0.0181 -0.2931  0.0346
46796W        W55596   5.205   1.388   2.107 -0.1279  0.0480  0.0744
46797W        W55597  10.160   3.559  15.986  0.1170 -0.0630  0.0941
46798W        W55598  16.658   4.823  31.060 -0.2296 -0.1666 -0.0834
46799W        W55599  23.044   2.256  16.697 -0.0644 -0.0567 -0.0015
46800W        W55600  17.098   5.562  31.472  0.0772 -0.1800  0.1442
46801W        W55601   3.572   4.677  26.840  0.1224  0.0435  0.0850
46802W        W55602   5.510   2.506  31.864  0.1323  0.0213 -0.2559
46803W        W55603  15.623   2.776   5.187  0.1067 -0.1351 -0.2613
46804W        W55604  23.203   3.012  22.310  0.1801  0.1714 -0.2369
46805W        W55605  10.029   0.437  15.201  0.4601  0.1868  0.1219
46806W        W55606  18.388   0.312   6.433  0.1689  0.0187  0.0866
46807W        W55607   3.545   5.204  21.119  0.1779  0.1672 -0.3586
46808W        W55608   1.869   6.816   6.467 -0.0171 -0.0973 -0.1593
46809W        W55609   2.190   6.802  10.456  0.1033  0.1593 -0.0297
46810W        W55610   1.519   4.138  31.503 -0.1596  0.3344 -0.0521
46811W        W55611  22.918   0.091   1.505  0.0605  0.2780  0.1488
46812W        W55612   6.842   3.139  15.461 -0.0368 -0.0783  0.0576
46813W        W55613  24.763   6.845  22.120 -0.0650  0.1188  0.0909
46814W        W55614   6.032   7.668   7.633  0.0088  0.1709 -0.1094
46815W        W55615  21.414   4.893   1.280  0.0712  0.2062  0.0918
46816W        W55616   9.921   5.179  12.233  0.0767  0.1877  0.0446
46817W        W55617  15.326   3.951  25.784 -0.0418 -0.0896  0.0985
46818W        W55618   1.988   6.161  21.028  0.3908 -0.1114 -0.1910
46819W        W55619  12.546   4.083   1.517  0.4047 -0.0960  0.1389
46820W        W55620  15.515   6.275  20.628 -0.0829 -0.3506  0.0405
46821W        W55621  24.025   1.413  17.101  0.0691  0.0023  0.0275
46822W        W55622   9.617   6.878   2.136 -0.3029 -0.2629  0.1631
46823W        W55623  13.437   1.852  21.383 -0.2925  0.3176  0.0606
46824W        W55624  16.555   0.698   9.461  0.0976 -0.0666 -0.1930
46825W        W55625  22.798   1.340  27.275  0.1870 -0.5172 -0.0334
46826W        W55626   1.582   5.689   6.252 -0.2258  0.0621  0.1801
46827W        W55627  14.882   5.514   5.966  0.0691 -0.0348 -0.1654
46828W        W55628   0.353   3.667  28.772  0.0831  0.1623 -0.0890
46829W        W55629   3.967   4.919  13.469  0.0406  0.1657  0.1354
46830W        W55630  23.464   1.686  18.779 -0.0413  0.1447 -0.0768
46831W        W55631  20.181   2.148  20.123 -0.0796 -0.3931  0.2165
46832W        W55632  19.494   1.803  25.226 -0.0226  0.1937  0.1376
46833W        W55633  21.236   7.603  20.512  0.1630 -0.0421 -0.1140
46834W        W55634  21.367   6.345  25.883 -0.0952  0.1882 -0.3595
46835W        W55635  13.748   0.764   7.345  0.1112  0.3224 -0.2322
46836W        W55636   4.145   0.895   7.274  0.2140 -0.0730  0.1372
46837W        W55637  22.242   6.428  23.694  0.1971 -0.2155  0.2102
46838W        W55638  23.596   0.558  30.882 -0.0213  0.3402 -0.0803
46839W        W55639   2.077   6.319   2.376  0.1183  0.1433 -0.0799
46840W        W55640  17.447   3.172  30.240  0.3707 -0.0562  0.2361
46841W        W55641   0.257   2.749   3.111  0.0008 -0.1398  0.1593
46842W        W55642  17.938   4.679  18.228 -0.2318  0.3028  0.1978
46843W        W55643   9.228   2.347  11.492 -0.0612 -0.2530  0.2470
46844W        W55644   1.885   7.521  26.491  0.0463  0.1551  0.1972
46845W        W55645  10.228   7.245   5.554 -0.2743 -0.4073  0.0580
46846W        W55646   2.433   2.807  12.132 -0.0196 -0.0193  0.0464
46847W        W55647  23.293   2.477   4.062  0.0955  0.1502 -0.1187
46848W        W55648   3.041   6.416  30.529 -0.2126  0.0106 -0.0124
46849W        W55649  18.358   0.124  25.593  0.0462  0.1785 -0.1791
46850W        W55650  24.806   5.672   1.009 -0.1044 -0.0392  0.2079
46851W        W55651   5.968   1.695  12.278 -0.0578 -0.0176  0.2538
46852W        W55652   7.943   2.367  30.540  0.0794  0.3460  0.3125
46853W        W55653  16.844   6.260  18.931  0.1416  0.1800 -0.1343
46854W        W55654  11.377   1.912  23.057 -0.0908  0.3903 -0.0836
46855W        W55655  24.057   5.039  22.848  0.1936  0.1237  0.1108
46856W        W55656  15.979   5.379  24.288  0.1296  0.0221 -0.0841
46857W        W55657   8.986   1.744  25.024 -0.1931  0.1015 -0.1910
46858W        W55658   4.814   6.732   1.072  0.1905  0.0158  0.1095
46859W        W55659  22.290   4.912  16.212  0.0064 -0.1576 -0.0806
46860W        W55660  24.449   6.020  22.177  0.0743 -0.2165  0.1889
46861W        W55661  11.897   0.402  32.033  0.0728  0.0564  0.3274
46862W        W55662  23.024   7.802  21.897 -0.1881 -0.0452 -0.0968
46863W        W55663   0.448   2.551  30.190  0.1899 -0.1534 -0.0657
46864W        W55664   0.099   7.105  20.394 -0.1113  0.0296 -0.0752
46865W        W55665  24.715   1.718  18.297 -0.0419  0.1685 -0.1282
46866W        W55666   3.639   2.950  30.776  0.4157 -0.0222 -0.2318
46867W        W55667  22.644   5.262  31.369  0.0880  0.0722  0.0252
46868W        W55668   7.570   5.206  12.274  0.0585 -0.1129  0.1658
46869W        W55669  22.651   6.156   5.747 -0.0880 -0.1823  0.1461
46870W        W55670  20.706   1.241  10.467 -0.1550  0.1513 -0.0551
46871W        W55671  12.767   5.382   3.681  0.0412  0.0670 -0.0846
46872W        W55672  19.391   7.821  21.501  0.0015  0.2777 -0.0374
46873W        W55673  21.195   1.671  32.584  0.0498  0.1751 -0.2035
46874W        W55674  10.736   2.592   1.324 -0.0073 -0.1233 -0.2869
46875W        W55675  20.826   0.661   5.189  0.1891 -0.3175 -0.1691
46876W        W55676   1.832   0.121   9.278 -0.3123  0.0284  0.3244
46877W        W55677  12.753   2.670   3.950  0.1352 -0.1097 -0.1257
46878W        W55678   3.169   3.792  21.230 -0.1888 -0.0110  0.0515
46879W        W55679  13.583   6.797   2.936  0.2085 -0.1692  0.1251
46880W        W55680   8.175   2.866  31.583  0.3479  0.0824 -0.0674
46881W        W55681  15.220   5.490  27.377 -0.1355 -0.0262  0.0892
46882W        W55682   9.370   1.101   5.347  0.2634 -0.1473  0.2250
46883W        W55683   8.039   6.810   6.574  0.1136  0.0077  0.0289
46884W        W55684  12.297   5.151  14.707 -0.1765  0.1703 -0.1625
46885W        W55685  21.620   0.752  24.428  0.3551 -0.0689  0.0131
46886W        W55686  19.268   3.643  31.749  0.0081 -0.1918 -0.2269
46887W        W55687   5.862   5.549  16.049  0.0665  0.1115  0.2331
46888W        W55688  11.364   0.053  28.099  0.2092  0.2350  0.2841
46889W        W55689   3.081   1.452   4.141  0.3362 -0.2350  0.2865
46890W        W55690  16.712   5.359  17.006  0.1712 -0.0981  0.0745
46891W        W55691  14.027   2.184  20.785  0.0041 -0.1068 -0.0203
46892W        W55692  13.182   6.576   0.016  0.1080  0.2226 -0.0352
46893W        W55693  13.373   0.059  14.522  0.3048  0.2257 -0.2139
46894W        W55694   5.997   5.620   7.458  0.2098  0.2366  0.2685
46895W        W55695   6.870   3.128  28.746  0.1487 -0.0360  0.1654
46896W        W55696  22.629   4.430   9.962 -0.1116  0.0807  0.3260
46897W        W55697  24.714   3.924  28.952 -0.2266 -0.0265 -0.2529
46898W        W55698  11.709   6.737   6.132 -0.0355 -0.2405  0.0565
46899W        W55699  13.247   7.166  32.238 -0.0965 -0.4555 -0.0256
46900W        W55700   0.224   5.120  16.681  0.0747 -0.2081  0.1349
46901W        W55701  13.186   0.657  12.591  0.0659  0.0859 -0.3408
46902W        W55702   9.612   4.431   5.840 -0.1939  0.0794 -0.2605
46903W        W55703  16.769   4.183   8.414 -0.2418 -0.0426 -0.0799
46904W        W55704  15.243   3.318   6.635 -0.0570 -0.1688  0.0416
46905W        W55705   6.368   4.828   9.151  0.0361  0.1655 -0.2257
46906W        W55706  21.219   1.169  24.443  0.2540 -0.1157 -0.2368
46907W        W55707  10.962   1.692  25.288  0.2454  0.3450  0.2235
46908W        W55708   3.779   4.749  31.057  0.4860  0.0040 -0.1440
46909W        W55709  11.493   1.642  25.467 -0.0045 -0.3871  0.1264
46910W        W55710  11.626   5.065   1.579  0.2057 -0.1127 -0.0547
46911W        W55711  21.552   7.270   0.626 -0.2276 -0.2972  0.1096
46912W        W55712  12.413   6.497   3.691  0.3190 -0.1754  0.4877
46913W        W55713   0.591   5.661  11.437 -0.3440 -0.0696 -0.2775
46914W        W55714   4.827   2.117  22.512  0.1628  0.0321  0.0347
46915W        W55715   1.114   2.837  21.642  0.2442 -0.0508 -0.0740
46916W        W55716  10.145   6.678  27.325  0.1981  0.0565 -0.2236
46917W        W55717  17.663   0.649  17.169  0.1155  0.1530 -0.0169
46918W        W55718  24.430   3.988  18.341 -0.1672 -0.0198  0.2916
46919W        W55719   0.989   7.209  21.825 -0.3653  0.2025 -0.0099
46920W        W55720   1.915   4.679  26.178 -0.0364 -0.2133 -0.0094
46921W        W55721   1.025   2.469  29.517  0.0715 -0.1278 -0.1838
46922W        W55722   3.380   3.363   3.491 -0.3339  0.5097 -0.0878
46923W        W55723  17.439   5.354   8.610  0.4656 -0.0314 -0.0410
46924W        W55724   6.840   6.635  30.143  0.2888 -0.0079  0.1432
46925W        W55725  11.464   7.721  30.729  0.1499 -0.1026 -0.0462
46926W        W55726  13.693   2.166   1.240 -0.1321  0.1140  0.4836
46927W        W55727  17.688   4.375  21.836  0.2128 -0.0048  0.2458
46928W        W55728  22.730   0.246   5.010  0.2575  0.1235 -0.1106
46929W        W55729   4.474   6.340  15.887 -0.1903  0.1560 -0.0872
46930W        W55730   9.519   5.958  15.540 -0.0844 -0.2617 -0.0199
46931W        W55731   7.371   5.425  32.353 -0.1119  0.1835  0.1082
46932W        W55732   5.331   0.253  32.510  0.1840 -0.0421  0.0730
46933W        W55733  16.069   2.160  28.004  0.0490 -0.1026  0.2086
46934W        W55734   3.637   0.933  11.549 -0.2321 -0.2614  0.0882
46935W        W55735  22.435   6.017   3.986 -0.1717  0.0295  0.1045
46936W        W55736  11.541   6.748   7.877 -0.0264 -0.0513  0.1000
46937W        W55737  23.148   1.819  16.520 -0.0805  0.1457  0.0519
46938W        W55738  14.224   0.886  28.897 -0.2551 -0.1254  0.0628
46939W        W55739   1.980   5.529  32.295 -0.0448 -0.0468  0.2825
46940W        W55740  13.677   2.264   8.667  0.0698 -0.3702  0.0770
46941W        W55741   0.468   3.495  18.998 -0.1398  0.1193  0.1914
46942W        W55742   9.921   4.369  15.222  0.0475  0.0483  0.0512
46943W        W55743  24.758   0.148   6.942  0.2461 -0.2134 -0.2270
46944W        W55744   5.770   4.027  26.721 -0.3080  0.2376  0.0712
46945W        W55745   8.042   6.316  11.118 -0.0083  0.3531  0.0425
46946W        W55746  15.692   3.574  20.781 -0.1686  0.1017 -0.0427
46947W        W55747  12.115   7.629   6.865 -0.0649  0.1417 -0.0074
46948W        W55748  20.487   2.512   7.828 -0.4535  0.0438  0.1960
46949W        W55749   0.895   7.208  30.214  0.3815 -0.1281 -0.1955
46950W        W55750  18.579   2.301   5.473  0.1007  0.0716 -0.0310
46951W        W55751  12.476   6.430   6.237  0.0498  0.0750 -0.0507
46952W        W55752  14.503   6.513   9.249  0.1355  0.0159 -0.0564
46953W        W55753  21.581   5.278  24.764  0.0086 -0.0288 -0.0732
46954W        W55754  15.504   5.013   9.454 -0.4311 -0.0154 -0.1723
46955W        W55755  19.596   2.341  29.459  0.0229  0.2094  0.1706
46956W        W55756  19.650   7.409   4.775  0.0987 -0.1483 -0.1069
46957W        W55757  13.619   2.276  31.731  0.2627  0.1625  0.0956
46958W        W55758   8.398   6.971  32.633  0.0556  0.2615  0.1766
46959W        W55759  23.929   7.755  32.103 -0.0569 -0.0084 -0.1235
46960W        W55760   4.474   7.058   4.484  0.0819 -0.2155 -0.3353
46961W        W55761   8.385   2.389  28.371 -0.0372  0.3121  0.0043
46962W        W55762   4.757   5.517  12.088  0.2377 -0.1108 -0.0949
46963W        W55763   8.599   7.299  27.786 -0.0496 -0.1764 -0.0695
46964W        W55764  10.167   5.400  14.552 -0.1137  0.3811 -0.0893
46965W        W55765  18.677   3.625   5.401  0.2601 -0.2460 -0.1782
46966W        W55766   7.260   3.873   8.240  0.1750 -0.1388  0.0153
46967W        W55767  21.376   7.141  18.715 -0.0334 -0.1104 -0.2859
46968W        W55768   4.137   7.360  11.411 -0.1448  0.0290 -0.0142
46969W        W55769  24.593   5.648  17.701 -0.0445  0.1253 -0.3336
46970W        W55770   5.407   4.912  10.776 -0.2068 -0.0230 -0.2230
46971W        W55771  18.585   1.426  27.568 -0.0537 -0.2619  0.0738
46972W        W55772  15.832   5.521   9.369  0.0263 -0.1317  0.0926
46973W        W55773   6.520   2.020  16.674  0.0111  0.1998 -0.0638
46974W        W55774  21.617   0.114   4.875 -0.0080 -0.2289 -0.1937
46975W        W55775  19.381   7.571  22.987  0.1846 -0.0539 -0.0739
46976W        W55776  20.659   6.738   5.266 -0.1621 -0.1772  0.1739
46977W        W55777   8.118   0.783   7.453 -0.0280  0.2221 -0.0572
46978W        W55778  11.828   6.280  10.981 -0.0090  0.0586 -0.2215
46979W        W55779  15.646   4.210  29.436  0.0063  0.2140 -0.0891
46980W        W55780  21.852   7.387  29.749  0.2429  0.0445  0.1253
46981W        W55781   9.361   0.315   8.917 -0.2083  0.0710 -0.0044
46982W        W55782   9.406   5.917  13.248  0.0785  0.0923  0.2948
46983W        W55783  16.986   1.460  10.075  0.2106 -0.0938  0.1875
46984W        W55784  15.083   0.454   1.776  0.0495  0.1862 -0.0102
46985W        W55785   4.830   4.075  32.499  0.4505  0.1148 -0.0827
46986W        W55786  10.098   7.533   2.817  0.2171  0.0510  0.5786
46987W        W55787   7.442   1.727  30.267  0.1076  0.0084  0.0067
46988W        W55788   1.761   5.638   4.615 -0.1519  0.1378  0.0791
46989W        W55789   0.134   3.931   6.427 -0.0629  0.1434  0.1727
46990W        W55790  13.800   1.309   6.867 -0.1659 -0.2604 -0.1176
46991W        W55791  10.949   1.681   0.086  0.1758  0.2884  0.3395
46992W        W55792  13.033   7.689   8.360  0.2047 -0.0267  0.3501
46993W        W55793  22.219   1.672   3.263  0.1470 -0.1351  0.2936
46994W        W55794  10.655   7.232  25.571 -0.0658 -0.4094 -0.1433
46995W        W55795  24.331   0.071   6.644 -0.0869 -0.0125  0.1138
46996W        W55796   7.350   0.298  11.054 -0.1202  0.0148  0.1505
46997W        W55797  18.963   2.288   8.467 -0.0642 -0.0168  0.0052
46998W        W55798   8.873   5.902  25.350 -0.2105 -0.0774 -0.2984
46999W        W55799  24.156   1.121  27.554 -0.1130  0.0948 -0.1460
47000W        W55800   7.430   0.109  30.921  0.1598 -0.0240 -0.2146
47001W        W55801   5.328   7.767  24.068 -0.2657  0.1701  0.2160
47002W        W55802  24.933   5.194   7.167 -0.1461  0.0164 -0.1283
47003W        W55803  12.703   1.679  14.272  0.1430 -0.1204 -0.1797
47004W        W55804  24.196   4.187  15.327  0.1515  0.1613 -0.0873
47005W        W55805   7.561   2.009   4.505  0.0175 -0.3093  0.4413
47006W        W55806  21.451   6.028  31.754  0.1339 -0.1105 -0.1498
47007W        W55807   8.150   4.582   2.243 -0.2464  0.1080 -0.1088
47008W        W55808  16.077   4.071   6.547  0.3785  0.2545  0.1091
47009W        W55809   6.181   6.597  14.674 -0.3391 -0.1382  0.2122
47010W        W55810   5.863   7.787   6.295 -0.2454 -0.0641 -0.1626
47011W        W55811  11.279   6.480   9.226  0.0999  0.1885 -0.1552
47012W        W55812   2.807   5.563  25.171 -0.0512 -0.1823 -0.0923
47013W        W55813  21.119   5.360  31.221 -0.0657  0.1182 -0.1689
47014W        W55814  19.614   2.165   3.090  0.4225 -0.3212  0.1404
47015W        W55815  10.125   7.055  11.014  0.0157 -0.0946  0.3675
47016W        W55816  20.723   1.392   0.278 -0.0236  0.0378  0.0864
47017W        W55817   8.594   3.118   7.993  0.1235 -0.1345 -0.0114
47018W        W55818  11.485   7.292  28.211  0.1020  0.1841  0.2294
47019W        W55819   3.203   3.942  29.738 -0.5151  0.2182 -0.0809
47020W        W55820  22.129   4.495   8.168 -0.0378 -0.2607  0.0349
47021W        W55821  23.594   5.422  17.709 -0.2161  0.0286  0.0286
47022W        W55822   4.026   7.371   4.482  0.1947  0.0775 -0.0066
47023W        W55823  11.596   7.073   4.439  0.0600  0.0119  0.0453
47024W        W55824  18.084   6.488  32.565  0.1399 -0.1139  0.1328
47025W        W55825   6.651   1.947  32.177  0.0720  0.0398  0.0386
47026W        W55826   8.547   4.528  26.516 -0.4122 -0.1300 -0.0756
47027W        W55827  23.448   1.495  25.135 -0.1306 -0.0478  0.1805
47028W        W55828   8.369   6.793  25.498  0.1197 -0.0484  0.0878
47029W        W55829  15.748   2.005  32.260 -0.0335 -0.0667 -0.2584
47030W        W55830  15.191   2.988  25.625 -0.2733 -0.0471  0.1637
47031W        W55831   7.394   0.655  28.989  0.0352  0.3001 -0.0987
47032W        W55832   2.865   5.691   5.535  0.2667  0.1804 -0.1011
47033W        W55833   2.980   2.317   3.839  0.2619  0.1181  0.1222
47034W        W55834   9.606   2.303   6.201 -0.2359 -0.2258  0.0214
47035W        W55835   0.634   3.475  17.828 -0.1534 -0.3486 -0.4261
47036W        W55836  20.231   1.470   2.750 -0.1871 -0.0096 -0.0854
47037W        W55837  23.880   5.023  30.039 -0.1447 -0.1581  0.3057
47038W        W55838  18.991   2.872   1.456  0.0805 -0.1452 -0.1406
47039W        W55839  21.221   6.779  23.746 -0.1668 -0.0668  0.0237
47040W        W55840  16.269   7.618  25.589 -0.1222  0.0607 -0.2446
47041W        W55841  15.303   5.605  21.124 -0.2516  0.2757  0.0684
47042W        W55842  21.884   0.817  30.439  0.0737 -0.4415  0.0173
47043W        W55843  15.512   5.299   8.992 -0.1476  0.0604 -0.1357
47044W        W55844  21.444   2.375   0.585  0.1050  0.4194 -0.2856
47045W        W55845   4.245   7.040   3.126 -0.0073 -0.0286  0.1315
47046W        W55846   5.833   3.568  27.169  0.0255  0.1505 -0.1172
47047W        W55847  20.428   6.757  22.428 -0.0738 -0.2038 -0.1822
47048W        W55848  18.374   7.195   6.730  0.0633 -0.2215  0.1670
47049W        W55849  22.003   4.910   0.514 -0.0863  0.0364  0.0444
47050W        W55850  15.708   6.154  24.201  0.2268 -0.1932  0.1205
47051W        W55851  18.636   5.847   8.381  0.2349  0.0904  0.1641
47052W        W55852   9.399   4.085  11.894  0.1797  0.2958  0.2828
47053W        W55853  14.046   7.439  13.632  0.1771 -0.0473 -0.2225
47054W        W55854  24.737   0.794   0.613 -0.2767 -0.1664 -0.0633
47055W        W55855  15.805   6.013  10.418  0.1295 -0.0098  0.0285
47056W        W55856   3.972   7.313  12.365  0.0121  0.1608 -0.0133
47057W        W55857  22.968   2.766  28.837 -0.3408 -0.1647  0.0669
47058W        W55858   0.848   0.518  18.097  0.0829  0.2260  0.1207
47059W        W55859  17.366   6.430   2.853 -0.1769 -0.0985 -0.0406
47060W        W55860   4.219   1.056  21.937  0.0306  0.0425  0.4971
47061W        W55861  13.319   3.579   7.259 -0.0178 -0.1747  0.0354
47062W        W55862  22.492   1.602   8.609 -0.2735 -0.3091  0.2988
47063W        W55863  13.702   3.586  12.287 -0.3004 -0.0736  0.0568
47064W        W55864   9.608   4.817  31.756  0.0562  0.0209 -0.2067
47065W        W55865   9.904   7.675   8.266 -0.0865 -0.1839 -0.1324
47066W        W55866  11.122   6.310  10.562 -0.0309  0.0319  0.0534
47067W        W55867   8.571   6.894  11.759 -0.0408 -0.2113  0.1940
47068W        W55868   7.348   3.428  13.813  0.2316 -0.2762  0.2377
47069W        W55869   2.909   0.699  24.257  0.0462 -0.2947 -0.1933
47070W        W55870  15.378   6.851   4.604 -0.1177  0.0052  0.0751
47071W        W55871   9.640   1.498  23.065 -0.1724 -0.0028  0.0027
47072W        W55872  15.816   7.514   2.190 -0.0145 -0.2403  0.2538
47073W        W55873   7.070   6.737  32.215 -0.0199 -0.2292  0.3185
47074W        W55874  16.716   2.288   3.204  0.0408 -0.1251 -0.3226
47075W        W55875  23.191   5.278   8.926 -0.2524  0.1718  0.1751
47076W        W55876  15.569   0.631  20.569  0.0261 -0.0340  0.0598
47077W        W55877   8.047   3.195   3.912 -0.0737 -0.0589  0.0633
47078W        W55878  15.311   3.269  24.995  0.0292  0.0448 -0.0046
47079W        W55879   8.016   7.197  14.450  0.0088 -0.1107 -0.0553
47080W        W55880   5.020   2.639  27.011  0.0738  0.2756  0.2297
47081W        W55881  21.737   7.609  19.360 -0.1582 -0.1431  0.0950
47082W        W55882   7.771   5.589   2.220  0.3001  0.1832 -0.1111
47083W        W55883  19.031   7.748   0.885 -0.0961 -0.0445 -0.1293
47084W        W55884  24.292   3.516   3.455  0.0849  0.3282 -0.2396
47085W        W55885  12.621   5.976   1.139 -0.2405  0.1098 -0.0519
47086W        W55886  11.455   0.263  12.736  0.2505  0.0399 -0.1128
47087W        W55887  18.022   4.923   2.307 -0.0855 -0.1901 -0.4218
47088W        W55888  23.121   1.580  29.602 -0.0896 -0.0947  0.3095
47089W        W55889  18.740   7.302  19.253  0.3790  0.3582  0.0696
47090W        W55890   0.742   1.918   3.551 -0.1226  0.1750 -0.2663
47091W        W55891  11.336   6.821   3.036  0.0171  0.0862  0.1932
47092W        W55892   6.654   5.031   9.643 -0.2594 -0.2060  0.2241
47093W        W55893   0.036   2.763  26.758 -0.2423  0.0323 -0.2469
47094W        W55894  23.223   1.126  22.602 -0.2490 -0.1923  0.0933
47095W        W55895   7.469   5.184  12.739 -0.3569 -0.0965 -0.0219
47096W        W55896   9.985   4.184  26.750  0.2523 -0.1897  0.1857
47097W        W55897  12.345   1.075   2.450  0.2618 -0.2240 -0.1071
47098W        W55898  12.144   3.995  27.677 -0.1600 -0.1915  0.0430
47099W        W55899   0.062   0.344   7.190 -0.1594  0.1395 -0.1094
47100W        W55900  16.594   7.297   2.581 -0.1278 -0.0467  0.2211
47101W        W55901   5.036   3.168  15.454 -0.1089  0.0371 -0.0604
47102W        W55902  22.334   0.898   3.953 -0.2281 -0.3642  0.1710
47103W        W55903  21.567   3.056   7.066  0.0595  0.0623  0.0317
47104W        W55904  11.356   0.718  29.900 -0.3569  0.1786 -0.0802
47105W        W55905  24.375   1.673  18.797  0.0793 -0.1007  0.0542
47106W        W55906   0.812   1.946   7.310  0.0959 -0.0261 -0.2891
47107W        W55907   2.581   2.019  21.444 -0.0137 -0.2850 -0.0154
47108W        W55908   9.107   7.242  24.219  0.1621 -0.0033 -0.1119
47109W        W55909   3.237   7.530  27.730 -0.0820  0.3192  0.0833
47110W        W55910   3.843   3.213  23.474  0.1023 -0.0413 -0.0697
47111W        W55911   2.260   3.002   4.027  0.2764  0.0135 -0.0251
47112W        W55912  15.393   7.388  20.056 -0.0749  0.1881  0.1488
47113W        W55913  16.806   5.744  27.880 -0.1991  0.1852  0.0189
47114W        W55914   0.250   3.473  18.473  0.1871  0.1135 -0.3016
47115W        W55915  20.571   3.587   2.786 -0.0998  0.0062 -0.2635
47116W        W55916   5.050   0.607  11.304  0.2393 -0.1330 -0.1303
47117W        W55917  16.195   4.618  24.519  0.0571 -0.1738  0.0519
47118W        W55918  10.543   2.425  11.724 -0.1366  0.1783 -0.0087
47119W        W55919  17.316   3.554  23.029  0.1535  0.0360 -0.3382
47120W        W55920  15.255   1.003  22.551  0.1269 -0.5099  0.2253
47121W        W55921   1.554   0.999  27.899 -0.2438 -0.2399  0.2485
47122W        W55922  16.490   5.462  25.943 -0.0351 -0.2729 -0.3074
47123W        W55923   9.883   3.761  31.193 -0.1032 -0.1041  0.0247
47124W        W55924  19.064   6.649  30.550  0.1466  0.0518 -0.0521
47125W        W55925  15.993   5.865  22.311 -0.1585  0.0818  0.0887
47126W        W55926  13.841   7.279  30.002 -0.2907  0.1738  0.1166
47127W        W55927   9.367   2.167  24.927  0.2966 -0.1211  0.1204
47128W        W55928   9.206   3.740   2.856  0.1600 -0.0304  0.1494
47129W        W55929  24.876   6.624  23.581 -0.0554 -0.2230  0.0357
47130W        W55930  17.824   2.026  31.390 -0.0922 -0.1439  0.0224
47131W        W55931  12.692   4.911   0.054  0.0845  0.1846  0.2125
47132W        W55932  21.760   5.089  14.942  0.1008 -0.1093 -0.0870
47133W        W55933   8.527   0.321   9.084  0.2142  0.0637  0.1652
47134W        W55934  13.752   2.798  26.672 -0.2282  0.2905 -0.0762
47135W        W55935  21.959   4.919  27.215  0.1278 -0.2793  0.0206
47136W        W55936   5.340   3.380   1.627 -0.3676 -0.2837 -0.2390
47137W        W55937   7.554   5.578   9.476 -0.1798 -0.1383  0.0484
47138W        W55938  14.755   6.126   3.034  0.0040 -0.2937  0.2360
47139W        W55939   4.454   2.378  29.795 -0.1073  0.0573 -0.0896
47140W        W55940   7.668   4.348   8.069 -0.1200  0.0121 -0.3730
47141W        W55941  10.731   4.357  32.434  0.0653  0.0989 -0.0647
47142W        W55942  24.963   0.294  26.916 -0.0711 -0.0165 -0.2447
47143W        W55943  10.763   1.558   5.179  0.2359 -0.2020  0.1968
47144W        W55944  23.578   7.203   6.051  0.1685 -0.0380 -0.1615
47145W        W55945  17.202   4.277  25.033 -0.0043 -0.1719  0.0314
47146W        W55946   3.742   5.839  31.967 -0.1796  0.1171  0.0038
47147W        W55947   9.275   7.348  18.283  0.1592 -0.0470  0.0794
47148W        W55948  11.638   0.558   1.460 -0.2409 -0.1563 -0.1476
47149W        W55949   7.287   2.813   2.243 -0.1848 -0.0559  0.1977
47150W        W55950  14.445   3.830  10.686 -0.0625 -0.0148 -0.4861
47151W        W55951  18.520   5.049   3.704 -0.0828 -0.0803  0.1310
47152W        W55952  16.628   7.758  20.966  0.2609 -0.1616  0.0386
47153W        W55953  10.242   6.797   9.382  0.1673  0.2842 -0.1192
47154W        W55954  10.222   4.048   4.870  0.1024 -0.0728 -0.0905
47155W        W55955   5.452   4.736  28.419 -0.0070 -0.1252 -0.0880
47156W        W55956  21.671   5.267   7.742  0.0959  0.4407 -0.0459
47157W        W55957  14.732   5.871  31.646 -0.3559  0.0749 -0.2803
47158W        W55958   5.480   4.232  32.344  0.0422  0.0077 -0.0007
47159W        W55959  15.538   2.845  32.695  0.2091 -0.2465 -0.1740
47160W        W55960   9.064   6.216   3.809 -0.1443  0.1007 -0.2503
47161W        W55961   9.590   2.446  19.079 -0.0674 -0.0496  0.1021
47162W        W55962  24.408   2.844  15.963 -0.2194 -0.1360 -0.0722
47163W        W55963  21.915   7.625  18.002 -0.0264 -0.0512  0.2364
47164W        W55964   8.293   7.293  19.151 -0.0564  0.3713 -0.1075
47165W        W55965  15.794   5.268  25.564 -0.0134  0.1598 -0.1364
47166W        W55966  21.716   6.258   8.991 -0.2619  0.0394 -0.2379
47167W        W55967  19.067   5.101  22.008  0.2634  0.1793 -0.0166
47168W        W55968   6.451   1.426  23.379 -0.0232  0.0053  0.2548
47169W        W55969  17.758   0.495  11.404 -0.0069 -0.1298  0.0345
47170W        W55970  11.046   6.708  27.201 -0.0564 -0.2840 -0.0925
47171W        W55971   4.035   1.402   8.144  0.2745  0.0970 -0.0361
47172W        W55972  11.122   0.358  16.250 -0.1267  0.0604  0.1347
47173W        W55973   9.994   4.704  11.348 -0.1405 -0.1905  0.1614
47174W        W55974  19.225   1.659  24.762 -0.0828  0.1320 -0.3422
47175W        W55975   5.840   4.662   0.996  0.3596 -0.0989 -0.3201
47176W        W55976  22.029   4.362  20.470 -0.0346  0.4000  0.0399
47177W        W55977  11.083   1.559   2.423 -0.0743 -0.0409  0.1579
47178W        W55978  10.276   3.514  23.363 -0.0759  0.3254 -0.0745
47179W        W55979  23.412   5.581  16.014  0.0736 -0.0530  0.1668
47180W        W55980  18.797   3.108   4.580 -0.1986 -0.1088 -0.3327
47181W        W55981   3.659   1.470  14.272  0.1249 -0.0873  0.0141
47182W        W55982   7.846   4.250  24.387  0.0567  0.0057 -0.3424
47183W        W55983  18.497   1.797   4.334 -0.0694 -0.2722 -0.0203
47184W        W55984  12.847   6.859  28.988 -0.1061  0.1340 -0.2459
47185W        W55985   2.594   1.327  29.408  0.0914  0.1932  0.2473
47186W        W55986   2.068   0.728  12.462  0.0671  0.0092  0.2131
47187W        W55987   6.994   5.730  29.942 -0.0403  0.0712 -0.0907
47188W        W55988   2.606   5.598  25.630 -0.3309  0.1659 -0.0693
47189W        W55989   9.877   0.587  29.036  0.0380  0.1255 -0.2158
47190W        W55990   3.854   3.334  11.786  0.0658  0.2215 -0.0512
47191W        W55991  13.475   6.364   5.049  0.0676 -0.1505 -0.3145
47192W        W55992  19.849   5.424   1.935  0.1561  0.0203  0.0657
47193W        W55993  20.227   5.218  29.998 -0.0445  0.3924  0.1506
47194W        W55994  22.135   7.774  31.120  0.0210  0.1717 -0.2192
47195W        W55995  12.871   1.303  27.142  0.0025  0.0484  0.2968
47196W        W55996  17.810   7.754  10.673 -0.2871  0.1309 -0.1018
47197W        W55997  24.232   0.158  18.413 -0.1631  0.0734 -0.1622
47198W        W55998  10.586   1.404  11.856  0.3262 -0.0062  0.2841
47199W        W55999  21.775   6.798  27.297  0.0879  0.4215  0.1560
47200W        W56000  15.489   6.159  11.975  0.1416 -0.3058  0.0084
47201W        W56001   5.300   2.865  23.315  0.0136 -0.5458 -0.0706
47202W        W56002  10.238   4.685   7.826 -0.0949 -0.3416 -0.2182
47203W        W56003   6.291   2.802  21.794 -0.1595  0.0749 -0.0700
47204W        W56004   7.555   3.894   1.901  0.0190 -0.0657  0.2688
47205W        W56005   3.834   5.771  24.367 -0.0901 -0.0654  0.1273
47206W        W56006  16.817   4.670  26.737 -0.1598  0.0330  0.1412
47207W        W56007  10.249   5.223   6.721  0.2997 -0.1163 -0.1500
47208W        W56008  15.498   6.729  10.684  0.6237 -0.0623 -0.5036
47209W        W56009   4.512   2.125   3.593  0.1123 -0.1440 -0.0452
47210W        W56010  15.834   4.326  19.978  0.1160 -0.1147 -0.0938
47211W        W56011  19.728   3.278   6.513  0.3424  0.0157  0.0120
47212W        W56012   7.120   1.136  11.912 -0.3127 -0.0988  0.2618
47213W        W56013   8.535   3.422  25.414  0.1989 -0.2364 -0.1394
47214W        W56014  15.189   2.090  21.247 -0.1602 -0.1434 -0.1211
47215W        W56015   9.512   4.560   6.342 -0.0702 -0.0030 -0.1183
47216W        W56016  10.909   0.209  17.059  0.0497 -0.3083 -0.1213
47217W        W56017   5.904   2.255  27.533  0.1598 -0.0064 -0.2397
47218W        W56018   5.428   1.151   2.478  0.1136 -0.0377 -0.0929
47219W        W56019  15.109   4.416  23.448  0.1199 -0.2144 -0.0264
47220W        W56020  17.221   6.955  26.785  0.0315 -0.0232 -0.1268
47221W        W56021  22.370   0.131  26.050 -0.1942 -0.1754  0.1967
47222W        W56022  18.418   0.414  22.318 -0.0111 -0.1857 -0.1767
47223W        W56023  18.475   4.645   5.662  0.1533  0.4048 -0.0700
47224W        W56024   8.634   7.156  10.336  0.1591  0.2340 -0.2238
47225W        W56025   7.058   2.525  22.310  0.0179  0.0560  0.4113
47226W        W56026   0.820   7.027   3.543 -0.1863 -0.4201 -0.1418
47227W        W56027  18.489   5.635  31.637  0.2588 -0.2636 -0.0510
47228W        W56028  20.348   2.991  14.849  0.2172 -0.0449  0.0226
47229W        W56029  21.109   7.480  26.341  0.0465 -0.0620 -0.1035
47230W        W56030  25.043   6.291   7.026  0.1337 -0.2047 -0.0241
47231W        W56031  21.745   4.411   7.836 -0.2384 -0.3363 -0.0275
47232W        W56032   1.718   7.086  23.403 -0.2552 -0.0144  0.0375
47233W        W56033  22.421   5.034  29.589 -0.0879  0.2222 -0.0999
47234W        W56034  11.907   7.574  11.631 -0.1501 -0.2510  0.0280
47235W        W56035  14.525   7.445  31.271  0.0680 -0.2621  0.1618
47236W        W56036  17.913   5.415  17.184 -0.1457 -0.5661  0.3090
47237W        W56037  22.863   3.768  28.833  0.0763 -0.0656  0.2075
47238W        W56038  14.840   3.530   0.376  0.0778 -0.0571  0.1163
47239W        W56039  22.408   1.685   2.271 -0.2446  0.1074 -0.0866
47240W        W56040  18.701   3.415  25.261 -0.4503 -0.1369 -0.0908
47241W        W56041  20.747   1.837  24.093 -0.1259  0.2446  0.0964
47242W        W56042   4.043   3.350  10.016 -0.1480 -0.1049  0.1009
47243W        W56043  19.456   2.325  25.306 -0.1195  0.3628 -0.0239
47244W        W56044  12.739   0.938   6.331  0.0282  0.0310  0.1723
47245W        W56045  10.245   2.451   0.526  0.1705  0.3486 -0.0107
47246W        W56046  11.272   3.214   4.884  0.0414 -0.1200 -0.0457
47247W        W56047  15.745   1.218  24.036 -0.1699  0.0200  0.3601
47248W        W56048  11.450   2.842  31.925  0.1320 -0.0132 -0.1377
47249W        W56049  15.675   1.034  28.276 -0.0769 -0.0871  0.0474
47250W        W56050  17.646   7.140   7.634  0.0486  0.1128  0.3002
47251W        W56051   8.595   6.750   4.884 -0.0084  0.2403 -0.1108
47252W        W56052  20.393   2.341   2.355 -0.0039 -0.4108  0.1165
47253W        W56053  21.228   5.551  24.466  0.0822 -0.2403  0.0804
47254W        W56054   4.968   7.586   7.504 -0.1260 -0.1701 -0.1999
47255W        W56055   8.047   3.622  22.514 -0.1057 -0.2062 -0.0275
47256W        W56056  11.434   6.618  32.120 -0.0252  0.0437 -0.0414
47257W        W56057  21.343   3.236  17.197  0.0814  0.1412  0.3041
47258W        W56058  10.389   3.379  10.629 -0.1470 -0.0545  0.2600
47259W        W56059  10.950   2.826   6.201 -0.1001 -0.2823 -0.2325
47260W        W56060   5.885   2.187  26.526 -0.1694 -0.3428 -0.0297
47261W        W56061   1.223   3.827  20.152 -0.2149  0.1342 -0.0123
47262W        W56062  10.550   0.332  31.117 -0.1271  0.1487 -0.3801
47263W        W56063   2.667   0.324   8.264 -0.0951  0.0496  0.0248
47264W        W56064  13.925   0.470   8.677 -0.1296 -0.0508  0.2613
47265W        W56065  20.735   4.040   7.159 -0.0767  0.0415  0.1292
47266W        W56066   1.847   1.484   9.575  0.0941  0.0211 -0.0109
47267W        W56067   8.693   4.873   0.918  0.0748  0.0293 -0.1827
47268W        W56068  14.635   5.453  29.445 -0.1706  0.2390 -0.1327
47269W        W56069   7.595   6.086  13.357  0.1533 -0.2168  0.0888
47270W        W56070   2.579   0.650  20.166  0.1606  0.2610  0.2240
47271W        W56071   1.736   0.546  31.368  0.0357 -0.5071  0.1322
47272W        W56072   7.686   5.834   1.534 -0.0355  0.1431 -0.1634
47273W        W56073  17.805   4.001   3.912 -0.2522  0.3086 -0.0316
47274W        W56074  21.668   7.596   1.095 -0.2645 -0.2347 -0.0164
47275W        W56075   7.678   7.533   1.873  0.1397 -0.0427 -0.1776
47276W        W56076  18.431   0.094   3.568 -0.3806  0.2215  0.3888
47277W        W56077  10.233   5.803   4.526 -0.3894 -0.0364  0.1077
47278W        W56078   3.234   0.877  32.656 -0.1991 -0.0592  0.1242
47279W        W56079  12.020   5.176   8.593 -0.0244  0.0467  0.1154
47280W        W56080  16.649   6.886   7.800 -0.0169 -0.1079 -0.2190
47281W        W56081   9.047   3.290   7.880  0.1815  0.1031 -0.0240
47282W        W56082  23.403   4.466   5.267  0.1699 -0.2295 -0.1902
47283W        W56083   4.810   3.426   2.263  0.2954 -0.3863  0.1202
47284W        W56084  10.936   2.357  23.087 -0.0194 -0.0451 -0.4081
47285W        W56085   7.174   7.664  10.954  0.3101 -0.0802  0.0267
47286W        W56086  21.343   7.345  19.195  0.0341  0.1129 -0.2214
47287W        W56087   8.395   2.918   7.550 -0.0307  0.1165  0.1493
47288W        W56088   1.442   0.482  29.221  0.4102 -0.0626  0.3548
47289W        W56089  23.698   3.794  21.752 -0.0305 -0.0279 -0.0299
47290W        W56090  12.215   0.455  28.080 -0.0641 -0.2496 -0.0882
47291W        W56091   0.715   5.972  18.774  0.2981  0.0741 -0.0816
47292W        W56092  15.789   5.572   5.979 -0.2205  0.3039  0.2462
47293W        W56093   7.322   7.654   1.101 -0.0519 -0.1818 -0.2604
47294W        W56094  23.963   6.422  20.128  0.2416 -0.0300  0.0995
47295W        W56095  22.060   7.797  18.926 -0.0137 -0.0388  0.1208
47296W        W56096   1.653   4.683   9.903  0.0398 -0.1582  0.2308
47297W        W56097   5.051   4.206  26.733 -0.3315 -0.2796 -0.3435
47298W        W56098  23.891   6.947  31.344  0.1290 -0.2283  0.0272
47299W        W56099   2.422   2.217  25.399 -0.2888  0.0480  0.2105
47300W        W56100  17.174   7.426  25.771  0.0405  0.0203  0.4212
47301W        W56101   2.506   7.242  31.144  0.0667 -0.4352 -0.1485
47302W        W56102  17.537   6.247  32.697  0.1358  0.0671 -0.2490
47303W        W56103  20.465   4.228  32.559  0.0968  0.0344  0.0658
47304W        W56104  23.337   3.955   3.905 -0.1027  0.0468  0.0349
47305W        W56105   9.037   6.229   1.420  0.0705 -0.2132  0.0257
47306W        W56106   5.062   2.713  26.550  0.1436 -0.2846  0.0932
47307W        W56107  18.068   0.689  31.538  0.2976  0.2406 -0.1064
47308W        W56108   1.976   3.836  31.339 -0.1084  0.3567 -0.1417
47309W        W56109   0.704   3.314  20.518  0.1545  0.0255  0.1590
47310W        W56110  23.974   1.725   0.181 -0.2477  0.0148 -0.2020
47311W        W56111   6.066   0.466  23.392 -0.0051  0.4389 -0.0476
47312W        W56112  22.293   4.983   9.311 -0.4771  0.1928  0.1252
47313W        W56113  20.794   4.471  22.282  0.5180 -0.0603 -0.1303
47314W        W56114   2.124   1.707  20.484  0.2925  0.2189  0.1736
47315W        W56115   3.597   3.331  28.657 -0.1987 -0.1163  0.1840
47316W        W56116  24.366   7.666  30.929  0.1736  0.2370 -0.1089
47317W        W56117  24.625   2.645   3.810  0.1356  0.0640  0.0799
47318W        W56118   7.316   1.299   0.105  0.0903 -0.0617 -0.0732
47319W        W56119  21.123   6.305  31.005 -0.3674  0.1795  0.0833
47320W        W56120  10.602   2.330   2.076  0.0291 -0.0970 -0.0527
47321W        W56121  11.357   1.954  28.353  0.0676  0.0242  0.0789
47322W        W56122  19.415   1.345   2.741  0.2354  0.0845 -0.0055
47323W        W56123  19.472   7.534  16.450 -0.1184 -0.0867  0.3215
47324W        W56124  20.121   5.155   1.252 -0.1089  0.2596 -0.3121
47325W        W56125  18.601   4.538  23.954 -0.0589  0.1777  0.2970
47326W        W56126   5.102   2.220  26.446  0.2373 -0.3906 -0.0311
47327W        W56127   3.004   5.770  22.212  0.0102  0.0015  0.2122
47328W        W56128  21.552   0.314   0.421 -0.1314 -0.0388  0.1759
47329W        W56129   7.561   1.599  29.008 -0.0269 -0.0557  0.2158
47330W        W56130  24.575   7.788  20.144  0.0280 -0.0018  0.1673
47331W        W56131  17.985   4.387   0.311 -0.1262 -0.0471 -0.1762
47332W        W56132  11.849   1.323  11.128  0.1395  0.2215 -0.3314
47333W        W56133  24.993   5.401  29.451 -0.1412 -0.0842 -0.0586
47334W        W56134   9.008   0.301  14.511 -0.0790  0.0601  0.0279
47335W        W56135   4.725   3.191  25.749  0.0501 -0.0499  0.1857
47336W        W56136  17.703   1.814  26.497  0.4132 -0.0401 -0.0200
47337W        W56137  12.317   0.008  32.120  0.0922 -0.0972  0.0520
47338W        W56138  20.320   0.823  22.861  0.2349 -0.0877 -0.1005
47339W        W56139  19.591   6.393  20.708  0.1459 -0.1168 -0.1681
47340W        W56140  17.402   3.676  31.039 -0.0151 -0.2055 -0.2473
47341W        W56141  22.427   0.292  26.527 -0.0355 -0.1114 -0.3533
47342W        W56142   9.086   5.279   5.191  0.2202 -0.2405  0.2017
47343W        W56143  21.713   7.780  27.137  0.0936 -0.1038 -0.0814
47344W        W56144  11.006   7.082  29.597  0.0082  0.0474 -0.0803
47345W        W56145  12.910   7.707  22.120 -0.0480  0.0156 -0.3165
47346W        W56146  24.284   7.038  23.404 -0.2608  0.0945  0.1954
47347W        W56147   0.147   3.492  26.442 -0.0653  0.0755  0.1704
47348W        W56148  11.673   3.255   2.286 -0.0753 -0.0301 -0.0833
47349W        W56149  15.866   4.324  27.578  0.1862  0.0635  0.2280
47350W        W56150   1.558   0.942   6.631  0.1112 -0.1491  0.1909
47351W        W56151   8.990   3.312   2.797 -0.1904 -0.4100 -0.0230
47352W        W56152  11.932   6.252   6.114 -0.0050 -0.0785  0.0444
47353W        W56153  13.752   3.287  12.701 -0.0852  0.2019  0.2732
47354W        W56154   2.920   0.425  23.813  0.1711 -0.1572  0.1485
47355W        W56155   9.303   2.953  14.683 -0.1058 -0.0768 -0.1591
47356W        W56156   2.835   1.070  29.086 -0.2755  0.0601  0.4098
47357W        W56157  21.882   7.708  28.897  0.1700 -0.1086  0.1823
47358W        W56158   7.389   3.622  29.150 -0.6297  0.1957 -0.0089
47359W        W56159  23.750   5.730  16.341  0.0320 -0.2665  0.0129
47360W        W56160  18.291   7.178  22.127  0.4380  0.1961  0.0166
47361W        W56161  13.199   0.625   0.288 -0.1825  0.0002  0.0018
47362W        W56162  19.003   3.533   5.865  0.1242  0.1505  0.2106
47363W        W56163  14.502   5.843  21.982 -0.2024 -0.1061  0.1360
47364W        W56164  16.091   7.156  11.844 -0.1170  0.0505 -0.1996
47365W        W56165   3.534   1.092  29.547  0.1712 -0.1944 -0.1153
47366W        W56166   5.223   6.599  13.612  0.0548  0.1328  0.0195
47367W        W56167  16.918   5.399   4.705  0.1477  0.2010 -0.0837
47368W        W56168  13.821   4.046  25.240 -0.1079  0.2414 -0.0372
47369W        W56169   3.061   1.473  21.409 -0.2407 -0.4178 -0.0676
47370W        W56170  10.690   5.311  28.722 -0.0297 -0.0169  0.2479
47371W        W56171  16.441   1.693   7.560  0.2193  0.0089 -0.1672
47372W        W56172   6.461   7.734  31.791  0.0535  0.0940 -0.0978
47373W        W56173   5.186   0.785   4.342 -0.1233  0.1481 -0.2201
47374W        W56174  13.485   1.151   8.943 -0.1343  0.0032  0.0791
47375W        W56175  14.085   4.674  23.326 -0.0325 -0.1582  0.2033
47376W        W56176  13.601   4.993  28.753  0.1299 -0.1531 -0.1212
47377W        W56177   6.338   5.274  10.454 -0.1768  0.0379  0.1470
47378W        W56178   8.943   4.505  28.259  0.0218 -0.1437 -0.2626
47379W        W56179  20.256   7.152  23.816 -0.1387 -0.2056  0.0179
47380W        W56180  11.035   6.867   8.967  0.1319 -0.3024  0.1473
47381W        W56181  10.396   4.324   9.075  0.1259  0.1388  0.2994
47382W        W56182  19.248   3.031   8.851  0.0235 -0.1676  0.1267
47383W        W56183   3.334   0.709  21.235 -0.1393 -0.0116 -0.1631
47384W        W56184   3.107   0.967  13.897 -0.2133  0.1092  0.1562
47385W        W56185  15.962   7.692   7.762 -0.0346 -0.0149 -0.0784
47386W        W56186   1.645   2.498  24.126 -0.1174 -0.2150 -0.1311
47387W        W56187   9.010   3.526   1.212  0.3578  0.0249 -0.2012
47388W        W56188  21.079   6.227  18.850 -0.2041  0.0374 -0.0078
47389W        W56189  13.021   5.330  23.468 -0.0398  0.3029  0.2347
47390W        W56190   9.629   5.456  11.288  0.3671  0.0016  0.1159
47391W        W56191  15.239   2.252  25.447  0.1487 -0.0729  0.3347
47392W        W56192  23.915   6.225   9.984  0.2032 -0.1606  0.0411
47393W        W56193  24.294   1.636  20.037 -0.2360  0.1195  0.0601
47394W        W56194  23.102   0.207  25.162  0.1937 -0.0093 -0.0595
47395W        W56195  13.235   5.765  29.120 -0.1207 -0.1510  0.0273
47396W        W56196  22.910   6.088   1.539 -0.0896 -0.1980 -0.0755
47397W        W56197   2.892   4.011   5.968 -0.1030 -0.0426 -0.2957
47398W        W56198   9.127   5.187   4.124 -0.1742  0.2785 -0.4524
47399W        W56199  13.978   2.985  23.515 -0.1379  0.1288 -0.0753
47400W        W56200   2.488   5.017   8.155  0.1697  0.1642 -0.2239
47401W        W56201  24.598   2.877   0.529 -0.1139 -0.0165 -0.1590
47402W        W56202  22.267   5.626  31.638  0.0608 -0.2540  0.0835
47403W        W56203  13.762   4.006  22.474 -0.1725 -0.0367 -0.2975
47404W        W56204   9.086   6.744  25.141 -0.0122  0.0778  0.0262
47405W        W56205  10.420   1.696   9.044 -0.0060 -0.0532 -0.1772
47406W        W56206  23.467   6.482  16.802  0.0552 -0.0052  0.0678
47407W        W56207   8.207   6.547  15.081 -0.0627  0.3047  0.0584
47408W        W56208   5.785   0.889  15.406  0.2694  0.2198  0.2668
47409W        W56209   3.391   3.575   3.017  0.3082  0.0025 -0.0926
47410W        W56210   1.694   6.904  22.428  0.0867 -0.1113  0.1039
47411W        W56211  15.286   1.217  21.195 -0.0389 -0.1520  0.1361
47412W        W56212   7.827   6.930  27.312 -0.0914  0.0384  0.2379
47413W        W56213  15.535   2.779   4.737 -0.2621  0.1610  0.2022
47414W        W56214   6.885   7.010  25.502 -0.1006 -0.1273  0.1241
47415W        W56215  21.206   3.275  30.983  0.2406  0.2257 -0.4502
47416W        W56216   6.283   2.517   0.912 -0.0626 -0.0352  0.0098
47417W        W56217  23.198   0.259  27.231 -0.0979 -0.0213 -0.1048
47418W        W56218  17.000   7.366   1.718  0.1020 -0.2493 -0.0809
47419W        W56219  21.349   1.862  20.448 -0.0493  0.2286 -0.0591
47420W        W56220   4.787   7.558   3.771  0.4736 -0.0288 -0.1866
47421W        W56221  18.646   0.154  17.889  0.2612  0.2716  0.1020
47422W        W56222  23.581   6.789  22.594 -0.2686  0.1269  0.1767
47423W        W56223   8.636   4.153   8.946 -0.2920 -0.0811  0.0981
47424W        W56224  12.292   5.925   6.482  0.1296  0.2721  0.3562
47425W        W56225  18.069   3.841  29.865  0.2092  0.0079  0.2037
47426W        W56226   6.863   2.109  23.142  0.5161 -0.1124 -0.1177
47427W        W56227   8.657   2.122  30.794  0.1544 -0.0032  0.1728
47428W        W56228  19.628   0.367  26.141 -0.0598 -0.0571 -0.1796
47429W        W56229  18.772   2.534  16.372  0.0083  0.2792 -0.1131
47430W        W56230  13.940   4.931  25.052  0.1419  0.0728  0.2598
47431W        W56231  15.666   6.579   3.886 -0.0203 -0.1205 -0.1942
47432W        W56232  21.634   4.822   1.824 -0.0689 -0.4165  0.1826
47433W        W56233   2.972   2.620   2.325  0.0055  0.3195 -0.0349
47434W        W56234  17.630   2.373  23.099  0.2306  0.1543  0.2117
47435W        W56235   7.886   1.370  28.633 -0.1497  0.1480 -0.1628
47436W        W56236   3.449   1.106  10.328  0.1279  0.3601 -0.0581
47437W        W56237  19.316   2.147  28.268 -0.0945 -0.4561  0.0994
47438W        W56238   9.535   2.341   3.704 -0.1607  0.1291  0.0238
47439W        W56239  13.399   4.064  11.498 -0.1692 -0.1044 -0.1042
47440W        W56240   7.148   5.117  29.756 -0.1907  0.0798  0.2996
47441W        W56241   3.369   7.255  28.550 -0.0849  0.1826  0.2135
47442W        W56242  22.215   4.958   8.420  0.0398  0.3467  0.0703
47443W        W56243  20.632   7.759   0.042  0.1254 -0.0305 -0.0367
47444W        W56244  19.182   1.703   8.323 -0.1860 -0.2009 -0.3158
47445W        W56245  18.672   3.553  27.644  0.1937 -0.0805  0.4156
47446W        W56246  23.928   3.937   1.615 -0.2009 -0.2323 -0.1690
47447W        W56247  10.044   4.571   1.668 -0.1041 -0.4026 -0.5628
47448W        W56248  22.782   1.046   8.661 -0.2616 -0.0048 -0.1325
47449W        W56249  15.455   7.574   8.535 -0.0551  0.2122  0.2006
47450W        W56250   9.598   7.523  24.392 -0.0957  0.1913 -0.0608
47451W        W56251  15.090   6.023  25.011  0.1871  0.1290 -0.1436
47452W        W56252  22.245   6.034   5.553 -0.1586 -0.0689  0.2019
47453W        W56253   6.825   3.248  12.753 -0.0951 -0.2811 -0.0185
47454W        W56254  18.191   2.806  15.245  0.1386 -0.1288  0.0340
47455W        W56255  12.141   3.723   0.245  0.3201  0.1484 -0.2416
47456W        W56256  20.617   4.784   2.466  0.1232 -0.0098 -0.2439
47457W        W56257   0.290   2.317   8.188 -0.1744 -0.0517 -0.1272
47458W        W56258  11.120   5.913   2.741  0.2728 -0.0351  0.1094
47459W        W56259   4.635   1.397  30.741 -0.1701 -0.2367  0.0471
47460W        W56260   5.112   7.703   8.530 -0.1640 -0.2707  0.2353
47461W        W56261   1.696   7.774   8.376 -0.1002 -0.1320  0.2416
47462W        W56262  17.498   7.298   3.730  0.3511  0.2335 -0.1985
47463W        W56263   8.171   7.764   1.983  0.2894  0.0914  0.1980
47464W        W56264  10.956   1.481  23.026 -0.0364 -0.0675 -0.3070
47465W        W56265  21.959   3.277   5.107  0.0177  0.1216 -0.0087
47466W        W56266  11.793   5.894  23.198 -0.2469 -0.1483 -0.2615
47467W        W56267  20.504   4.699   8.025 -0.1231  0.2356  0.0696
47468W        W56268   6.137   2.107  11.961  0.3280  0.1651  0.0780
47469W        W56269  19.814   0.200  18.547  0.2828 -0.2290  0.1166
47470W        W56270  10.149   3.639  17.872  0.0241  0.0906  0.0853
47471W        W56271   2.964   2.784   3.555  0.1791 -0.0901 -0.2177
47472W        W56272  15.037   2.671  24.304  0.0654 -0.2966 -0.0481
47473W        W56273   7.390   2.931  22.310  0.1888 -0.0157 -0.0899
47474W        W56274  21.036   0.223   1.627  0.2945 -0.0832 -0.2318
47475W        W56275   4.863   5.046  24.990 -0.1976 -0.1763 -0.2173
47476W        W56276   6.470   7.005   0.232 -0.0852  0.2762  0.1740
47477W        W56277  12.916   4.339  25.429 -0.1299 -0.1175 -0.0076
47478W        W56278   9.199   1.904  28.016 -0.2080  0.1643 -0.1377
47479W        W56279  17.283   0.580   7.466  0.0390  0.1397  0.1519
47480W        W56280  23.730   4.070  25.184  0.0658 -0.2368  0.0276
47481W        W56281   8.287   3.282  28.737  0.1512  0.0648  0.0899
47482W        W56282  24.129   7.371   2.769  0.0052  0.0733  0.1543
47483W        W56283  15.386   3.609   7.828  0.1327 -0.1588 -0.0359
47484W        W56284   2.254   4.107   4.833  0.1456  0.0269  0.0379
47485W        W56285  21.496   2.001  23.106 -0.0530  0.0308  0.0381
47486W        W56286  15.499   4.150  23.551  0.1727  0.2467  0.1163
47487W        W56287  20.774   0.693   2.739 -0.1345  0.0831  0.0133
47488W        W56288   9.387   1.842   6.029 -0.1148  0.3825  0.0516
47489W        W56289   6.271   4.573  23.550  0.0379 -0.0080  0.0501
47490W        W56290   2.671   4.842  32.284 -0.0574 -0.0723  0.0154
47491W        W56291   2.814   5.055  24.962  0.0625 -0.0147  0.1485
47492W        W56292  22.933   3.543  18.149  0.0814  0.0528  0.3347
47493W        W56293  21.458   0.391   6.282 -0.1078 -0.3389  0.1363
47494W        W56294  19.205   7.145   7.868 -0.2559  0.0736 -0.0230
47495W        W56295   3.190   1.340  11.566  0.0458 -0.3282 -0.1898
47496W        W56296  13.823   0.932  11.294 -0.0710  0.0817 -0.1513
47497W        W56297  20.027   5.341   8.962 -0.0354 -0.2370 -0.1149
47498W        W56298  13.952   7.176  31.535  0.0627 -0.0625 -0.0813
47499W        W56299   0.716   7.741   1.315  0.2500  0.2089  0.0804
47500W        W56300  11.609   7.607  23.183 -0.1692  0.2224  0.2821
47501W        W56301  10.579   3.086  31.061 -0.1048  0.0914  0.1579
47502W        W56302  13.530   5.116  24.192 -0.2439 -0.2027  0.1422
47503W        W56303  14.179   1.035  31.581 -0.1510  0.0829  0.2266
47504W        W56304  13.623   4.089  27.341  0.1841 -0.2353  0.2385
47505W        W56305  17.287   0.679  32.473 -0.1293 -0.0052 -0.4122
47506W        W56306  14.618   3.158   9.118  0.3384  0.2067  0.2515
47507W        W56307   4.449   4.022   0.647 -0.0664  0.0709 -0.1311
47508W        W56308  16.789   2.064  23.863  0.2292  0.1556  0.2194
47509W        W56309  20.567   2.124  29.669 -0.1285 -0.1971  0.2867
47510W        W56310  12.715   0.905  29.304  0.1508  0.1627  0.0776
47511W        W56311  22.723   6.855   1.154  0.0717  0.3161 -0.1865
47512W        W56312  14.770   5.866   3.454 -0.0574 -0.1773  0.0763
47513W        W56313   9.340   2.510   4.684  0.0876 -0.0384 -0.1056
47514W        W56314   5.739   3.655   1.883 -0.1057 -0.1085 -0.2320
47515W        W56315  23.467   5.254  27.862 -0.1005  0.0741  0.3408
47516W        W56316  12.991   5.886  29.591  0.1148  0.3643 -0.0302
47517W        W56317  10.847   5.584  11.994 -0.1141 -0.2591 -0.2514
47518W        W56318  18.093   2.453  22.218 -0.0819 -0.1417  0.0594
47519W        W56319  10.237   0.013  13.302 -0.0172 -0.0115 -0.0341
47520W        W56320  16.399   7.506   2.200 -0.0269  0.1483 -0.1255
47521W        W56321  10.489   2.663  27.050  0.0228 -0.1763 -0.0619
47522W        W56322   2.723   3.591  28.191  0.0191  0.2739 -0.2555
47523W        W56323  12.134   4.533  13.948 -0.1177 -0.3218 -0.4639
47524W        W56324  16.287   0.653  28.173 -0.3594 -0.0289  0.3409
47525W        W56325  12.651   6.186  30.289  0.0116  0.0748 -0.3983
47526W        W56326  23.305   6.984  27.745 -0.0679 -0.4278  0.2432
47527W        W56327   0.827   1.327   8.768  0.1843  0.1863  0.1474
47528W        W56328   8.927   0.873   3.492  0.1709 -0.0707 -0.0123
47529W        W56329  19.751   4.146   8.679 -0.1764  0.3564 -0.0678
47530W        W56330  18.397   6.136  22.500  0.0123 -0.3907 -0.0267
47531W        W56331  18.532   5.891   1.014  0.2326  0.0972 -0.3599
47532W        W56332  19.725   3.425   1.610 -0.2270 -0.3244 -0.2680
47533W        W56333  20.045   1.172   0.911 -0.1550  0.1072 -0.2036
47534W        W56334  22.947   0.827  25.858 -0.1426  0.0978 -0.0634
47535W        W56335  14.526   1.334  10.152 -0.2319 -0.1329  0.1690
47536W        W56336  12.948   4.886  14.269  0.2243 -0.1650 -0.3382
47537W        W56337   5.033   7.222   9.252 -0.0116 -0.1741  0.3814
47538W        W56338  16.739   4.948  23.394 -0.0293 -0.0455 -0.1210
47539W        W56339   9.963   0.663   2.598  0.2794  0.2562 -0.1307
47540W        W56340   8.673   0.677  26.227  0.0604 -0.0918  0.1306
47541W        W56341  13.991   2.876   4.771 -0.0789 -0.4792 -0.1587
47542W        W56342  21.949   1.144   3.338  0.3158  0.0868  0.2210
47543W        W56343  10.098   5.324  23.061  0.3906  0.0038  0.1010
47544W        W56344   6.488   3.673   1.371  0.0729 -0.3022 -0.0065
47545W        W56345  14.965   3.959  26.523  0.0757  0.1271 -0.0381
47546W        W56346  19.611   3.881   7.794  0.1508  0.1439 -0.0075
47547W        W56347   2.270   6.782  20.195 -0.0609  0.0144  0.0216
47548W        W56348  19.255   2.204  17.631 -0.2474  0.2885  0.0124
47549W        W56349   3.338   4.211   8.035  0.0785  0.4231 -0.2621
47550W        W56350  17.389   4.737   6.319 -0.1741 -0.1037 -0.1494
47551W        W56351   9.005   0.695  16.167  0.0438  0.0135  0.1731
47552W        W56352   0.627   6.083  25.715 -0.3301 -0.0146 -0.1369
47553W        W56353  10.495   4.701  31.563  0.0213  0.1946  0.1859
47554W        W56354   9.222   7.672   9.194 -0.1213 -0.0446 -0.2189
47555W        W56355   3.588   5.453   4.943  0.1190 -0.0043  0.1314
47556W        W56356  22.064   0.268   5.733 -0.3268  0.0099  0.1151
47557W        W56357   4.887   5.933   2.970 -0.6153 -0.0942 -0.2744
47558W        W56358  21.967   4.349   7.307  0.0591  0.1723  0.0090
47559W        W56359  21.287   2.768  24.588 -0.1290  0.1180 -0.0100
47560W        W56360  19.539   4.135  20.165  0.0013  0.2014 -0.1173
47561W        W56361  12.711   7.231  13.690  0.0238  0.0564  0.2347
47562W        W56362   5.158   5.171  23.081 -0.0496 -0.1365  0.1515
47563W        W56363  13.989   6.914  25.767  0.0043  0.1641 -0.3331
47564W        W56364  12.893   6.176  10.130  0.1383  0.0586 -0.0826
47565W        W56365  19.541   3.828  26.600  0.0207  0.0967  0.4410
47566W        W56366  20.896   1.606  15.436  0.4483 -0.0269  0.1830
47567W        W56367  22.013   7.263  24.574  0.0489  0.2118  0.1347
47568W        W56368   1.345   7.450  19.287 -0.0525  0.0227 -0.1305
47569W        W56369  21.474   7.672  14.633  0.3993 -0.2917 -0.3124
47570W        W56370   7.679   5.027   4.404  0.0852  0.0319 -0.2689
47571W        W56371   6.130   7.272  24.317  0.2458 -0.2464  0.0836
47572W        W56372  11.868   6.775   5.089  0.0831 -0.0397 -0.0453
47573W        W56373   3.691   5.596   8.111  0.3638 -0.1221  0.0307
47574W        W56374  12.632   3.618  10.320  0.1364  0.0290 -0.3726
47575W        W56375   8.804   3.041  28.445 -0.1909  0.2105 -0.0118
47576W        W56376   6.306   0.267  17.209  0.0356 -0.2014  0.0192
47577W        W56377   8.542   7.109   1.689  0.1191 -0.0807  0.1697
47578W        W56378  20.253   5.710  18.018  0.0376  0.1634  0.1837
47579W        W56379  22.716   1.855   6.533 -0.0080 -0.1639 -0.0717
47580W        W56380  23.688   4.823  18.362  0.1338 -0.0476  0.2455
47581W        W56381  19.945   1.421   8.390  0.1346 -0.1808  0.0698
47582W        W56382   9.824   5.707  23.788  0.0268  0.0947 -0.2121
47583W        W56383  17.573   1.622  19.345  0.0216 -0.0812  0.3883
47584W        W56384  10.315   3.691  14.052 -0.1846  0.3040 -0.0135
47585W        W56385  22.226   2.069   8.599 -0.1663 -0.2466  0.2517
47586W        W56386   6.980   7.190  10.460  0.5017  0.1488  0.1954
47587W        W56387   7.926   5.441  32.131  0.0744  0.0723  0.1607
47588W        W56388  12.681   7.548  12.771 -0.0807  0.1093 -0.1411
47589W        W56389   7.319   4.932  32.316 -0.1761  0.0891  0.2528
47590W        W56390  22.231   3.798  28.178 -0.3352 -0.2643 -0.2907
47591W        W56391   4.148   5.190   0.643  0.2589  0.0198  0.1547
47592W        W56392  15.144   7.361  32.644  0.0606  0.0028 -0.0677
47593W        W56393   8.012   6.672   3.426 -0.0592  0.0984 -0.1001
47594W        W56394   6.953   7.027  12.962  0.1700  0.0427  0.0104
47595W        W56395   5.988   3.055  28.091  0.0735  0.0605 -0.2538
47596W        W56396  16.792   5.428   6.670  0.1277  0.0554  0.0534
47597W        W56397  12.027   2.774  15.964 -0.0919 -0.1635 -0.0817
47598W        W56398   6.432   6.395   7.274  0.0957 -0.4394  0.1660
47599W        W56399  22.945   3.391   8.843  0.3415  0.1434 -0.0406
47600W        W56400  10.152   2.013  10.244  0.1156 -0.1339 -0.2886
47601W        W56401   5.591   4.171  27.859  0.0394 -0.1048  0.0187
47602W        W56402  18.138   1.149  22.835 -0.0504 -0.0277  0.0473
47603W        W56403  20.124   4.125  19.528  0.0403 -0.0659 -0.2490
47604W        W56404   3.977   7.096   1.147 -0.0107  0.0735  0.1698
47605W        W56405  14.708   1.081  21.464  0.0242  0.0719  0.2582
47606W        W56406   2.301   6.769  31.060 -0.0017  0.3825 -0.1382
47607W        W56407  16.486   1.971  10.698 -0.1949 -0.1030 -0.2021
47608W        W56408  19.912   5.870   6.579 -0.4757 -0.0643 -0.3433
47609ION     NA56409   9.399   3.385  14.566  0.1189 -0.3836  0.5123
47610ION     NA56410  10.352   5.327  13.567 -0.3087  0.2957  0.0630
47611ION     NA56411  15.252   2.346  11.106  0.3043  0.0042 -0.0692
47612ION     NA56412  13.864   7.419  11.412  0.3297  0.0034 -0.0695
47613ION     NA56413  22.271   3.114  24.925 -0.1008 -0.2970 -0.2141
47614ION     NA56414   7.239   4.572   7.212 -0.1493  0.1198  0.1783
47615ION     NA56415  23.997   5.146  26.191 -0.1769 -0.1392  0.0833
47616ION     NA56416  19.459   3.841   6.861  0.1698 -0.1771  0.2748
47617ION     NA56417   6.539   5.305  27.472  0.1246 -0.3783 -0.1180
47618ION     NA56418   8.188   2.300   5.637  0.3253  0.4800  0.2195
47619ION     NA56419  22.438   5.635   5.745 -0.4320 -0.4900 -0.1467
47620ION     NA56420   2.793   5.595  10.208  0.3545 -0.0455 -0.2307
47621ION     NA56421  17.069   7.759  20.972 -0.8949 -0.2375  0.0394
47622ION     NA56422   1.004   2.027  24.718 -0.0834 -0.0055 -0.0552
47623ION     NA56423  20.880   3.725  30.030 -0.0374 -0.2979 -0.4634
47624ION     NA56424  24.313   7.504  29.384  0.4934  0.1818  0.2145
47625ION     NA56425  14.394   4.938   6.945  0.8452 -0.3830  0.0302
47626ION     NA56426   4.489   1.411  10.838  0.1836 -0.5028 -0.0442
47627ION     NA56427   4.261   5.005  26.632 -0.0703 -0.0456  0.2948
47628ION     NA56428  14.328   3.509   0.388  0.0692  0.0727  0.2350
47629ION     NA56429  15.256   7.361   6.943 -0.0019  0.1482  0.1471
47630ION     NA56430   3.825   7.396   0.272  0.1669  0.0349 -0.2733
47631ION     NA56431  11.341   6.309  12.176  0.4188  0.5164  0.0916
47632ION     NA56432  13.031   1.075   7.159 -0.4537  0.4086  0.3862
47633ION     NA56433  10.905   0.193  23.704  0.0764 -0.1440  0.0351
47634ION     NA56434   2.311   2.742   6.677  0.1771 -0.4472  0.2187
47635ION     NA56435  19.148   5.970  22.890  0.2788  0.0791  0.0047
47636ION     NA56436  10.042   0.552  17.676 -0.3940  0.0870  0.0264
47637ION     NA56437  19.303   0.775  32.190 -0.1576 -0.3672 -0.0801
47638ION     NA56438  19.916   7.193  24.152  0.5835  0.0092  0.0301
47639ION     NA56439  14.461   2.720  25.921  0.0078  0.1664  0.1572
47640ION     NA56440  10.171   3.391  29.785 -0.0284  0.3899 -0.1717
47641ION     NA56441   0.592   2.462  28.248 -0.0897  0.1049  0.0475
47642ION     NA56442   1.252   2.510  30.726  0.1223 -0.1456  0.5058
47643ION     NA56443   9.812   6.991  22.672  0.0222  0.0480 -0.0111
47644ION     NA56444  16.694   1.735  10.036  0.1066  0.2455  0.0019
47645ION     NA56445  22.725   0.410  19.408 -0.1964  0.1649 -0.2092
47646ION     NA56446  21.366   7.505  23.280 -0.0709 -0.1850 -0.5361
47647ION     NA56447   1.810   2.342  23.531  0.2231  0.1755 -0.0888
47648ION     NA56448   5.333   5.822  13.129 -0.0698  0.2904  0.3351
47649ION     NA56449  12.850   7.073  22.552 -0.1598  0.2186  0.1115
47650ION     NA56450  13.764   6.108  27.873  0.1047 -0.2753  0.1223
47651ION     NA56451   5.805   4.964  28.422  0.0471 -0.3750  0.7640
47652ION     NA56452  22.621   0.215   7.145  0.2907 -0.0744  0.0726
47653ION     NA56453   1.485   4.762   9.515 -0.1402  0.1580 -0.2154
47654ION     NA56454  13.965   4.013  22.829  0.3062 -0.0339 -0.0133
47655ION     NA56455   6.243   0.970  28.683  0.0900 -0.3139  0.1164
47656ION     NA56456   5.088   6.452  22.575 -0.2101  0.0661 -0.2515
47657ION     NA56457  17.414   7.723   3.859 -0.4790  0.1126  0.2016
47658ION     NA56458  17.143   1.638  27.497 -0.0247 -0.1831 -0.1105
47659ION     NA56459   7.369   4.089  15.000 -0.3902  0.2280 -0.1516
47660ION     NA56460   0.765   5.828   2.129  0.0414 -0.2087  0.0111
47661ION     NA56461  13.074   3.262  29.344  0.2176 -0.3183  0.1421
47662ION     NA56462  15.006   6.801   6.285  0.1324 -0.3092  0.6087
47663ION     NA56463  14.565   2.144  28.786  0.3052 -0.2164 -0.3078
47664ION     NA56464   0.580   2.143   6.962 -0.0034  0.0685  0.0745
47665ION     NA56465   2.394   2.635  26.988 -0.4438  0.0277 -0.0302
47666ION     NA56466  16.169   4.814  30.083 -0.2174  0.3837 -0.3233
47667ION     NA56467  19.295   5.962  17.459  0.2731  0.1531 -0.0039
47668ION     NA56468  22.946   6.560  30.454 -0.1042 -0.0345 -0.3056
47669ION     NA56469  19.267   6.542  23.508 -0.0816  0.4083 -0.1644
47670ION     NA56470   0.442   0.936   7.154  0.0967  0.3686 -0.1504
47671ION     NA56471   8.939   7.766   2.591 -0.0787  0.4458  0.1503
47672ION     NA56472   7.780   7.030  26.694 -0.0430  0.0118 -0.1138
47673ION     NA56473  24.524   5.376   7.841  0.2532 -0.1611 -0.5146
47674ION     NA56474   9.752   1.086   1.981  0.0303  0.1420 -0.1404
47675ION     NA56475   6.125   2.283   2.271 -0.1390  0.4627 -0.2792
47676ION     NA56476  21.812   3.049   0.085  0.4344  0.2707  0.3110
47677ION     NA56477  18.277   1.173  26.932  0.1924 -0.0735  0.4505
47678ION     NA56478  20.057   3.292  27.030 -0.0462  0.0389  0.3893
47679ION     NA56479   9.999   3.523   7.175  0.4679  0.2638 -0.2625
47680ION     NA56480   2.475   0.675   3.637 -0.1113  0.2183  0.0607
47681ION     NA56481   5.246   5.682  31.648  0.2964 -0.1886 -0.1239
47682ION     NA56482   5.960   6.116  31.173 -0.1493 -0.1405 -0.2545
47683ION     NA56483  20.449   4.835   3.726 -0.0413  0.3887  0.1651
47684ION     NA56484   0.627   1.738  17.568 -0.0980  0.1408 -0.2773
47685ION     NA56485   3.828   1.089  29.974  0.3270  0.6377  0.5038
47686ION     NA56486  21.135   2.968  10.263  0.0898 -0.2561 -0.0898
47687ION     NA56487  16.955   3.113  22.205  0.1775  0.1687 -0.2023
47688ION     NA56488   5.988   6.173  23.094 -0.4819  0.2905 -0.2211
47689ION     NA56489   8.863   5.729  15.550  0.0890 -0.1596 -0.1428
47690ION     NA56490   0.984   4.184  29.978  0.1441 -0.0444 -0.1957
47691ION     NA56491   3.049   0.468  29.891 -0.0397 -0.1293 -0.0693
47692ION     NA56492  14.875   7.371  12.950  0.0889  0.0863  0.3765
47693ION     NA56493   2.537   6.867   9.559  0.3766 -0.2334  0.1861
47694ION     NA56494  16.710   7.655  11.997  0.4800  0.5241 -0.3447
47695ION     NA56495  18.528   1.960  18.342 -0.5688 -0.1347  0.1513
47696ION     NA56496  16.650   3.451   9.129  0.1146  0.2556  0.1086
47697ION     NA56497   1.784   7.503   9.283 -0.0243  0.0148 -0.3471
47698ION     NA56498   2.099   3.615  20.424  0.1011  0.0952  0.0609
47699ION     NA56499  16.864   0.916  22.669  0.0916 -0.1698  0.0668
47700ION     NA56500  23.001   4.151   7.833  0.0340 -0.2990  0.0044
47701ION     NA56501   8.760   2.913  12.311  0.4114 -0.0652  0.1939
47702ION     NA56502  24.015   1.238   9.823  0.0529  0.1846 -0.0383
47703ION     NA56503  12.562   6.282  22.212  0.3317 -0.3562  0.2840
47704ION     NA56504  10.574   5.948  12.456 -0.2353  0.0608  0.0340
47705ION     NA56505   8.327   6.432   9.220  0.0478  0.3880  0.2058
47706ION     NA56506  10.591   5.172   5.341  0.2197  0.0586 -0.3343
47707ION     NA56507  12.568   1.737  15.768  0.1414 -0.1938  0.0258
47708ION     NA56508  20.617   6.544  24.919  0.2333  0.0596 -0.1470
47709ION     NA56509  11.477   7.131   1.565  0.4760  0.2150  0.3462
47710ION     NA56510   4.607   3.876   5.318  0.3084  0.1208 -0.3212
47711ION     NA56511  22.124   2.061  29.964  0.1459  0.1867  0.0685
47712ION     NA56512   4.439   3.474  22.921 -0.1585  0.1192 -0.0022
47713ION     NA56513   9.657   1.487   5.440 -0.2234 -0.2425 -0.2791
47714ION     NA56514   4.103   2.435  24.319  0.0756  0.0602 -0.2272
47715ION     NA56515   8.074   5.916  24.452  0.3586  0.0751 -0.0712
47716ION     NA56516   5.917   2.826   6.147 -0.0638  0.0500 -0.8334
47717ION     NA56517   8.821   7.368   1.833  0.2363 -0.1366  0.0129
47718ION     NA56518   2.809   1.992  30.020  0.0337 -0.3850  0.3358
47719ION     NA56519  18.665   7.134  24.419 -0.5289 -0.3555 -0.0380
47720ION     NA56520  14.090   3.286   2.610 -0.3967 -0.0116 -0.1804
47721ION     NA56521   1.281   4.486   6.901 -0.1100 -0.4371 -0.2235
47722ION     NA56522  10.225   0.563   3.570 -0.0348  0.3462 -0.5014
47723ION     NA56523  14.998   0.158  20.975  0.1299 -0.2981  0.1985
47724ION     NA56524  24.733   3.408   9.435  0.1923  0.4063 -0.3029
47725ION     NA56525  16.001   2.876  27.285 -0.1362  0.1150  0.0138
47726ION     NA56526   4.284   7.413  24.697 -0.3941 -0.0226  0.1491
47727ION     NA56527  11.400   5.433   0.774 -0.3195  0.1061 -0.0569
47728ION     NA56528  12.275   0.996  15.983  0.0662  0.0299  0.2286
47729ION     NA56529  10.294   6.772  14.158  0.2946 -0.0100 -0.2318
47730ION     NA56530   9.254   1.717  15.153 -0.6158 -0.0643 -0.0331
47731ION     NA56531   4.266   3.022   9.828 -0.2541  0.1209  0.1975
47732ION     NA56532  18.767   6.454  24.503 -0.2121  0.4693  0.1916
47733ION     NA56533   6.634   2.853  15.702 -0.2846  0.1870 -0.0056
47734ION     NA56534  24.628   2.128  17.111  0.0515 -0.0760  0.6979
47735ION     NA56535  17.687   1.016  20.135 -0.2640 -0.0935 -0.1708
47736ION     NA56536   4.226   3.898  23.589  0.0524 -0.3375 -0.0402
47737ION     NA56537   0.695   5.737  10.370  0.0877 -0.4193 -0.6533
47738ION     NA56538  24.866   6.882  29.571 -0.3318  0.0203 -0.0217
47739ION     NA56539  13.798   4.170   3.155  0.0777 -0.4967  0.2786
47740ION     NA56540  15.558   1.687  12.206 -0.3448 -0.0851 -0.2550
47741ION     NA56541  13.182   2.682  14.369 -0.0442  0.0744 -0.1512
47742ION     NA56542  13.140   0.240  25.229 -0.1909 -0.5405  0.5539
47743ION     NA56543  18.458   4.831   7.549 -0.2454  0.1002 -0.5233
47744ION     NA56544   5.474   0.748  31.473 -0.3637  0.1959 -0.0529
47745ION     NA56545  15.879   1.637  19.734 -0.1374 -0.6023 -0.1406
47746ION     NA56546  21.120   4.690  30.640 -0.3560  0.1112 -0.4895
47747ION     NA56547   3.993   0.857  26.385  0.1498 -0.0644  0.1385
47748ION     NA56548  19.519   4.811  21.021  0.0642  0.2434  0.0168
47749ION     NA56549  13.565   3.730  28.766 -0.4359 -0.0674 -0.0453
47750ION     NA56550   4.167   6.357  26.865  0.2170  0.2316 -0.2525
47751ION     NA56551  22.910   3.894  20.514  0.1017 -0.4278  0.5517
47752ION     NA56552   8.440   3.783  12.568 -0.2397  0.0722 -0.0063
47753ION     NA56553  16.084   5.725   4.747  0.3393 -0.3448  0.4201
47754ION     NA56554  10.853   2.904  13.419 -0.2201 -0.5681  0.2759
47755ION     NA56555   6.305   3.454  15.109 -0.0470  0.0804  0.0929
47756ION     NA56556  12.285   6.854   3.399  0.0310  0.1374 -0.5374
47757ION     NA56557  21.360   4.593   5.475  0.0936 -0.1883 -0.0237
47758ION     NA56558  11.593   0.645  31.774 -0.2835 -0.4195 -0.0243
47759ION     NA56559  18.867   6.706   3.607  0.2267  0.1289  0.0558
47760ION     NA56560  12.193   5.960  22.871  0.0258 -0.0440  0.5603
47761ION     NA56561  13.469   4.002   8.764 -0.0875 -0.1292 -0.0157
47762ION     NA56562  21.756   7.176   8.940  0.2823  0.0558  0.0363
47763ION     NA56563  10.489   2.212  10.408  0.1408 -0.3844 -0.1701
47764ION     NA56564  21.498   3.363   5.242 -0.0627  0.0197 -0.0874
47765ION     NA56565   0.256   3.253   8.837  0.1068  0.2678  0.0689
47766ION     NA56566  25.039   3.229  28.049  0.3785 -0.1552  0.1142
47767ION     NA56567   5.020   6.704  12.759 -0.1442  0.4086  0.0128
47768ION     NA56568   9.940   6.126  10.103 -0.2811  0.0857  0.0647
47769ION     NA56569   0.509   0.081  20.513 -0.1459  0.0979 -0.2006
47770ION     NA56570  20.241   4.583  24.480 -0.5400  0.1032 -0.1969
47771ION     NA56571  13.425   7.320   7.175 -0.2011 -0.2209  0.2450
47772ION     NA56572  17.746   2.877   1.400 -0.2805  0.0622  0.3243
47773ION     NA56573  14.422   4.525  12.046 -0.0281  0.2716 -0.1462
47774ION     NA56574  15.871   3.395  21.518  0.2864  0.1777  0.1010
47775ION     NA56575   1.026   2.247  17.410  0.1220 -0.3042  0.2916
47776ION     NA56576   9.581   7.185   0.762 -0.1665 -0.0190  0.1270
47777ION     NA56577   7.726   3.838   4.924 -0.0616 -0.2388 -0.0094
47778ION     NA56578  14.887   3.111  10.836  0.1488  0.3055 -0.3469
47779ION     NA56579  24.491   0.204   7.634  0.0395  0.1146 -0.3033
47780ION     NA56580  20.491   2.686  10.309  0.0084  0.4944  0.0276
47781ION     NA56581   1.480   6.483   3.060  0.2387  0.3787 -0.5077
47782ION     NA56582   8.428   5.271  23.016  0.4461  0.0469 -0.0519
47783ION     NA56583   3.949   5.974  22.991  0.0797 -0.4179 -0.1837
47784ION     NA56584   3.946   2.988  13.709 -0.3843 -0.1699 -0.3987
47785ION     NA56585  14.163   6.614  32.602 -0.1569  0.2428  0.1345
47786ION     NA56586  20.072   6.508  23.271 -0.1315 -0.0119 -0.3894
47787ION     NA56587   2.679   5.493  28.765 -0.3897 -0.3154  0.5516
47788ION     NA56588  21.230   6.622  30.003 -0.0184 -0.2156 -0.1952
47789ION     NA56589  13.189   1.991   3.317 -0.1846  0.2040 -0.3611
47790ION     NA56590  13.823   5.313   4.244  0.0858 -0.2097 -0.1858
47791ION     NA56591  11.274   7.586  22.278 -0.0918 -0.0681 -0.5811
47792ION     NA56592  13.180   6.955  32.592  0.2814  0.1843  0.1777
47793ION     NA56593  20.517   1.822   4.112 -0.4519  0.1550 -0.4902
47794ION     NA56594  23.727   4.223  17.281  0.1768  0.0736 -0.0897
47795ION     NA56595  13.538   0.774  21.468 -0.2218  0.2243  0.0957
47796ION     NA56596  17.247   3.048  23.300 -0.3656 -0.2717 -0.3734
47797ION     NA56597   4.757   6.988  25.306 -0.4210  0.2490 -0.3834
47798ION     NA56598  16.096   1.608   9.681 -0.0471  0.1087  0.0908
47799ION     NA56599  24.035   3.983  19.348 -0.2270  0.2469  0.1231
47800ION     NA56600   4.320   4.926   5.163 -0.1451  0.3982  0.3515
47801ION     NA56601   9.057   2.815  29.408 -0.1767 -0.3180  0.3587
47802ION     NA56602   8.407   2.495   6.383  0.0017  0.1781 -0.0769
47803ION     NA56603  23.671   2.243   4.126  0.2932 -0.0259  0.1517
47804ION     CL56604  18.224   5.807   8.097 -0.2791 -0.2098 -0.1784
47805ION     CL56605  17.229   7.314  21.434 -0.1174  0.2005 -0.2022
47806ION     CL56606  21.923   2.066   6.605 -0.3069 -0.1226 -0.0368
47807ION     CL56607  14.086   3.917  23.255  0.4315  0.0666 -0.0472
47808ION     CL56608  23.894   0.868  30.763 -0.0802  0.3295 -0.1622
47809ION     CL56609   7.582   5.873  30.416 -0.3465  0.0467  0.0531
47810ION     CL56610  17.433   0.284   3.807 -0.6305 -0.1739 -0.3525
47811ION     CL56611   2.895   0.756  30.659 -0.1421 -0.0666  0.1285
47812ION     CL56612   4.995   3.490  15.108 -0.1332  0.2975  0.3309
47813ION     CL56613  21.330   5.011   4.802 -0.2886 -0.2669  0.0405
47814ION     CL56614   0.321   3.313   1.491  0.6662  0.1658  0.3083
47815ION     CL56615  21.559   0.749  22.388  0.2549 -0.2166  0.1619
47816ION     CL56616  19.283   0.675  23.562  0.2355  0.3372  0.5478
47817ION     CL56617  23.130   7.073   2.406 -0.0994 -0.4752 -0.1944
47818ION     CL56618  17.134   7.208  10.772  0.0352  0.1839  0.1675
47819ION     CL56619  14.750   4.696  26.226 -0.0956 -0.2927 -0.1394
47820ION     CL56620  14.619   6.104  25.048 -0.2214  0.1874 -0.1751
47821ION     CL56621  19.301   2.656  23.185  0.0147  0.1277  0.1694
47822ION     CL56622  20.716   7.802  22.744  0.2041 -0.3989 -0.0661
47823ION     CL56623   5.542   1.004   8.616  0.0584 -0.1875 -0.1832
47824ION     CL56624   4.748   1.110   9.343 -0.0923 -0.6456 -0.1105
47825ION     CL56625  14.015   7.652  28.269 -0.1342 -0.3448 -0.1274
47826ION     CL56626  14.702   6.047  27.198  0.4993  0.3679  0.2259
47827ION     CL56627   8.263   1.385  24.686  0.0269  0.1388  0.3644
47828ION     CL56628  12.728   7.814  24.791 -0.5842 -0.0933 -0.1561
47829ION     CL56629   9.516   7.483  15.445 -0.2588 -0.0977  0.0379
47830ION     CL56630  19.326   7.668   9.210  0.5246 -0.0532  0.0930
47831ION     CL56631   5.893   6.742   4.490 -0.3513  0.0911 -0.1986
47832ION     CL56632  14.185   2.097  25.470  0.0114  0.0492 -0.4837
47833ION     CL56633  12.119   3.622  10.793 -0.4295  0.2578  0.0470
47834ION     CL56634  22.770   6.961   9.321  0.1390 -0.1499 -0.1753
47835ION     CL56635   1.426   3.982  21.026 -0.1907  0.1996 -0.3663
47836ION     CL56636   4.515   6.984  14.617  0.2460  0.0837  0.0963
47837ION     CL56637   8.574   2.803   4.146 -0.1162  0.1327 -0.0807
47838ION     CL56638   0.566   1.303  19.642  0.1674  0.3229 -0.3891
47839ION     CL56639   2.190   1.981  28.230  0.3226 -0.2795 -0.2322
47840ION     CL56640   1.345   4.718   0.807 -0.1411  0.0206  0.4955
47841ION     CL56641  11.291   6.194  22.942 -0.1935 -0.0511 -0.1421
47842ION     CL56642   1.301   6.088   7.330 -0.0460 -0.0260 -0.0423
47843ION     CL56643  20.014   6.457  23.957 -0.1623 -0.2888 -0.0681
47844ION     CL56644   0.092   2.087   1.345  0.2607 -0.2980  0.0064
47845ION     CL56645   7.521   3.333  26.979 -0.0769 -0.4207 -0.1008
47846ION     CL56646  12.963   4.065   9.995 -0.4065 -0.0688 -0.0172
47847ION     CL56647  12.701   5.692   4.044 -0.3353  0.1149 -0.1408
47848ION     CL56648   2.593   2.975   1.125 -0.1607  0.0558  0.3902
47849ION     CL56649  20.309   2.247  26.329  0.0355 -0.1335 -0.5924
47850ION     CL56650  16.423   5.229  32.562  0.1162 -0.1984  0.0836
47851ION     CL56651   1.688   4.229   1.433 -0.1100  0.1163  0.1871
47852ION     CL56652   6.997   3.409  10.014 -0.4194  0.0525  0.4625
47853ION     CL56653  16.686   3.796   9.571 -0.0669  0.3166 -0.2162
47854ION     CL56654   2.863   5.756  28.904  0.0932  0.1774 -0.0671
47855ION     CL56655   7.543   4.440   7.678  0.1163  0.2833 -0.0153
47856ION     CL56656  23.634   2.926  16.601  0.0721 -0.0899  0.1475
47857ION     CL56657   3.900   7.613  29.498 -0.3262 -0.0330  0.0208
47858ION     CL56658  15.357   6.735  20.561  0.0779 -0.3874 -0.2515
47859ION     CL56659  17.505   5.588   9.749  0.1446  0.1813  0.1036
47860ION     CL56660  12.150   0.576   6.602  0.2563 -0.3057  0.1434
47861ION     CL56661  24.184   0.014  26.988 -0.0311  0.2109 -0.2076
47862ION     CL56662   4.204   4.102  28.542 -0.0935  0.1472 -0.2084
47863ION     CL56663  13.470   6.133  22.751  0.6662 -0.3019 -0.0248
47864ION     CL56664  16.339   1.900   9.808  0.2044  0.5565 -0.2390
47865ION     CL56665  14.277   6.348  10.030 -0.5958  0.0328 -0.0878
47866ION     CL56666  18.551   1.160  20.303 -0.0578 -0.2019 -0.1998
47867ION     CL56667   7.292   7.445  32.266  0.1618 -0.3186  0.1393
47868ION     CL56668   3.618   0.897  24.258  0.0174  0.3645  0.1310
47869ION     CL56669   6.935   6.071  13.713 -0.0466 -0.1571 -0.2803
47870ION     CL56670  15.144   7.170   6.679 -0.1547 -0.0476 -0.1645
47871ION     CL56671   5.209   1.986   8.474 -0.3170 -0.2838  0.5966
47872ION     CL56672  16.158   1.003  22.625 -0.0654 -0.2915  0.0879
47873ION     CL56673  16.855   7.387  28.872 -0.3956  0.0350 -0.4835
47874ION     CL56674   5.137   7.784  14.225 -0.0570  0.5095  0.0098
47875ION     CL56675   0.076   0.549  20.895 -0.1369 -0.0967  0.0138
47876ION     CL56676  22.451   3.976  14.969  0.1388 -0.3183 -0.1749
47877ION     CL56677  11.950   3.580   8.875 -0.0903 -0.0050 -0.0407
47878ION     CL56678  23.377   5.303  25.402  0.2854  0.5023  0.3608
47879ION     CL56679   1.294   5.793  32.445 -0.5469  0.4203  0.0206
47880ION     CL56680  13.665   2.937  25.810 -0.1661 -0.2669  0.1805
47881ION     CL56681   1.906   1.119  24.977  0.5166 -0.1016  0.2880
47882ION     CL56682   6.612   4.214  12.397  0.4539 -0.1040 -0.0373
47883ION     CL56683  19.263   1.631  18.147 -0.1595  0.0184 -0.0181
47884ION     CL56684   9.213   7.547   2.579  0.2970  0.1214 -0.2700
47885ION     CL56685  19.360   5.916  31.434 -0.1533  0.1089  0.3074
47886ION     CL56686   1.622   5.604  24.884 -0.0803  0.0648  0.1883
47887ION     CL56687  10.086   4.643  16.051  0.1876 -0.0153  0.1544
47888ION     CL56688  11.196   5.433   5.263 -0.2300  0.1671  0.4089
47889ION     CL56689   4.141   2.427  28.995  0.2963  0.1445  0.3604
47890ION     CL56690  11.651   4.274   3.661 -0.1162 -0.0964  0.0670
47891ION     CL56691  14.147   1.468  27.785 -0.0980  0.0724  0.0774
47892ION     CL56692  24.192   5.792  16.551  0.1447  0.0931  0.1497
47893ION     CL56693   2.062   1.657   5.730 -0.5011  0.1106 -0.5338
47894ION     CL56694  10.673   0.499   4.285 -0.2580 -0.3339 -0.1477
47895ION     CL56695   3.361   3.990  32.674 -0.6480 -0.0947 -0.2114
47896ION     CL56696  19.470   5.980  16.974  0.2639 -0.0665 -0.2422
47897ION     CL56697  14.866   3.261   6.458 -0.0339  0.2911 -0.0735
47898ION     CL56698   1.778   6.734  28.944 -0.0198  0.0953 -0.0961
47899ION     CL56699  22.736   0.232  24.354 -0.1235  0.0520 -0.4891
47900ION     CL56700   8.964   0.886  28.739  0.1838  0.4287  0.0309
47901ION     CL56701   9.130   7.820   4.591 -0.0539 -0.3771  0.3277
47902ION     CL56702   8.383   2.567   5.449  0.2058  0.0971 -0.0774
47903ION     CL56703   4.797   5.048  22.808  0.0415 -0.3277  0.2158
47904ION     CL56704   1.415   6.413   1.147 -0.5912 -0.3583  0.0152
47905ION     CL56705   1.786   6.276   9.992  0.0720 -0.2904  0.3120
47906ION     CL56706   9.258   4.764  32.575 -0.0931  0.2754 -0.0221
47907ION     CL56707   2.730   7.340  11.709  0.0388 -0.0913  0.6411
47908ION     CL56708   5.327   2.952  26.948 -0.3265  0.1627  0.4079
47909ION     CL56709  10.784   2.394  29.695 -0.2619 -0.2645 -0.2138
47910ION     CL56710  10.053   1.802  23.061 -0.0300  0.0470 -0.1116
47911ION     CL56711   6.366   4.857  16.646  0.0193  0.0954 -0.1509
47912ION     CL56712   5.638   3.413  31.230 -0.0995  0.2054 -0.1105
47913ION     CL56713  22.134   0.589  32.448 -0.4070 -0.4086  0.2001
47914ION     CL56714   4.970   6.110  13.074  0.4117  0.1352 -0.0918
47915ION     CL56715   0.934   3.161   9.049 -0.3890  0.1064  0.3401
47916ION     CL56716  15.077   7.619   7.812  0.1517  0.1301 -0.2987
47917ION     CL56717  19.554   0.610  28.206 -0.0844 -0.0381 -0.4747
47918ION     CL56718   2.724   5.586   5.150 -0.1408  0.1641  0.2527
47919ION     CL56719  20.465   6.719   2.382  0.0130 -0.0647 -0.3501
47920ION     CL56720  22.352   2.605  17.331 -0.1122  0.1132 -0.0878
47921ION     CL56721  22.186   4.089  32.327  0.3515  0.0459 -0.0663
47922ION     CL56722  19.067   0.993   0.108 -0.4118  0.3817 -0.2769
47923ION     CL56723   5.155   6.578   0.843 -0.0004  0.2359 -0.1330
47924ION     CL56724  19.967   2.962  26.957  0.0506 -0.1393 -0.0534
47925ION     CL56725   2.717   7.510  32.435 -0.1512  0.1734 -0.0191
47926ION     CL56726   5.652   4.210   5.377 -0.2175  0.4335 -0.0788
47927ION     CL56727  23.172   6.741  15.817 -0.3889  0.0821  0.2603
47928ION     CL56728  11.569   6.968   6.472 -0.2504 -0.0618  0.3273
47929ION     CL56729  17.431   5.702  20.692  0.0686 -0.1243  0.0675
47930ION     CL56730  17.663   3.143   2.113  0.2332 -0.1267 -0.2047
47931ION     CL56731  12.353   4.815  10.157  0.1920  0.2549  0.1926
47932ION     CL56732  24.479   4.535  26.421  0.0974 -0.4462 -0.2894
47933ION     CL56733  14.902   4.837  21.052  0.3837 -0.2521 -0.0409
47934ION     CL56734   0.669   5.519   0.992 -0.1557 -0.2820 -0.4363
47935ION     CL56735  12.196   4.117   9.217 -0.1877  0.1574 -0.1214
47936ION     CL56736  10.545   3.429  12.529 -0.0209 -0.1223 -0.0484
47937ION     CL56737  21.822   4.439   1.759  0.2864 -0.4676 -0.0008
47938ION     CL56738   3.683   3.062  22.962 -0.2491  0.3940  0.0456
47939ION     CL56739  20.941   0.694  28.509 -0.2676  0.1389  0.0239
47940ION     CL56740   7.764   6.872   6.897  0.2434 -0.2021  0.1964
47941ION     CL56741  22.183   2.313  30.339  0.3224 -0.4152  0.0565
47942ION     CL56742   8.321   4.478   1.323 -0.1477  0.2017  0.6449
47943ION     CL56743  20.294   5.234   3.181 -0.0711 -0.0081 -0.0206
47944ION     CL56744   3.767   4.930   5.157  0.1262 -0.2646 -0.1739
47945ION     CL56745  22.328   6.274  30.416  0.0730  0.0322 -0.1888
47946ION     CL56746   0.335   1.345   9.864 -0.1460 -0.4910  0.3766
47947ION     CL56747  20.800   2.051   5.127  0.5758  0.2528 -0.1766
47948ION     CL56748  10.049   1.821  10.648 -0.2537 -0.3404 -0.4682
  25.04597   7.82687  32.70925
