#include "/scratch/local/casakurai/asyn-phase-binding-data/martini3-files/martini.itp"

[ system ]
; name
INSANE! Membrane UpperLeaflet>M3.DPPC:M3.DPPS=75.0:25.0 LowerLeaflet>M3.DPPC:M3.DPPS=75.0:25.0


[ molecules ]
; name  number
DPPC 75.0
DPPS 25.0
DPPC 75.0
DPPS 25.0
W 11459
NA 195
CL 145
DPPC 75.0
DPPS 25.0
DPPC 75.0
DPPS 25.0
W 11459
NA 195
CL 145
DPPC 75.0
DPPS 25.0
DPPC 75.0
DPPS 25.0
W 11459
NA 195
CL 145
DPPC 75.0
DPPS 25.0
DPPC 75.0
DPPS 25.0
W 11459
NA 195
CL 145
