#include "/scratch/local/casakurai/asyn-phase-binding-data/martini3-files/martini.itp"

[ system ]
; name
INSANE! Membrane UpperLeaflet>DOPC=100.0 LowerLeaflet>DOPC=100.0


[ molecules ]
; name  number
DOPC 200
W 11497
NA 145
CL 145
DOPC 200
W 11497
NA 145
CL 145
DOPC 200
W 11497
NA 145
CL 145
DOPC 200
W 11497
NA 145
CL 145
